Title
82279
    1SAPS     N    1   0.394   2.112  11.195  0.0271 -0.3440  0.1554
    1SAPS   HN1    2   0.292   2.123  11.214 -0.2579  0.0591 -1.4515
    1SAPS   HN2    3   0.395   2.054  11.108 -1.7645 -1.2602  0.6930
    1SAPS   HN3    4   0.449   2.072  11.273 -1.2354 -0.8927  0.8069
    1SAPS   C12    5   0.437   2.244  11.164  0.2239  0.0723  0.3079
    1SAPS  H12A    6   0.400   2.322  11.229 -1.3719 -1.3485  1.1804
    1SAPS   C13    7   0.590   2.267  11.164 -0.5552  0.9689 -0.1983
    1SAPS  O13A    8   0.669   2.171  11.172  0.1023 -0.1771  0.5480
    1SAPS  O13B    9   0.632   2.385  11.162  0.2137 -0.7374  0.5611
    1SAPS   C11   10   0.405   2.277  11.010 -0.0959 -0.1112 -0.3182
    1SAPS  H11A   11   0.457   2.202  10.947  1.0533  0.4006 -0.0011
    1SAPS  H11B   12   0.441   2.379  10.985 -1.1317  0.7841  1.6006
    1SAPS     P   13   0.188   2.349  10.883 -0.1945  0.4485  0.1720
    1SAPS   O13   14   0.077   2.417  10.960 -0.6181 -0.3865 -0.0247
    1SAPS   O14   15   0.287   2.427  10.802 -0.0296  0.1641  0.0950
    1SAPS   O12   16   0.269   2.263  10.987  0.5671 -0.3520 -0.0083
    1SAPS   O11   17   0.120   2.235  10.795 -0.4856  0.4010 -0.0870
    1SAPS    C1   18   0.193   2.156  10.708  0.7511 -0.1538  0.3496
    1SAPS    HA   19   0.284   2.201  10.665 -0.8119  1.7460 -1.1947
    1SAPS    HB   20   0.236   2.066  10.757 -1.4277 -2.4745 -1.6436
    1SAPS    C2   21   0.108   2.105  10.587  0.4338 -0.3905 -0.4611
    1SAPS    HS   22   0.138   2.001  10.562 -0.9766 -1.2346  1.1455
    1SAPS   O21   23   0.127   2.197  10.478  0.0020  0.1596  0.7424
    1SAPS   C21   24   0.246   2.174  10.413 -0.4122 -0.2897  0.2525
    1SAPS   O22   25   0.325   2.079  10.435 -0.1417 -0.1993  0.5843
    1SAPS   C22   26   0.276   2.286  10.309 -0.8939  0.3075 -0.3397
    1SAPS   H2R   27   0.247   2.388  10.343  0.8407  0.6014  0.3821
    1SAPS   H2S   28   0.385   2.302  10.298 -1.0285  2.5765  0.9905
    1SAPS    C3   29  -0.045   2.102  10.620 -0.2862  0.2050  0.0001
    1SAPS    HX   30  -0.070   2.202  10.661  0.2907  0.5088 -0.3645
    1SAPS    HY   31  -0.052   2.026  10.700  1.0342 -0.4459 -0.4677
    1SAPS   O31   32  -0.118   2.067  10.503 -0.5674  0.4724 -0.0655
    1SAPS   C31   33  -0.242   2.031  10.538  0.7997  0.3879  0.0014
    1SAPS   O32   34  -0.277   2.021  10.650  0.0120 -0.0692 -0.4081
    1SAPS   C32   35  -0.334   1.990  10.416  0.0881  0.2007  0.1949
    1SAPS   H2X   36  -0.438   1.973  10.452 -0.4825 -1.3208 -2.0118
    1SAPS   H2Y   37  -0.294   1.894  10.379  1.2289  1.0148 -0.7813
    1SAPS   C23   38   0.213   2.244  10.167 -0.4258  0.3776  0.2825
    1SAPS   H3R   39   0.104   2.233  10.183 -1.0184  0.8360 -2.7398
    1SAPS   H3S   40   0.253   2.144  10.139  0.2084  0.6343  0.2468
    1SAPS   C24   41   0.207   2.353  10.067 -0.3965 -0.7691  0.8842
    1SAPS   H4R   42   0.306   2.382  10.026 -0.7855 -0.4670  0.1382
    1SAPS   H4S   43   0.171   2.452  10.102 -0.9173  0.5366 -2.9068
    1SAPS   C25   44   0.136   2.298   9.942 -0.3790 -0.8011  0.4555
    1SAPS   H5R   45   0.043   2.241   9.960 -0.7677 -1.2931 -2.5615
    1SAPS   C26   46   0.179   2.316   9.813  0.2584  0.0403 -0.1032
    1SAPS   H6R   47   0.118   2.267   9.735  1.3187  0.0858 -0.9904
    1SAPS   C27   48   0.296   2.395   9.759  0.7503 -0.6105 -0.4046
    1SAPS   H7R   49   0.343   2.324   9.688  0.2657  1.1011 -2.5262
    1SAPS   H7S   50   0.363   2.431   9.840  0.3158  1.0932 -0.7657
    1SAPS   C28   51   0.251   2.522   9.695 -0.9241 -0.4967  0.7912
    1SAPS   H8R   52   0.174   2.577   9.750 -0.2308  2.4302 -0.9205
    1SAPS   C29   53   0.304   2.580   9.584  0.5491 -0.1293  0.1283
    1SAPS   H9R   54   0.261   2.672   9.541  1.6836  0.3502 -0.0296
    1SAPS  C210   55   0.418   2.528   9.495 -0.4587  0.4621 -0.2102
    1SAPS  H10R   56   0.398   2.552   9.388  0.2527 -0.3522 -0.5369
    1SAPS  H10S   57   0.435   2.418   9.488 -0.5268  0.4071  0.4686
    1SAPS  C211   58   0.547   2.588   9.542  0.1071  0.5144 -0.3958
    1SAPS  H11R   59   0.567   2.572   9.649  0.4523  1.1013 -0.3670
    1SAPS  C212   60   0.632   2.657   9.468  0.0707 -0.2417 -0.3001
    1SAPS  H12R   61   0.716   2.698   9.526  1.0356 -2.6323  0.1089
    1SAPS  C213   62   0.620   2.686   9.318  0.0383  0.2231 -0.6910
    1SAPS  H13R   63   0.609   2.591   9.262  0.9924  1.1930 -2.6722
    1SAPS  H13S   64   0.720   2.725   9.289  0.9364 -0.9671  0.6933
    1SAPS  C214   65   0.523   2.796   9.282  0.1548  0.5416  0.5742
    1SAPS  H14R   66   0.487   2.857   9.367 -1.1710  0.3200  0.1941
    1SAPS  C215   67   0.462   2.812   9.160 -0.2110  0.8521 -0.2347
    1SAPS  H15R   68   0.385   2.891   9.156 -1.7392 -0.4138  2.1512
    1SAPS  C216   69   0.493   2.719   9.044  0.1530  0.0117  0.1205
    1SAPS  H16R   70   0.397   2.685   9.000 -0.5989  1.2636  0.7403
    1SAPS  H16S   71   0.538   2.623   9.076  2.2119  1.2356  1.0987
    1SAPS  C217   72   0.572   2.792   8.939 -0.0747 -0.3643  0.2166
    1SAPS  H17R   73   0.536   2.893   8.912 -1.6324 -1.1210 -0.6551
    1SAPS  H17S   74   0.579   2.735   8.844  0.3204  0.7734 -0.4562
    1SAPS  C218   75   0.712   2.820   8.988  0.0799  0.8302  0.0188
    1SAPS  H18R   76   0.761   2.721   9.001 -2.0492 -0.1526  1.0885
    1SAPS  H18S   77   0.709   2.871   9.087  0.7237  1.7122 -0.3984
    1SAPS  C219   78   0.781   2.914   8.894  0.8856  0.1974 -0.1881
    1SAPS  H19R   79   0.725   3.009   8.881  0.2201 -0.0835  0.5313
    1SAPS  H19S   80   0.802   2.871   8.794  2.7747  1.9266 -0.6204
    1SAPS  C220   81   0.910   2.953   8.966 -0.5937  0.1815  1.0787
    1SAPS  H20R   82   0.978   3.017   8.906 -1.4709  1.6768  1.6331
    1SAPS  H20S   83   0.968   2.865   9.000  0.4516  0.8629  1.1039
    1SAPS  H20T   84   0.889   3.019   9.053 -1.6754  1.8687 -0.3986
    1SAPS   C33   85  -0.343   2.107  10.314  0.0584  0.3629 -0.0376
    1SAPS   H3X   86  -0.348   2.199  10.376 -1.4825 -0.7024  1.5119
    1SAPS   H3Y   87  -0.433   2.086  10.253 -0.4767 -1.0375  1.1980
    1SAPS   C34   88  -0.230   2.127  10.216  0.0793 -0.2586 -0.3904
    1SAPS   H4X   89  -0.223   2.038  10.150 -0.7954 -0.5289 -0.1353
    1SAPS   H4Y   90  -0.130   2.149  10.260  0.3112  1.4651 -1.6955
    1SAPS   C35   91  -0.243   2.249  10.113  0.9350  1.1248 -0.9809
    1SAPS   H5X   92  -0.146   2.253  10.059  1.5262 -0.3809 -0.0848
    1SAPS   H5Y   93  -0.257   2.348  10.163  1.2654  0.8624 -0.3517
    1SAPS   C36   94  -0.352   2.225  10.014  0.4515 -0.5117  0.3862
    1SAPS   H6X   95  -0.453   2.230  10.060  0.2556  1.4921 -0.1726
    1SAPS   H6Y   96  -0.353   2.119   9.980  0.4046 -0.7893  1.2460
    1SAPS   C37   97  -0.355   2.329   9.903 -0.5867 -0.2968  0.1747
    1SAPS   H7X   98  -0.304   2.422   9.935  1.3950 -0.7821 -1.4052
    1SAPS   H7Y   99  -0.462   2.353   9.885 -0.9649 -1.0658  1.2395
    1SAPS   C38  100  -0.283   2.271   9.778  0.4205  0.2610 -0.1932
    1SAPS   H8X  101  -0.353   2.203   9.724 -0.4690  1.7097 -0.9454
    1SAPS   H8Y  102  -0.199   2.209   9.814  0.9385  0.9075 -0.2795
    1SAPS   C39  103  -0.236   2.387   9.690  0.4990  0.4521  0.2737
    1SAPS   H9X  104  -0.165   2.443   9.754  0.7164 -0.4061  0.8137
    1SAPS   H9Y  105  -0.329   2.438   9.658  0.2163 -1.3391 -2.0185
    1SAPS  C310  106  -0.160   2.338   9.563 -0.2348 -0.0722  0.2884
    1SAPS  H10X  107  -0.227   2.272   9.504 -0.8348  0.9485 -0.2022
    1SAPS  H10Y  108  -0.059   2.296   9.583 -0.7480 -2.6465 -1.9212
    1SAPS  C311  109  -0.131   2.454   9.467 -0.4790 -0.3401 -0.0867
    1SAPS  H11X  110  -0.065   2.529   9.515  1.3048 -1.1586 -1.1539
    1SAPS  H11Y  111  -0.232   2.499   9.456 -0.1735  0.6726  1.1190
    1SAPS  C312  112  -0.072   2.416   9.335 -0.9789  0.1254  0.2369
    1SAPS  H12X  113  -0.064   2.503   9.266 -1.0226 -0.0514  0.0093
    1SAPS  H12Y  114  -0.139   2.334   9.302 -2.3508  0.6968  1.4503
    1SAPS  C313  115   0.074   2.365   9.339 -0.3765  0.4566  0.1876
    1SAPS  H13X  116   0.091   2.322   9.440 -0.1950  0.2380  0.0639
    1SAPS  H13Y  117   0.131   2.460   9.327  1.6987 -0.6841  0.4930
    1SAPS  C314  118   0.110   2.269   9.220  0.5876  0.4009 -0.0578
    1SAPS  H14X  119   0.072   2.318   9.128 -0.4927  2.4710  1.4101
    1SAPS  H14Y  120   0.051   2.178   9.246 -1.0677  0.3497 -3.4481
    1SAPS  C315  121   0.255   2.239   9.215 -0.2232  0.2090  0.2486
    1SAPS  H15X  122   0.315   2.331   9.200 -0.7479  1.0415  2.7420
    1SAPS  H15Y  123   0.262   2.160   9.137 -0.1247 -0.6193  1.0777
    1SAPS  C316  124   0.307   2.180   9.350  0.2801  0.3803 -0.2263
    1SAPS  H16X  125   0.280   2.235   9.443  2.2942  0.9234  0.0810
    1SAPS  H16Y  126   0.418   2.181   9.345  0.2321  1.1924 -1.3134
    1SAPS  C317  127   0.253   2.035   9.388 -0.1791 -0.0673 -0.6482
    1SAPS  H17X  128   0.302   1.962   9.321  1.5121  0.3404  0.0752
    1SAPS  H17Y  129   0.142   2.031   9.390 -0.4166  3.0170  2.5333
    1SAPS  C318  130   0.300   1.994   9.532  0.0434  0.0617  0.5943
    1SAPS  H18X  131   0.278   2.067   9.612  0.8140  1.2293 -0.2360
    1SAPS  H18Y  132   0.409   1.971   9.535 -0.1247 -0.6943  1.7595
    1SAPS  H18Z  133   0.252   1.896   9.554  0.4892 -0.6634 -1.4406
    2SAPS     N  134   6.082   4.129  10.710 -0.1940  0.2226 -0.0566
    2SAPS   HN1  135   6.005   4.109  10.776  1.0768 -2.1637  0.8274
    2SAPS   HN2  136   6.130   4.219  10.729  3.4467 -1.8566  1.5709
    2SAPS   HN3  137   6.043   4.140  10.614 -0.0219 -1.0921 -0.2886
    2SAPS   C12  138   6.174   4.018  10.726  0.5503 -0.6757  0.3834
    2SAPS  H12A  139   6.211   4.036  10.826  0.0593  3.4679  0.0146
    2SAPS   C13  140   6.104   3.880  10.721 -0.0678 -0.2923  0.6710
    2SAPS  O13A  141   5.978   3.880  10.726 -0.0332  0.5838  0.2674
    2SAPS  O13B  142   6.169   3.776  10.727 -0.7382 -0.4830 -0.2319
    2SAPS   C11  143   6.282   4.020  10.615 -0.2232 -0.2368 -0.7575
    2SAPS  H11A  144   6.231   4.012  10.517 -0.3270  0.9703 -0.8201
    2SAPS  H11B  145   6.338   3.924  10.619 -0.5453 -0.4985 -2.1576
    2SAPS     P  146   6.495   4.161  10.659 -0.2202 -0.5658 -0.2570
    2SAPS   O13  147   6.563   4.280  10.602  0.1511 -0.5216 -0.2950
    2SAPS   O14  148   6.494   4.157  10.809 -0.4467  0.3603 -0.3964
    2SAPS   O12  149   6.353   4.141  10.612  0.5531  0.2485  0.4977
    2SAPS   O11  150   6.566   4.026  10.611 -0.0903 -0.1696 -0.8171
    2SAPS    C1  151   6.584   4.011  10.468  0.5201 -0.8822  0.0170
    2SAPS    HA  152   6.594   3.905  10.436 -1.1418 -0.5322 -1.8527
    2SAPS    HB  153   6.509   4.051  10.397  0.9588 -0.3809 -0.1772
    2SAPS    C2  154   6.730   4.056  10.434 -0.0915 -0.5881  0.7022
    2SAPS    HS  155   6.743   4.162  10.464  0.3636 -1.1497  2.5703
    2SAPS   O21  156   6.737   4.043  10.290  0.5151 -0.1643  0.9931
    2SAPS   C21  157   6.849   4.091  10.233 -0.3546 -1.0178  0.1196
    2SAPS   O22  158   6.935   4.156  10.292  0.2354  0.4917  0.1493
    2SAPS   C22  159   6.848   4.055  10.085 -0.2364 -1.0370  1.2161
    2SAPS   H2R  160   6.954   4.066  10.054 -0.9429  2.3919 -0.4502
    2SAPS   H2S  161   6.822   3.950  10.059 -0.4734 -0.3145 -1.7847
    2SAPS    C3  162   6.838   3.970  10.501  0.7899  0.2499  0.1481
    2SAPS    HX  163   6.832   3.990  10.610 -1.1324  2.8028 -0.3207
    2SAPS    HY  164   6.941   3.990  10.464  1.5206 -3.1353  0.0815
    2SAPS   O31  165   6.803   3.829  10.487  0.2110  0.0630  0.3019
    2SAPS   C31  166   6.847   3.770  10.368  0.3098 -0.9186  0.0874
    2SAPS   O32  167   6.931   3.820  10.295 -0.1974 -0.2121 -0.1109
    2SAPS   C32  168   6.783   3.636  10.341 -0.1249 -0.5726 -0.8398
    2SAPS   H2X  169   6.808   3.566  10.424 -0.8912 -0.4822 -0.5233
    2SAPS   H2Y  170   6.833   3.606  10.247  5.1929  0.3954  1.3457
    2SAPS   C23  171   6.759   4.160  10.020 -1.3151  0.1618  0.2104
    2SAPS   H3R  172   6.770   4.260  10.067 -1.2627  1.0671 -1.6098
    2SAPS   H3S  173   6.651   4.135  10.031 -1.4492  0.1936 -0.9048
    2SAPS   C24  174   6.775   4.169   9.869  0.3328 -0.3838  1.2153
    2SAPS   H4R  175   6.692   4.226   9.823  1.3378 -0.3553 -0.6782
    2SAPS   H4S  176   6.768   4.063   9.837  0.6925  0.1116 -0.6107
    2SAPS   C25  177   6.914   4.220   9.832  0.1492 -0.3950 -1.1324
    2SAPS   H5R  178   6.958   4.288   9.908 -0.4673  1.3073 -2.2392
    2SAPS   C26  179   6.982   4.185   9.723  0.4424  0.1488  0.2070
    2SAPS   H6R  180   7.081   4.228   9.702  0.5167  0.1213  0.4961
    2SAPS   C27  181   6.931   4.092   9.617  0.3971  0.0469 -0.6616
    2SAPS   H7R  182   6.867   4.014   9.663  0.8568  0.9772  1.7170
    2SAPS   H7S  183   7.013   4.035   9.569 -0.4801 -0.3504 -1.7251
    2SAPS   C28  184   6.855   4.164   9.511  0.0523 -0.3802 -0.0712
    2SAPS   H8R  185   6.767   4.219   9.548  0.7475  0.8688 -0.2052
    2SAPS   C29  186   6.896   4.197   9.387  0.0740  0.2046 -0.0778
    2SAPS   H9R  187   6.831   4.259   9.323  0.8815  0.6762 -0.4590
    2SAPS  C210  188   7.030   4.154   9.321  0.6517 -0.1691  0.1368
    2SAPS  H10R  189   7.021   4.141   9.211 -2.1077  2.5822 -0.1075
    2SAPS  H10S  190   7.041   4.048   9.354  0.6552 -0.5046 -0.9022
    2SAPS  C211  191   7.153   4.227   9.372 -0.2027  0.5211  0.1306
    2SAPS  H11R  192   7.156   4.219   9.481 -1.9761 -1.7844  0.0979
    2SAPS  C212  193   7.247   4.286   9.297  0.5050 -0.5415 -0.0316
    2SAPS  H12R  194   7.346   4.320   9.330  1.2662 -1.8937 -0.8641
    2SAPS  C213  195   7.241   4.293   9.152  0.5939 -0.1103  0.2386
    2SAPS  H13R  196   7.314   4.363   9.107 -1.2535  1.2693 -0.7651
    2SAPS  H13S  197   7.147   4.344   9.122  0.1048 -0.2808  1.4373
    2SAPS  C214  198   7.257   4.161   9.085 -0.3169  0.4074  0.3477
    2SAPS  H14R  199   7.343   4.106   9.126 -2.0605 -2.5028  0.3893
    2SAPS  C215  200   7.183   4.101   8.986 -0.2997  0.0671  0.5883
    2SAPS  H15R  201   7.210   4.003   8.944  1.4532 -0.7385  3.3514
    2SAPS  C216  202   7.055   4.160   8.935 -0.5857  0.4467  0.0641
    2SAPS  H16R  203   7.020   4.247   8.994  0.4213  1.4014 -0.6994
    2SAPS  H16S  204   6.978   4.082   8.946  0.6695 -0.9237 -0.5062
    2SAPS  C217  205   7.082   4.201   8.791  0.4945  0.0068  0.3756
    2SAPS  H17R  206   7.122   4.113   8.738  1.4338  1.7323 -1.9616
    2SAPS  H17S  207   7.165   4.275   8.784 -0.4116  1.3292  2.5677
    2SAPS  C218  208   6.966   4.248   8.701 -0.5762  0.3801  0.1003
    2SAPS  H18R  209   6.935   4.350   8.733  0.4121  0.5691  0.4913
    2SAPS  H18S  210   6.882   4.177   8.712  1.0517 -1.4546  1.3089
    2SAPS  C219  211   6.992   4.247   8.545 -0.2235 -0.6268 -0.6572
    2SAPS  H19R  212   6.913   4.304   8.492  0.4397  2.3786  1.3151
    2SAPS  H19S  213   6.988   4.140   8.515 -0.4394 -0.6952 -0.3915
    2SAPS  C220  214   7.132   4.300   8.510 -1.2883  0.3402 -0.3114
    2SAPS  H20R  215   7.207   4.240   8.565 -0.4824 -0.5203 -2.2350
    2SAPS  H20S  216   7.147   4.404   8.546 -0.5112 -0.4329  1.7422
    2SAPS  H20T  217   7.158   4.282   8.403  1.8195  1.5434  0.1512
    2SAPS   C33  218   6.633   3.653  10.327 -0.5067 -0.2428 -0.7465
    2SAPS   H3X  219   6.598   3.693  10.425  1.7565 -0.2488  0.1181
    2SAPS   H3Y  220   6.586   3.552  10.333 -2.1512  0.5387  0.6398
    2SAPS   C34  221   6.578   3.719  10.200  0.9277 -0.1329  0.9565
    2SAPS   H4X  222   6.626   3.817  10.175  0.0654 -0.4102 -2.3183
    2SAPS   H4Y  223   6.471   3.748  10.211  0.9836 -0.0733  1.3538
    2SAPS   C35  224   6.607   3.646  10.065 -0.4986 -0.4649  0.8116
    2SAPS   H5X  225   6.560   3.546  10.059  1.3178 -1.3547  0.6270
    2SAPS   H5Y  226   6.715   3.621  10.060  0.1726  2.1152  1.1423
    2SAPS   C36  227   6.547   3.722   9.948  0.5512  0.0312 -0.6814
    2SAPS   H6X  228   6.533   3.831   9.963 -0.6834 -0.0883 -0.8908
    2SAPS   H6Y  229   6.442   3.699   9.920  0.0372  2.1033 -0.6022
    2SAPS   C37  230   6.630   3.705   9.822  0.4411 -0.3559  0.6620
    2SAPS   H7X  231   6.606   3.603   9.787  2.1061 -0.0043 -1.7653
    2SAPS   H7Y  232   6.738   3.715   9.850  0.6505  0.5567 -0.4027
    2SAPS   C38  233   6.604   3.805   9.712 -0.0479 -0.2985  0.5878
    2SAPS   H8X  234   6.690   3.802   9.641  0.6489 -0.9345  1.4447
    2SAPS   H8Y  235   6.613   3.905   9.760  2.8820 -1.3281  2.4474
    2SAPS   C39  236   6.472   3.777   9.644 -0.2981  0.0571 -0.4286
    2SAPS   H9X  237   6.388   3.789   9.715  0.2790 -0.5610  0.3787
    2SAPS   H9Y  238   6.470   3.667   9.626 -0.4361 -0.4418  2.1793
    2SAPS  C310  239   6.446   3.856   9.512 -0.1240  0.8984  0.3274
    2SAPS  H10X  240   6.544   3.876   9.463 -0.8818  0.6904 -1.3419
    2SAPS  H10Y  241   6.400   3.957   9.522 -1.0313  0.6427 -1.0739
    2SAPS  C311  242   6.351   3.764   9.429 -0.9949 -0.5301  0.3945
    2SAPS  H11X  243   6.259   3.770   9.491 -0.4714  1.2434  1.0800
    2SAPS  H11Y  244   6.393   3.662   9.423  0.6206  0.0294  1.5874
    2SAPS  C312  245   6.327   3.820   9.290 -0.1620 -0.3852  0.7088
    2SAPS  H12X  246   6.286   3.740   9.225  2.2679 -1.5018  0.4123
    2SAPS  H12Y  247   6.424   3.855   9.248 -0.1855  2.2380  2.5866
    2SAPS  C313  248   6.243   3.941   9.302  0.0077  0.2673 -0.2902
    2SAPS  H13X  249   6.287   4.029   9.355 -2.5398  1.0012  0.7795
    2SAPS  H13Y  250   6.142   3.919   9.342 -0.9954  1.6919 -1.9066
    2SAPS  C314  251   6.221   4.005   9.159  0.0295  0.2970 -0.8822
    2SAPS  H14X  252   6.318   4.046   9.124  0.9482  0.3073  1.5036
    2SAPS  H14Y  253   6.159   4.097   9.158 -1.5354 -0.6434  0.9042
    2SAPS  C315  254   6.178   3.898   9.053 -0.0798  0.3703  0.1032
    2SAPS  H15X  255   6.116   3.822   9.105 -0.4929  2.2491  2.5487
    2SAPS  H15Y  256   6.276   3.854   9.024 -0.5677  0.9355 -2.7061
    2SAPS  C316  257   6.106   3.963   8.931 -0.0321  0.1702  0.2051
    2SAPS  H16X  258   6.182   4.028   8.882  0.2700  0.0369  0.4855
    2SAPS  H16Y  259   6.025   4.026   8.974  1.5000  1.9258  0.6875
    2SAPS  C317  260   6.058   3.853   8.831 -0.8696 -0.2786 -0.1266
    2SAPS  H17X  261   6.138   3.778   8.816 -1.2718 -1.0102  1.3000
    2SAPS  H17Y  262   6.060   3.899   8.730  1.0914 -1.7418 -0.8189
    2SAPS  C318  263   5.925   3.788   8.864  0.5035  0.1042 -0.7495
    2SAPS  H18X  264   5.880   3.734   8.778  1.8793 -0.6826 -0.9893
    2SAPS  H18Y  265   5.867   3.876   8.900  2.3600  0.7142  0.8945
    2SAPS  H18Z  266   5.942   3.711   8.942 -2.4383 -0.4053 -0.4887
    3SAPS     N  267   5.386   5.945  10.985  0.6699 -0.1511 -0.0578
    3SAPS   HN1  268   5.336   5.854  10.988  0.2778 -0.0054 -1.4176
    3SAPS   HN2  269   5.404   5.974  11.083  0.7967 -0.7857  0.1109
    3SAPS   HN3  270   5.324   6.017  10.942  0.2763  0.2397  1.1165
    3SAPS   C12  271   5.514   5.935  10.909 -0.7487 -0.6966  0.2292
    3SAPS  H12A  272   5.483   5.916  10.807 -1.2684  4.0245 -0.7475
    3SAPS   C13  273   5.606   6.059  10.920 -0.4829  0.0490 -0.1691
    3SAPS  O13A  274   5.587   6.143  11.013  0.0367 -0.3890 -0.1032
    3SAPS  O13B  275   5.706   6.074  10.843  0.8335  0.2988  0.4278
    3SAPS   C11  276   5.608   5.824  10.977  0.0921 -0.5047  0.2266
    3SAPS  H11A  277   5.616   5.853  11.084  2.0284  0.2339 -0.0798
    3SAPS  H11B  278   5.706   5.830  10.925 -0.9148  0.2188 -1.7085
    3SAPS     P  279   5.645   5.562  10.959  0.9731 -0.3343 -0.5763
    3SAPS   O13  280   5.780   5.592  10.999 -0.2548 -0.4367  0.2658
    3SAPS   O14  281   5.580   5.455  11.037  0.0643  0.2543 -0.7015
    3SAPS   O12  282   5.549   5.692  10.969  0.5351 -0.1725 -0.1363
    3SAPS   O11  283   5.641   5.520  10.809 -0.0005 -0.1451 -0.4645
    3SAPS    C1  284   5.600   5.612  10.706 -0.0125 -0.1014 -0.7365
    3SAPS    HA  285   5.489   5.623  10.702 -0.0557 -0.6543 -1.2305
    3SAPS    HB  286   5.639   5.715  10.719 -1.0608  0.3037 -0.7061
    3SAPS    C2  287   5.640   5.555  10.569  0.0323 -0.5606  0.1440
    3SAPS    HS  288   5.593   5.615  10.489  0.5037  0.3617  0.5434
    3SAPS   O21  289   5.611   5.413  10.559 -0.1662 -0.5319 -0.4558
    3SAPS   C21  290   5.487   5.371  10.567 -0.2181  0.1359 -0.3921
    3SAPS   O22  291   5.387   5.445  10.554 -0.1753 -0.0872  0.2610
    3SAPS   C22  292   5.481   5.217  10.586  0.9461 -0.6728 -0.8080
    3SAPS   H2R  293   5.580   5.192  10.629  0.6305  2.8792  2.5819
    3SAPS   H2S  294   5.416   5.213  10.676  0.5683  1.5386 -0.9175
    3SAPS    C3  295   5.791   5.558  10.571  0.1459 -0.0549  0.4180
    3SAPS    HX  296   5.851   5.487  10.633  1.3607  1.5755  1.1802
    3SAPS    HY  297   5.812   5.660  10.610  1.3194 -0.5872  1.2337
    3SAPS   O31  298   5.844   5.543  10.438  0.7090 -0.1116  0.3277
    3SAPS   C31  299   5.977   5.565  10.425 -0.0490 -0.2521  0.2870
    3SAPS   O32  300   6.058   5.599  10.511  0.1511  0.4606  0.4493
    3SAPS   C32  301   6.009   5.530  10.278 -0.0750 -0.3133  0.6049
    3SAPS   H2X  302   6.118   5.510  10.266 -0.0681  0.4468 -0.7383
    3SAPS   H2Y  303   5.984   5.619  10.217 -0.6332 -0.3608  0.7625
    3SAPS   C23  304   5.427   5.140  10.469  0.1880  0.0159  0.1192
    3SAPS   H3R  305   5.336   5.195  10.437  0.3503  0.3559  0.2352
    3SAPS   H3S  306   5.407   5.036  10.500 -0.5982  0.0879 -0.1225
    3SAPS   C24  307   5.540   5.127  10.364 -0.2966 -0.1603  0.0313
    3SAPS   H4R  308   5.613   5.047  10.389 -2.0539 -1.6605  0.5164
    3SAPS   H4S  309   5.600   5.220  10.377  1.0298 -0.9711 -0.0860
    3SAPS   C25  310   5.499   5.112  10.223  0.1275 -0.1749  0.2867
    3SAPS   H5R  311   5.465   5.014  10.187  1.1346  0.0341 -1.3327
    3SAPS   C26  312   5.502   5.218  10.135 -0.2067  0.5092  0.6777
    3SAPS   H6R  313   5.468   5.194  10.033  1.6038  0.8130 -0.0294
    3SAPS   C27  314   5.552   5.360  10.152  0.4788 -0.5251  0.3699
    3SAPS   H7R  315   5.644   5.361  10.091 -0.4899  0.6957 -1.1532
    3SAPS   H7S  316   5.589   5.371  10.256 -2.2550  0.7059  1.3268
    3SAPS   C28  317   5.465   5.469  10.102 -0.1414 -0.6167  0.7216
    3SAPS   H8R  318   5.397   5.514  10.176  1.0807 -1.6036  2.5363
    3SAPS   C29  319   5.464   5.523   9.983 -0.9640 -0.3683 -0.0229
    3SAPS   H9R  320   5.401   5.612   9.970  1.0270  1.2434  0.7843
    3SAPS  C210  321   5.541   5.485   9.859  0.0666 -0.1813 -0.0690
    3SAPS  H10R  322   5.511   5.379   9.844 -0.2268  0.0096 -0.9378
    3SAPS  H10S  323   5.651   5.478   9.876 -0.3595 -1.3075  2.6197
    3SAPS  C211  324   5.506   5.579   9.747  0.0644  0.5102  0.5477
    3SAPS  H11R  325   5.440   5.665   9.769 -1.7463 -0.9195  0.9262
    3SAPS  C212  326   5.564   5.589   9.623  0.7219  0.1373 -0.4035
    3SAPS  H12R  327   5.517   5.648   9.543  1.5733 -0.6004 -1.4778
    3SAPS  C213  328   5.678   5.499   9.574  0.6142 -0.0163 -0.3188
    3SAPS  H13R  329   5.627   5.429   9.505 -0.9298 -0.4936  1.2371
    3SAPS  H13S  330   5.723   5.442   9.658  1.9091 -1.4113 -1.8739
    3SAPS  C214  331   5.785   5.585   9.512 -0.4041  0.2520 -0.8905
    3SAPS  H14R  332   5.830   5.665   9.573 -2.9853  2.9351 -2.2550
    3SAPS  C215  333   5.821   5.590   9.383  0.0296 -0.1583  0.6804
    3SAPS  H15R  334   5.894   5.661   9.342  0.1609 -1.0383 -0.6955
    3SAPS  C216  335   5.750   5.500   9.277 -0.8404 -0.4290 -0.4044
    3SAPS  H16R  336   5.683   5.418   9.310 -3.4181  2.2559  1.5444
    3SAPS  H16S  337   5.834   5.456   9.219  1.3538  0.3022  2.0329
    3SAPS  C217  338   5.675   5.578   9.170  0.7854  0.1347 -0.3297
    3SAPS  H17R  339   5.574   5.612   9.204  0.2303 -0.2934 -1.4949
    3SAPS  H17S  340   5.645   5.506   9.092 -1.6098 -1.3555  1.7855
    3SAPS  C218  341   5.755   5.703   9.113 -0.0075 -0.0369 -0.1802
    3SAPS  H18R  342   5.774   5.769   9.200  2.5311  0.1492 -0.8017
    3SAPS  H18S  343   5.689   5.769   9.053  1.3617  2.0943  0.5576
    3SAPS  C219  344   5.886   5.681   9.042  0.4950 -0.6963  0.1565
    3SAPS  H19R  345   5.956   5.637   9.116  2.6768  2.0592 -0.1197
    3SAPS  H19S  346   5.925   5.778   9.005 -1.7072  0.5847  0.9794
    3SAPS  C220  347   5.861   5.589   8.934  0.0664  0.4314  0.7883
    3SAPS  H20R  348   5.827   5.484   8.952  1.9007 -0.3125  0.1298
    3SAPS  H20S  349   5.955   5.568   8.878  0.6224  2.1582  1.0226
    3SAPS  H20T  350   5.801   5.639   8.855  0.7694  1.1672  0.7147
    3SAPS   C33  351   5.936   5.398  10.226  0.1775 -0.0933 -0.1068
    3SAPS   H3X  352   5.827   5.419  10.223  0.1884 -0.1260 -1.1023
    3SAPS   H3Y  353   5.953   5.314  10.296  0.0022  0.4399  0.5951
    3SAPS   C34  354   5.992   5.366  10.086 -0.1445 -0.3308 -0.4348
    3SAPS   H4X  355   6.094   5.322  10.094 -0.1588 -0.1266  1.0723
    3SAPS   H4Y  356   6.011   5.464  10.038 -0.8542 -0.4318 -0.9447
    3SAPS   C35  357   5.900   5.282  10.000 -0.3993 -0.1211 -0.7150
    3SAPS   H5X  358   5.827   5.353   9.955  1.0347  1.0349 -1.3007
    3SAPS   H5Y  359   5.850   5.207  10.065  1.2160  1.3951  2.5121
    3SAPS   C36  360   5.967   5.214   9.880  0.0505  1.3938  0.5590
    3SAPS   H6X  361   5.886   5.171   9.817  1.6010  0.5572 -0.9374
    3SAPS   H6Y  362   6.028   5.128   9.913 -1.1118  0.8256  1.2719
    3SAPS   C37  363   6.035   5.323   9.793 -0.1287 -0.0561  0.4716
    3SAPS   H7X  364   6.130   5.360   9.835  1.0061 -0.7407 -1.3836
    3SAPS   H7Y  365   5.964   5.409   9.791  0.5605  0.5181  0.2248
    3SAPS   C38  366   6.049   5.279   9.652 -0.1040  0.7113  0.0125
    3SAPS   H8X  367   5.961   5.234   9.602  1.9540 -0.8887 -2.4153
    3SAPS   H8Y  368   6.120   5.194   9.653 -0.5644  0.3257  0.1354
    3SAPS   C39  369   6.112   5.374   9.557 -0.1123 -0.4870  0.0860
    3SAPS   H9X  370   6.215   5.395   9.594 -0.8925  1.1918  1.4506
    3SAPS   H9Y  371   6.057   5.469   9.539 -1.4775 -1.1943  0.4819
    3SAPS  C310  372   6.125   5.313   9.414 -0.8578 -0.4002 -0.3314
    3SAPS  H10X  373   6.023   5.330   9.372 -1.4006  1.4624  1.5781
    3SAPS  H10Y  374   6.157   5.207   9.415  0.5472 -0.0195  2.0577
    3SAPS  C311  375   6.233   5.385   9.337  0.0995 -0.4476  0.3657
    3SAPS  H11X  376   6.332   5.383   9.387  0.0815  1.6621  0.5753
    3SAPS  H11Y  377   6.200   5.491   9.332  1.4296 -0.0756 -1.4240
    3SAPS  C312  378   6.258   5.332   9.191 -0.2038  0.9833 -0.1387
    3SAPS  H12X  379   6.159   5.346   9.142 -1.5592 -1.2993  1.6812
    3SAPS  H12Y  380   6.293   5.227   9.191  0.0412  1.0528  0.9779
    3SAPS  C313  381   6.364   5.422   9.131 -0.3513  0.4136 -0.1730
    3SAPS  H13X  382   6.460   5.398   9.182 -1.5813 -2.1722  1.1434
    3SAPS  H13Y  383   6.331   5.526   9.153 -1.2997  0.5124 -1.9134
    3SAPS  C314  384   6.384   5.419   8.982 -0.3271  0.2281  0.1314
    3SAPS  H14X  385   6.410   5.325   8.928 -1.4975 -0.5992  0.9498
    3SAPS  H14Y  386   6.466   5.492   8.965 -1.5461  1.0319 -3.3672
    3SAPS  C315  387   6.260   5.465   8.899 -0.7291 -0.3609 -0.1574
    3SAPS  H15X  388   6.194   5.530   8.960  0.2703 -0.9752  1.6568
    3SAPS  H15Y  389   6.213   5.365   8.888 -1.8543  0.0704  0.4922
    3SAPS  C316  390   6.289   5.522   8.757 -0.3626 -0.2859 -0.0199
    3SAPS  H16X  391   6.306   5.631   8.751 -0.8616 -0.1070  1.3973
    3SAPS  H16Y  392   6.204   5.495   8.690 -0.9191  1.0994  0.1147
    3SAPS  C317  393   6.413   5.463   8.696 -0.3904 -0.5814 -0.0178
    3SAPS  H17X  394   6.418   5.355   8.719  0.9987 -0.0999  2.2312
    3SAPS  H17Y  395   6.504   5.510   8.739 -1.3587  0.4015  1.0413
    3SAPS  C318  396   6.418   5.488   8.546  0.0690  0.2350  0.3629
    3SAPS  H18X  397   6.318   5.460   8.507  0.9336 -1.5377 -0.7485
    3SAPS  H18Y  398   6.499   5.429   8.497  0.8204 -0.0078  1.8360
    3SAPS  H18Z  399   6.430   5.597   8.532 -2.5290  0.4551 -0.5872
    4SAPS     N  400   2.440   4.918  10.951  0.4975  0.3506 -0.3130
    4SAPS   HN1  401   2.438   4.838  10.885  0.7397  1.3168 -1.5181
    4SAPS   HN2  402   2.524   4.971  10.921  2.3599 -1.4947  1.3029
    4SAPS   HN3  403   2.465   4.886  11.047 -1.6205 -2.2762 -0.5254
    4SAPS   C12  404   2.317   5.010  10.948 -0.2333  0.6557 -0.0637
    4SAPS  H12A  405   2.258   4.992  10.860  0.6481  0.4286 -0.6173
    4SAPS   C13  406   2.215   4.995  11.064  0.1246  0.1287 -0.0284
    4SAPS  O13A  407   2.265   4.937  11.165 -0.0260 -0.5144 -0.5551
    4SAPS  O13B  408   2.103   5.053  11.071 -0.4023  0.3656 -0.3136
    4SAPS   C11  409   2.370   5.158  10.944 -0.2894  0.0824 -0.2357
    4SAPS  H11A  410   2.422   5.177  11.040 -0.1770  0.7959 -0.4316
    4SAPS  H11B  411   2.282   5.226  10.934  0.4312  1.2630  1.0532
    4SAPS     P  412   2.481   5.304  10.739 -0.6454 -0.2201  0.1965
    4SAPS   O13  413   2.352   5.366  10.718 -0.3268 -0.1113 -0.4488
    4SAPS   O14  414   2.585   5.391  10.802  0.1342 -0.6215 -0.4088
    4SAPS   O12  415   2.464   5.180  10.840  0.1257 -0.4961  0.5382
    4SAPS   O11  416   2.526   5.242  10.606 -0.2309 -0.7372  0.6241
    4SAPS    C1  417   2.493   5.111  10.552 -0.6190 -1.2018 -0.0113
    4SAPS    HA  418   2.583   5.054  10.524  0.7827  0.8928 -0.0054
    4SAPS    HB  419   2.450   5.050  10.635  0.0610  0.6634  1.8209
    4SAPS    C2  420   2.411   5.111  10.424  0.5456 -1.0737  0.4448
    4SAPS    HS  421   2.476   5.167  10.353  1.4685 -0.1552  1.9660
    4SAPS   O21  422   2.284   5.178  10.452 -0.2718  0.2851 -0.0794
    4SAPS   C21  423   2.285   5.309  10.422 -0.2446  0.0243 -0.8008
    4SAPS   O22  424   2.384   5.366  10.378  0.2894 -0.0726  0.0874
    4SAPS   C22  425   2.153   5.385  10.450  0.0364  0.2240 -0.3207
    4SAPS   H2R  426   2.084   5.303  10.479  1.6590 -1.0527  0.0660
    4SAPS   H2S  427   2.173   5.463  10.526 -0.7502  0.7186 -0.6015
    4SAPS    C3  428   2.395   4.967  10.374  0.7835  0.4478 -0.0471
    4SAPS    HX  429   2.316   4.922  10.439  2.3660 -1.4450  0.6336
    4SAPS    HY  430   2.483   4.903  10.396  0.0737 -0.3814  0.4448
    4SAPS   O31  431   2.362   4.971  10.232 -0.2077  0.5492 -0.1916
    4SAPS   C31  432   2.236   4.973  10.207  0.4402  0.1247 -0.1927
    4SAPS   O32  433   2.147   4.978  10.292  0.0841 -0.1723 -0.0786
    4SAPS   C32  434   2.204   4.973  10.057  0.4336  0.2333  0.1970
    4SAPS   H2X  435   2.102   5.018  10.053  0.2637 -0.1171  0.5783
    4SAPS   H2Y  436   2.190   4.868  10.023  0.0744  0.0549  0.8846
    4SAPS   C23  437   2.117   5.460  10.313  0.1989  0.4849  0.0024
    4SAPS   H3R  438   2.204   5.518  10.277  1.1195 -1.4269 -1.0096
    4SAPS   H3S  439   2.035   5.530  10.343 -0.5663 -1.0389  1.6848
    4SAPS   C24  440   2.064   5.365  10.197 -0.0216  0.3693 -0.1285
    4SAPS   H4R  441   1.977   5.311  10.239 -0.5252  2.1065  1.1607
    4SAPS   H4S  442   2.137   5.281  10.188  0.0826  0.2643  1.4389
    4SAPS   C25  443   2.040   5.427  10.060 -0.5313 -0.4679 -0.0053
    4SAPS   H5R  444   1.932   5.430  10.038 -0.4177  0.2210 -0.4816
    4SAPS   C26  445   2.128   5.479   9.973 -0.0703  0.0227 -0.1711
    4SAPS   H6R  446   2.085   5.503   9.875 -1.9297 -1.6855  0.1753
    4SAPS   C27  447   2.277   5.479   9.994  0.5815  0.2531  0.1260
    4SAPS   H7R  448   2.312   5.436   9.898 -1.4031 -0.5697 -0.2761
    4SAPS   H7S  449   2.305   5.416  10.081 -0.8887  1.4667  1.5452
    4SAPS   C28  450   2.329   5.623  10.024  0.4446 -0.2207  0.6490
    4SAPS   H8R  451   2.328   5.652  10.130 -1.0393  1.4666  0.2231
    4SAPS   C29  452   2.366   5.712   9.929  0.5217 -0.3402 -0.1460
    4SAPS   H9R  453   2.386   5.814   9.966 -2.3116 -1.1137  4.2595
    4SAPS  C210  454   2.370   5.689   9.783 -0.4581  0.7585  0.5031
    4SAPS  H10R  455   2.331   5.777   9.727  1.2752  0.5547 -1.1184
    4SAPS  H10S  456   2.303   5.608   9.747  0.3089  1.1641 -2.0522
    4SAPS  C211  457   2.514   5.644   9.739  0.9833  0.4962 -0.8955
    4SAPS  H11R  458   2.551   5.555   9.792  0.7513  0.9012 -0.0444
    4SAPS  C212  459   2.580   5.692   9.636  0.4759  0.1099  0.6876
    4SAPS  H12R  460   2.687   5.674   9.620  0.2460 -0.1584 -0.7434
    4SAPS  C213  461   2.548   5.808   9.540  0.0707  0.2312 -0.0778
    4SAPS  H13R  462   2.643   5.859   9.512  0.5655 -1.5572 -1.8697
    4SAPS  H13S  463   2.475   5.870   9.596  1.5463 -0.6682  3.0883
    4SAPS  C214  464   2.492   5.742   9.411 -0.0397  0.1199 -0.4001
    4SAPS  H14R  465   2.472   5.634   9.416 -1.0337  0.3230  0.4726
    4SAPS  C215  466   2.469   5.805   9.294 -0.2671  0.0803 -0.1024
    4SAPS  H15R  467   2.424   5.746   9.213 -1.6376 -0.4433  0.9986
    4SAPS  C216  468   2.498   5.960   9.277  0.8803 -0.5915 -0.5413
    4SAPS  H16R  469   2.509   6.008   9.377  1.6784  1.4855 -1.5781
    4SAPS  H16S  470   2.414   6.020   9.237  0.8819  1.1769  1.8648
    4SAPS  C217  471   2.614   6.006   9.188  0.7859  0.0769 -0.5372
    4SAPS  H17R  472   2.699   5.937   9.209  1.0302 -0.2344 -2.3620
    4SAPS  H17S  473   2.634   6.114   9.202  0.9978  0.1363 -1.2511
    4SAPS  C218  474   2.568   5.988   9.043 -0.0515 -0.0421 -0.4018
    4SAPS  H18R  475   2.462   6.019   9.030 -0.1869 -0.3365 -0.0153
    4SAPS  H18S  476   2.571   5.879   9.021 -0.1111 -0.0926 -0.1590
    4SAPS  C219  477   2.643   6.075   8.938  0.0350  0.4296  0.2692
    4SAPS  H19R  478   2.743   6.026   8.926 -1.0225 -2.4493  2.0966
    4SAPS  H19S  479   2.653   6.180   8.972 -4.7776  0.6317  1.8221
    4SAPS  C220  480   2.581   6.073   8.801  0.2571 -0.2539  0.0898
    4SAPS  H20R  481   2.656   6.123   8.738 -0.7658 -1.6183 -2.3519
    4SAPS  H20S  482   2.486   6.129   8.813  2.4221  3.5059  1.3679
    4SAPS  H20T  483   2.571   5.969   8.763 -3.7259 -1.5108  3.7025
    4SAPS   C33  484   2.304   5.059   9.975 -0.1226  0.1270 -0.4849
    4SAPS   H3X  485   2.385   4.990   9.946  0.9579  1.7543 -1.5253
    4SAPS   H3Y  486   2.327   5.147  10.040 -1.6931 -0.8837  1.5800
    4SAPS   C34  487   2.232   5.109   9.844 -0.3940 -0.6982  0.3123
    4SAPS   H4X  488   2.306   5.161   9.780 -0.4754  1.4283  1.8609
    4SAPS   H4Y  489   2.169   5.198   9.867 -0.0973  0.0390 -1.5167
    4SAPS   C35  490   2.173   5.007   9.747 -0.3174  0.1815 -0.5308
    4SAPS   H5X  491   2.145   4.917   9.805  3.5419 -0.1239  1.1809
    4SAPS   H5Y  492   2.260   4.973   9.686  1.4101 -0.2527  2.0105
    4SAPS   C36  493   2.058   5.062   9.674 -0.4399  0.1149  0.0175
    4SAPS   H6X  494   2.090   5.162   9.639  0.2672  0.7179  2.2174
    4SAPS   H6Y  495   1.977   5.071   9.750  0.3339  0.4550  0.8160
    4SAPS   C37  496   2.007   4.981   9.556  0.5065  0.1367  0.2591
    4SAPS   H7X  497   1.911   4.930   9.577 -0.9581  1.6938 -2.1748
    4SAPS   H7Y  498   2.078   4.902   9.525  0.4639  1.4361 -3.7598
    4SAPS   C38  499   1.977   5.063   9.426  0.3167 -0.3705  0.5422
    4SAPS   H8X  500   2.063   5.131   9.407  0.5244 -0.3528  1.5323
    4SAPS   H8Y  501   1.896   5.136   9.446 -0.3901 -1.0905  0.3841
    4SAPS   C39  502   1.938   4.982   9.295 -0.5430  0.2532 -0.2908
    4SAPS   H9X  503   1.842   4.929   9.309 -0.9412  1.4320  1.7256
    4SAPS   H9Y  504   2.017   4.904   9.292 -0.8823 -0.0790 -0.7281
    4SAPS  C310  505   1.940   5.068   9.169  0.3162  0.0080 -0.2605
    4SAPS  H10X  506   2.041   5.112   9.161  0.2555  0.1686 -0.1359
    4SAPS  H10Y  507   1.869   5.150   9.195  1.0196  0.2544  0.9474
    4SAPS  C311  508   1.918   4.983   9.043  0.3646  0.4643  0.0329
    4SAPS  H11X  509   1.807   4.982   9.037  0.3459 -1.7310 -0.4148
    4SAPS  H11Y  510   1.954   4.878   9.057 -0.1546  0.2355 -0.3057
    4SAPS  C312  511   1.971   5.042   8.915 -0.1966  0.4366  0.3288
    4SAPS  H12X  512   1.943   5.149   8.920 -2.6542  0.0622 -2.4575
    4SAPS  H12Y  513   1.922   5.001   8.824  2.6669 -1.4474 -0.4781
    4SAPS  C313  514   2.122   5.036   8.893  0.0095  0.4501  0.2913
    4SAPS  H13X  515   2.172   4.938   8.906  0.4043  0.6879  0.6121
    4SAPS  H13Y  516   2.167   5.094   8.976  2.7669 -1.6250  0.3869
    4SAPS  C314  517   2.171   5.090   8.758  0.4861 -0.0359  0.2056
    4SAPS  H14X  518   2.131   5.194   8.755  0.9202  0.1311  0.0488
    4SAPS  H14Y  519   2.138   5.031   8.670  0.5235 -0.0366  0.1922
    4SAPS  C315  520   2.326   5.106   8.751  0.4535 -0.1656 -0.3347
    4SAPS  H15X  521   2.369   5.005   8.737 -0.8780 -0.7879 -0.0853
    4SAPS  H15Y  522   2.360   5.146   8.848 -4.7133  2.2861  0.8030
    4SAPS  C316  523   2.360   5.204   8.643 -0.2327 -0.7261 -0.0246
    4SAPS  H16X  524   2.466   5.231   8.659 -0.4762  0.3593 -0.1544
    4SAPS  H16Y  525   2.300   5.298   8.648  0.6836 -0.0691 -0.9573
    4SAPS  C317  526   2.360   5.145   8.493 -0.3070  0.0977  0.2668
    4SAPS  H17X  527   2.258   5.117   8.458 -0.5505  1.3131 -0.0436
    4SAPS  H17Y  528   2.415   5.051   8.515  0.9226  0.9992  1.1705
    4SAPS  C318  529   2.424   5.233   8.388 -0.3567  0.3630 -0.2442
    4SAPS  H18X  530   2.371   5.329   8.372 -0.2159  0.4849  0.0135
    4SAPS  H18Y  531   2.431   5.179   8.291  2.6520  1.1177 -0.5371
    4SAPS  H18Z  532   2.524   5.272   8.418 -0.2798  0.7380 -0.9669
    5SAPS     N  533   0.850   5.422  10.959  0.0992 -0.1303 -0.2204
    5SAPS   HN1  534   0.817   5.334  10.914  3.0075 -1.3293 -0.2098
    5SAPS   HN2  535   0.775   5.465  11.017  2.8918  2.9642  1.4851
    5SAPS   HN3  536   0.887   5.490  10.891  0.8233 -0.9646 -0.6866
    5SAPS   C12  537   0.971   5.385  11.039  0.0232  0.0024 -0.4494
    5SAPS  H12A  538   0.981   5.475  11.098 -0.6537  0.3345 -0.8333
    5SAPS   C13  539   0.964   5.264  11.140 -0.4790 -0.8813  0.6590
    5SAPS  O13A  540   0.861   5.186  11.134 -0.3861 -0.4114  1.0328
    5SAPS  O13B  541   1.053   5.241  11.224  0.1811 -0.1369  0.1270
    5SAPS   C11  542   1.094   5.367  10.948  0.1147 -0.8487  0.1506
    5SAPS  H11A  543   1.067   5.292  10.871  1.0893  1.0520 -2.1879
    5SAPS  H11B  544   1.181   5.330  11.007 -0.4000 -1.4276  0.5592
    5SAPS     P  545   1.236   5.513  10.793 -0.2526  0.2713 -0.0718
    5SAPS   O13  546   1.230   5.655  10.763  0.1871  0.4995 -0.1216
    5SAPS   O14  547   1.355   5.470  10.867 -0.8848  0.2241  0.4274
    5SAPS   O12  548   1.118   5.492  10.885 -0.2020 -0.2266 -0.2869
    5SAPS   O11  549   1.229   5.425  10.663  0.3543  0.1666 -0.1588
    5SAPS    C1  550   1.097   5.410  10.604  0.0107  0.4924 -0.2720
    5SAPS    HA  551   1.072   5.302  10.607 -0.9502  0.6564 -1.5764
    5SAPS    HB  552   1.018   5.475  10.648  0.9677  2.0381 -0.7514
    5SAPS    C2  553   1.095   5.459  10.450 -0.3905 -0.4450  0.9529
    5SAPS    HS  554   0.992   5.465  10.408 -0.4430  2.1323  1.3220
    5SAPS   O21  555   1.188   5.374  10.375 -0.5813 -0.3481 -0.0123
    5SAPS   C21  556   1.150   5.322  10.260 -0.4263 -0.2386 -0.4715
    5SAPS   O22  557   1.035   5.344  10.209  0.1491  0.2388 -0.1596
    5SAPS   C22  558   1.255   5.231  10.205 -0.3798 -0.3833 -0.0596
    5SAPS   H2R  559   1.359   5.270  10.207  0.3358 -2.2083  0.6473
    5SAPS   H2S  560   1.251   5.135  10.262 -1.4032 -1.1820 -1.4414
    5SAPS    C3  561   1.150   5.605  10.439 -0.4398  0.0886  0.1362
    5SAPS    HX  562   1.255   5.600  10.475  0.3132  1.5773 -1.6844
    5SAPS    HY  563   1.095   5.682  10.497  0.6141  1.3355 -0.4575
    5SAPS   O31  564   1.149   5.645  10.303 -0.2388  0.3380  1.1220
    5SAPS   C31  565   1.185   5.773  10.285 -0.3574  0.3657  0.1392
    5SAPS   O32  566   1.196   5.852  10.373  0.4677  0.2770 -0.3098
    5SAPS   C32  567   1.180   5.809  10.135 -0.6563  0.2116 -0.1172
    5SAPS   H2X  568   1.121   5.903  10.135  1.1803  1.4162  1.1971
    5SAPS   H2Y  569   1.122   5.731  10.082  0.0574  1.0767 -2.2547
    5SAPS   C23  570   1.232   5.189  10.055 -0.5549 -0.0667 -0.5808
    5SAPS   H3R  571   1.127   5.161  10.034 -0.8253  0.5839 -0.1427
    5SAPS   H3S  572   1.293   5.098  10.040  0.7163  0.8653 -1.2534
    5SAPS   C24  573   1.288   5.287   9.953 -0.2020 -0.1367  0.2081
    5SAPS   H4R  574   1.275   5.248   9.850 -1.3105  1.3087 -0.2384
    5SAPS   H4S  575   1.398   5.303   9.951  0.0620 -1.7622 -1.9489
    5SAPS   C25  576   1.210   5.415   9.953 -0.5777  0.0501  0.5248
    5SAPS   H5R  577   1.203   5.467  10.050  1.4621  0.8121  0.3203
    5SAPS   C26  578   1.165   5.491   9.853  0.1862 -0.1266 -0.0380
    5SAPS   H6R  579   1.114   5.584   9.883 -0.0170  0.5931 -2.3759
    5SAPS   C27  580   1.185   5.465   9.703  0.3013 -0.8480 -0.2226
    5SAPS   H7R  581   1.094   5.412   9.667 -0.5913  0.0868  0.5813
    5SAPS   H7S  582   1.276   5.405   9.683  1.2892  0.8055 -0.9450
    5SAPS   C28  583   1.183   5.596   9.625 -0.2470 -0.9480  0.3164
    5SAPS   H8R  584   1.103   5.669   9.644 -0.4567 -0.9883 -0.3732
    5SAPS   C29  585   1.272   5.621   9.528  0.7582  0.5577  0.2972
    5SAPS   H9R  586   1.269   5.719   9.478 -1.0767  0.5568  0.3390
    5SAPS  C210  587   1.377   5.519   9.482 -0.0515 -0.6981  0.0334
    5SAPS  H10R  588   1.337   5.416   9.470  0.6937 -0.8557 -1.1960
    5SAPS  H10S  589   1.460   5.522   9.556  1.0263 -2.3601 -1.0336
    5SAPS  C211  590   1.443   5.564   9.352 -0.1238  0.1264 -0.5666
    5SAPS  H11R  591   1.547   5.599   9.351 -0.4847  1.3111 -3.1080
    5SAPS  C212  592   1.386   5.550   9.233  0.8141 -0.0756 -0.1529
    5SAPS  H12R  593   1.448   5.573   9.145 -1.8060 -0.1347 -2.1071
    5SAPS  C213  594   1.246   5.511   9.206  0.8580 -0.2569  0.5282
    5SAPS  H13R  595   1.202   5.456   9.293 -0.8128  1.7073  1.0102
    5SAPS  H13S  596   1.255   5.439   9.122 -1.1243 -0.1764  0.1961
    5SAPS  C214  597   1.154   5.629   9.172  0.2054  0.1234  1.1289
    5SAPS  H14R  598   1.212   5.718   9.145  2.9620 -1.3506  1.8038
    5SAPS  C215  599   1.018   5.638   9.178 -0.4275 -0.0108 -0.1667
    5SAPS  H15R  600   0.975   5.733   9.145  0.3116  0.0141 -1.1038
    5SAPS  C216  601   0.931   5.529   9.220  1.1856  0.2326  0.1319
    5SAPS  H16R  602   0.841   5.570   9.270  0.4918  0.2622 -1.1084
    5SAPS  H16S  603   0.981   5.447   9.277 -1.8280 -1.6021  0.3519
    5SAPS  C217  604   0.888   5.470   9.083 -0.7392  0.0965  0.0430
    5SAPS  H17R  605   0.842   5.370   9.093  0.5410 -0.6927 -1.4669
    5SAPS  H17S  606   0.980   5.440   9.027 -2.2198 -3.0388 -0.9338
    5SAPS  C218  607   0.802   5.566   8.997 -0.0162  1.0510  0.1137
    5SAPS  H18R  608   0.728   5.619   9.060 -0.2136  0.2762  0.5456
    5SAPS  H18S  609   0.869   5.639   8.948  0.0867  0.3356 -0.8412
    5SAPS  C219  610   0.730   5.488   8.879 -0.3900 -0.9786  0.4883
    5SAPS  H19R  611   0.623   5.515   8.875 -0.5751 -1.6823  0.6701
    5SAPS  H19S  612   0.743   5.379   8.894  1.3266 -1.0180 -0.8195
    5SAPS  C220  613   0.780   5.522   8.738  0.4677  0.8178  0.2857
    5SAPS  H20R  614   0.863   5.455   8.707  1.3915  2.2204 -0.4196
    5SAPS  H20S  615   0.792   5.633   8.738 -1.5172  1.2697  4.9143
    5SAPS  H20T  616   0.690   5.491   8.682 -1.9274  1.7170  3.3330
    5SAPS   C33  617   1.324   5.833  10.063  0.6751 -0.1414 -0.9501
    5SAPS   H3X  618   1.381   5.740  10.087 -2.1089 -1.3203  1.7933
    5SAPS   H3Y  619   1.365   5.923  10.113  0.3335  0.2289 -1.3298
    5SAPS   C34  620   1.314   5.849   9.913 -0.1311 -0.5856  0.6094
    5SAPS   H4X  621   1.235   5.925   9.893  0.0355 -0.9438 -1.5900
    5SAPS   H4Y  622   1.286   5.751   9.871 -1.2337  0.1602 -0.4673
    5SAPS   C35  623   1.451   5.902   9.862 -0.1002 -0.1234 -0.0586
    5SAPS   H5X  624   1.535   5.841   9.902 -0.3134  0.1077  0.7621
    5SAPS   H5Y  625   1.448   6.007   9.899 -1.3451  0.5680 -1.9335
    5SAPS   C36  626   1.456   5.901   9.708  0.4207 -0.5756  0.2656
    5SAPS   H6X  627   1.366   5.958   9.676  1.6581  1.5371  0.3357
    5SAPS   H6Y  628   1.445   5.799   9.668 -1.2741 -0.0896 -0.5933
    5SAPS   C37  629   1.576   5.964   9.641 -0.3503  0.5712 -0.2062
    5SAPS   H7X  630   1.660   5.894   9.655 -1.3692 -0.2604  2.3031
    5SAPS   H7Y  631   1.605   6.049   9.706  2.0146 -0.8768  0.7471
    5SAPS   C38  632   1.563   6.025   9.504  0.0871 -0.0109  0.4983
    5SAPS   H8X  633   1.661   6.072   9.483 -0.2136  0.9042  1.0697
    5SAPS   H8Y  634   1.490   6.109   9.513 -0.2635 -0.1268 -0.9849
    5SAPS   C39  635   1.508   5.935   9.393 -0.2811  0.5554 -0.5088
    5SAPS   H9X  636   1.420   5.885   9.440  1.4864  0.6795  3.3378
    5SAPS   H9Y  637   1.586   5.860   9.370  0.7662  1.0973  1.0986
    5SAPS  C310  638   1.472   6.015   9.263  0.0648  0.1987 -0.6448
    5SAPS  H10X  639   1.568   6.020   9.207  0.3524 -2.2839 -0.4931
    5SAPS  H10Y  640   1.420   6.108   9.294  0.4306  0.9470 -2.2033
    5SAPS  C311  641   1.366   5.943   9.177  0.4414 -0.8074 -0.4442
    5SAPS  H11X  642   1.280   5.911   9.240 -1.7985  3.3279 -1.0439
    5SAPS  H11Y  643   1.416   5.857   9.128 -2.9021 -5.0774  2.9332
    5SAPS  C312  644   1.302   6.031   9.069  0.0291  0.2315  0.1103
    5SAPS  H12X  645   1.227   6.092   9.125  0.4490  0.2106  0.7039
    5SAPS  H12Y  646   1.251   5.963   8.998 -0.9406  1.0500  0.0009
    5SAPS  C313  647   1.383   6.128   8.993  0.2417  0.2062  0.5561
    5SAPS  H13X  648   1.463   6.062   8.954  0.2795  0.4755  0.1756
    5SAPS  H13Y  649   1.437   6.192   9.067 -0.3593 -1.5281  2.5938
    5SAPS  C314  650   1.313   6.192   8.879  1.1069  0.2279 -0.0339
    5SAPS  H14X  651   1.254   6.283   8.904  1.3852  0.5748 -0.6376
    5SAPS  H14Y  652   1.242   6.118   8.837 -1.0330  0.9740  1.9962
    5SAPS  C315  653   1.406   6.224   8.756 -0.2026  0.1617  0.9256
    5SAPS  H15X  654   1.490   6.289   8.786 -0.1865  0.2414  0.7126
    5SAPS  H15Y  655   1.347   6.291   8.689 -0.1823  1.0511  1.7803
    5SAPS  C316  656   1.473   6.105   8.688 -0.2352  0.0026  0.7775
    5SAPS  H16X  657   1.389   6.043   8.648  0.5036 -0.1793 -0.5351
    5SAPS  H16Y  658   1.526   6.030   8.751 -1.7120 -2.2028 -0.4427
    5SAPS  C317  659   1.560   6.145   8.565 -0.0322 -0.9988 -1.1809
    5SAPS  H17X  660   1.512   6.233   8.516  2.0146 -0.1062 -1.7116
    5SAPS  H17Y  661   1.567   6.070   8.484  0.9363 -1.0460 -1.0695
    5SAPS  C318  662   1.700   6.196   8.609  0.2479 -0.2998 -0.5011
    5SAPS  H18X  663   1.774   6.203   8.527  0.9534 -2.4609 -0.1243
    5SAPS  H18Y  664   1.736   6.127   8.689 -0.1941  1.3792  1.2037
    5SAPS  H18Z  665   1.692   6.289   8.668 -0.2357  0.1049 -1.1993
    6SAPS     N  666   5.457   4.787  10.896  0.5251  0.6782  0.6702
    6SAPS   HN1  667   5.466   4.881  10.940 -1.1367  1.6559 -0.8987
    6SAPS   HN2  668   5.551   4.747  10.879 -0.0386 -0.2650 -0.3228
    6SAPS   HN3  669   5.391   4.787  10.815 -1.1061 -1.0812  1.8997
    6SAPS   C12  670   5.390   4.683  10.979 -0.3210  0.0685 -0.3364
    6SAPS  H12A  671   5.445   4.674  11.072 -0.7678  1.3851  0.0706
    6SAPS   C13  672   5.238   4.713  11.018  0.2054 -0.0744  0.3381
    6SAPS  O13A  673   5.197   4.825  10.981 -0.1174  0.0424  0.1744
    6SAPS  O13B  674   5.177   4.641  11.103 -0.1949 -0.3681  0.6311
    6SAPS   C11  675   5.419   4.551  10.910  0.2668  0.5379 -0.5238
    6SAPS  H11A  676   5.365   4.542  10.814 -0.0845  1.0410 -0.3801
    6SAPS  H11B  677   5.370   4.470  10.969 -1.0525 -0.8020 -3.2957
    6SAPS     P  678   5.604   4.380  10.828 -0.3925  0.4433  0.6045
    6SAPS   O13  679   5.747   4.355  10.869 -0.6084 -0.1016 -0.4459
    6SAPS   O14  680   5.511   4.266  10.845 -0.2059 -0.4447  0.1567
    6SAPS   O12  681   5.553   4.516  10.895 -0.0299  0.1729  0.0030
    6SAPS   O11  682   5.621   4.418  10.677  0.4756 -0.2060 -0.9725
    6SAPS    C1  683   5.688   4.540  10.636 -0.3253  0.6550  0.4027
    6SAPS    HA  684   5.620   4.625  10.659 -1.2535 -0.4206  1.8907
    6SAPS    HB  685   5.775   4.568  10.699 -0.8227  1.6725  0.6599
    6SAPS    C2  686   5.718   4.548  10.482  0.2635  0.4167  0.4249
    6SAPS    HS  687   5.766   4.647  10.462  0.2714  0.5478  1.0905
    6SAPS   O21  688   5.599   4.543  10.401 -0.0905  0.6001 -0.1135
    6SAPS   C21  689   5.523   4.646  10.398 -0.2194  0.6279  0.6508
    6SAPS   O22  690   5.526   4.743  10.474  0.5557  0.0179  0.5764
    6SAPS   C22  691   5.433   4.622  10.280  0.2052 -0.0019 -0.5671
    6SAPS   H2R  692   5.493   4.642  10.189  0.0046 -0.1516 -0.7340
    6SAPS   H2S  693   5.390   4.520  10.293 -0.0895  0.3359  1.4905
    6SAPS    C3  694   5.818   4.431  10.441  0.1286  0.4206 -0.2041
    6SAPS    HX  695   5.766   4.343  10.484  1.6528  0.2478  1.4025
    6SAPS    HY  696   5.915   4.439  10.495  0.5245 -0.1439 -0.8233
    6SAPS   O31  697   5.832   4.426  10.297  0.4463 -0.0888 -0.5140
    6SAPS   C31  698   5.768   4.337  10.226  0.0678 -0.6593  0.2069
    6SAPS   O32  699   5.694   4.252  10.273 -0.4184 -0.2885  0.5613
    6SAPS   C32  700   5.807   4.356  10.080  0.3498  0.1509  0.0663
    6SAPS   H2X  701   5.795   4.258  10.029  0.9385  0.5568 -0.8774
    6SAPS   H2Y  702   5.914   4.387  10.079  0.8080 -1.3598  0.1610
    6SAPS   C23  703   5.312   4.716  10.287  0.0993  0.2264 -0.7529
    6SAPS   H3R  704   5.346   4.820  10.269  2.2444  0.2593  2.4947
    6SAPS   H3S  705   5.264   4.714  10.388  0.6413 -0.6257 -0.4927
    6SAPS   C24  706   5.210   4.682  10.184  0.1517  0.3380 -0.0069
    6SAPS   H4R  707   5.162   4.585  10.210 -0.4623  0.4475 -0.6942
    6SAPS   H4S  708   5.262   4.656  10.089 -0.8933 -0.6519 -0.3427
    6SAPS   C25  709   5.107   4.789  10.161  0.2352  0.1040  0.2000
    6SAPS   H5R  710   5.079   4.832  10.258  1.4171  2.2305 -0.3527
    6SAPS   C26  711   5.065   4.849  10.045  1.0785 -0.1986 -0.3992
    6SAPS   H6R  712   4.978   4.916  10.057 -1.0145 -2.4196 -2.0453
    6SAPS   C27  713   5.101   4.822   9.908 -0.6554 -0.1278  0.0057
    6SAPS   H7R  714   5.170   4.736   9.906 -0.0864  0.2897  1.0271
    6SAPS   H7S  715   5.153   4.908   9.862 -0.3022  0.4768  1.4724
    6SAPS   C28  716   4.979   4.794   9.823 -0.3810 -0.1208 -0.1343
    6SAPS   H8R  717   4.900   4.733   9.869 -0.5307  0.8188  0.9131
    6SAPS   C29  718   4.964   4.831   9.698  0.1861 -0.5020 -0.2592
    6SAPS   H9R  719   4.871   4.800   9.649 -0.0692  1.0566 -0.8134
    6SAPS  C210  720   5.055   4.917   9.608  0.5376  0.0613 -0.6020
    6SAPS  H10R  721   5.135   4.856   9.562 -0.0557  0.9821 -2.9904
    6SAPS  H10S  722   5.095   5.003   9.665  0.9074 -0.3432 -0.2456
    6SAPS  C211  723   4.985   4.975   9.481  0.5714 -0.1136 -1.0741
    6SAPS  H11R  724   4.897   5.037   9.504  1.5484  1.7916 -2.1834
    6SAPS  C212  725   4.998   4.940   9.352 -0.0421  0.0159 -0.3725
    6SAPS  H12R  726   4.928   4.976   9.275 -0.0348 -1.8502 -1.3259
    6SAPS  C213  727   5.097   4.829   9.301 -0.5443  0.2747 -0.0941
    6SAPS  H13R  728   5.055   4.786   9.207  1.3898  0.3777 -1.0520
    6SAPS  H13S  729   5.098   4.749   9.378 -0.1913  0.3157 -0.0550
    6SAPS  C214  730   5.235   4.884   9.271 -0.0982 -0.2835 -0.7220
    6SAPS  H14R  731   5.289   4.905   9.364  0.9478 -2.0635 -0.8942
    6SAPS  C215  732   5.306   4.887   9.158 -0.0172  0.1610 -0.2149
    6SAPS  H15R  733   5.401   4.944   9.161  0.5887 -0.8588  1.3670
    6SAPS  C216  734   5.257   4.834   9.026  0.0260  0.6481  0.0381
    6SAPS  H16R  735   5.173   4.762   9.040  0.8028 -0.2469  0.2019
    6SAPS  H16S  736   5.333   4.778   8.967  1.8234  2.6836  0.3073
    6SAPS  C217  737   5.199   4.940   8.926  0.1716  0.2486 -0.3056
    6SAPS  H17R  738   5.291   4.982   8.880 -0.0029  0.9080 -0.0619
    6SAPS  H17S  739   5.151   5.018   8.990  1.3868  0.9682 -0.2310
    6SAPS  C218  740   5.101   4.887   8.820 -0.1370 -1.0692 -0.4347
    6SAPS  H18R  741   5.015   4.835   8.867 -0.4100 -1.3075 -1.1741
    6SAPS  H18S  742   5.157   4.823   8.747 -1.3060 -0.6317 -1.7602
    6SAPS  C219  743   5.043   5.006   8.743 -0.3106  0.4733 -0.1384
    6SAPS  H19R  744   5.119   5.077   8.704 -0.7625  0.7465 -0.5451
    6SAPS  H19S  745   4.992   5.075   8.814 -0.6669 -0.7517  0.8409
    6SAPS  C220  746   4.938   4.969   8.636  0.2090 -0.0694 -0.1959
    6SAPS  H20R  747   4.904   5.060   8.583 -1.2287 -0.1503  0.5418
    6SAPS  H20S  748   4.850   4.924   8.687 -0.2233 -0.2711 -1.1138
    6SAPS  H20T  749   4.971   4.893   8.562  0.8341  0.6954 -0.7231
    6SAPS   C33  750   5.710   4.456  10.005 -0.3908  0.4137 -0.2706
    6SAPS   H3X  751   5.728   4.561  10.038  0.8874  0.9809 -2.5245
    6SAPS   H3Y  752   5.605   4.441  10.037 -0.0544  0.8514  1.1129
    6SAPS   C34  753   5.718   4.443   9.856 -0.2974  0.0310  0.3994
    6SAPS   H4X  754   5.623   4.477   9.811 -0.1204 -1.0479 -0.8433
    6SAPS   H4Y  755   5.729   4.338   9.823  2.8111  0.0923  0.9242
    6SAPS   C35  756   5.839   4.516   9.794 -0.1103 -0.1925 -0.3485
    6SAPS   H5X  757   5.935   4.464   9.813  1.4008  1.8728 -1.9539
    6SAPS   H5Y  758   5.847   4.615   9.844  1.0253 -0.5944  0.2844
    6SAPS   C36  759   5.827   4.530   9.641 -0.1908  0.3474  0.8672
    6SAPS   H6X  760   5.797   4.435   9.593 -0.9413 -0.3468  2.6515
    6SAPS   H6Y  761   5.927   4.559   9.601 -2.0126  3.1745 -2.2652
    6SAPS   C37  762   5.740   4.646   9.588  0.5922  0.8284 -0.2065
    6SAPS   H7X  763   5.787   4.745   9.606  2.3326 -0.0142  0.1939
    6SAPS   H7Y  764   5.650   4.641   9.652  0.2197 -1.1037 -0.8054
    6SAPS   C38  765   5.721   4.634   9.433 -0.4345  0.1951 -0.6659
    6SAPS   H8X  766   5.658   4.548   9.402 -0.0230 -0.5395  0.4886
    6SAPS   H8Y  767   5.818   4.614   9.384  1.6783 -1.4136  3.6585
    6SAPS   C39  768   5.662   4.756   9.371  0.3450 -0.2797 -0.4015
    6SAPS   H9X  769   5.734   4.838   9.392  0.7125  0.1095 -2.9112
    6SAPS   H9Y  770   5.565   4.777   9.421 -0.9851  1.1667 -3.3688
    6SAPS  C310  771   5.636   4.745   9.219  0.7057 -0.1798 -0.6381
    6SAPS  H10X  772   5.605   4.847   9.187  0.7145 -0.2043 -0.7249
    6SAPS  H10Y  773   5.543   4.688   9.202  1.5968 -1.7760 -0.3478
    6SAPS  C311  774   5.751   4.700   9.127 -1.0126  0.5325 -0.0809
    6SAPS  H11X  775   5.759   4.589   9.135 -0.7875  0.4575 -1.2309
    6SAPS  H11Y  776   5.843   4.752   9.160  0.4387 -1.8299 -0.1574
    6SAPS  C312  777   5.739   4.738   8.979 -0.2922 -0.2657  0.8029
    6SAPS  H12X  778   5.726   4.845   8.951  1.8171 -0.2395 -0.2288
    6SAPS  H12Y  779   5.659   4.679   8.928  0.9904  0.2118 -1.9762
    6SAPS  C313  780   5.871   4.705   8.910 -0.2071 -0.0335 -0.2907
    6SAPS  H13X  781   5.892   4.596   8.906  0.7783  0.1788 -1.6127
    6SAPS  H13Y  782   5.955   4.749   8.968 -0.3796 -0.0713 -0.0097
    6SAPS  C314  783   5.875   4.759   8.772 -0.0230  0.5846  0.5269
    6SAPS  H14X  784   5.976   4.734   8.733  0.1207 -0.0730  1.3079
    6SAPS  H14Y  785   5.855   4.867   8.754 -0.7375  0.3350 -0.2712
    6SAPS  C315  786   5.778   4.683   8.676 -0.8444 -0.1946 -0.6069
    6SAPS  H15X  787   5.669   4.701   8.690 -0.9307 -0.3735 -1.0345
    6SAPS  H15Y  788   5.781   4.574   8.699 -0.6165  0.4168  2.9290
    6SAPS  C316  789   5.822   4.708   8.528  0.3191 -0.6271 -0.0841
    6SAPS  H16X  790   5.909   4.641   8.515  0.8293 -0.0468  0.2965
    6SAPS  H16Y  791   5.849   4.815   8.523  0.0077 -0.5312  0.1895
    6SAPS  C317  792   5.706   4.690   8.425  0.1410 -1.0179 -0.2336
    6SAPS  H17X  793   5.624   4.760   8.453  0.2350 -1.2814  0.7130
    6SAPS  H17Y  794   5.666   4.587   8.433  0.1215 -0.9471  0.7468
    6SAPS  C318  795   5.735   4.704   8.279  0.4092 -0.8423  0.6259
    6SAPS  H18X  796   5.770   4.810   8.274  0.2149 -0.8218 -0.3777
    6SAPS  H18Y  797   5.642   4.697   8.219 -0.2447  0.6737  1.4008
    6SAPS  H18Z  798   5.806   4.626   8.245  1.7602 -0.2542  1.9450
    7SAPS     N  799   1.199   4.677  10.829  0.1884 -0.1028  0.1737
    7SAPS   HN1  800   1.198   4.732  10.741  0.3200  0.6204  0.6126
    7SAPS   HN2  801   1.215   4.576  10.809 -0.9965 -0.4275  0.7253
    7SAPS   HN3  802   1.106   4.691  10.874  0.7413 -1.5448  1.8955
    7SAPS   C12  803   1.303   4.715  10.937  0.1046 -0.5744 -0.0030
    7SAPS  H12A  804   1.267   4.805  10.985  1.4396 -0.9785  1.8634
    7SAPS   C13  805   1.315   4.609  11.042 -0.3872 -0.8549  0.6518
    7SAPS  O13A  806   1.245   4.506  11.041  0.6076 -0.5889  0.4594
    7SAPS  O13B  807   1.376   4.641  11.145 -0.0285  0.5759 -0.1603
    7SAPS   C11  808   1.439   4.751  10.873  0.4107 -0.4503 -0.0725
    7SAPS  H11A  809   1.516   4.758  10.953 -0.1023 -0.6408  0.4466
    7SAPS  H11B  810   1.419   4.848  10.821 -1.1509 -1.7834 -2.1463
    7SAPS     P  811   1.553   4.691  10.643 -0.1414 -0.3421  0.1543
    7SAPS   O13  812   1.482   4.807  10.585  0.3319 -0.2225 -0.0253
    7SAPS   O14  813   1.698   4.693  10.668 -0.0423  0.1081 -0.2679
    7SAPS   O12  814   1.486   4.653  10.779  0.4201 -0.1600  0.2071
    7SAPS   O11  815   1.527   4.560  10.557  0.1875  0.5763  0.6112
    7SAPS    C1  816   1.437   4.551  10.448 -0.2147  0.0563 -0.6702
    7SAPS    HA  817   1.396   4.447  10.442 -1.9449  0.5583  1.1077
    7SAPS    HB  818   1.348   4.612  10.473 -1.3893 -1.7720 -0.1764
    7SAPS    C2  819   1.493   4.584  10.303  0.3469 -0.1006 -0.6891
    7SAPS    HS  820   1.557   4.505  10.260  1.3948  0.5957 -0.4405
    7SAPS   O21  821   1.559   4.703  10.312  0.4556  0.5922  0.4262
    7SAPS   C21  822   1.653   4.731  10.228 -0.0978  0.1024 -0.2191
    7SAPS   O22  823   1.689   4.670  10.129 -0.4233 -0.3251  0.0599
    7SAPS   C22  824   1.722   4.861  10.276  0.1687 -0.3193  1.0858
    7SAPS   H2R  825   1.647   4.936  10.307  0.2796 -0.6036  2.1012
    7SAPS   H2S  826   1.791   4.829  10.358  0.8551 -0.0245  0.6271
    7SAPS    C3  827   1.368   4.587  10.202  0.0234 -0.4794 -0.6801
    7SAPS    HX  828   1.311   4.672  10.245  0.7021  0.4519 -1.5753
    7SAPS    HY  829   1.297   4.503  10.219 -1.1359  0.0807 -2.4238
    7SAPS   O31  830   1.394   4.600  10.060 -0.6849  0.1211 -0.2493
    7SAPS   C31  831   1.446   4.488  10.007 -0.1164 -0.2594  0.4880
    7SAPS   O32  832   1.474   4.382  10.063 -0.5304 -0.3426  0.3981
    7SAPS   C32  833   1.455   4.513   9.857 -0.0503 -0.0188 -0.2653
    7SAPS   H2X  834   1.520   4.433   9.815  0.1651 -0.1075  0.2285
    7SAPS   H2Y  835   1.509   4.608   9.837  1.5467 -0.6379  0.8619
    7SAPS   C23  836   1.802   4.931  10.160  0.2883  0.1338 -0.3967
    7SAPS   H3R  837   1.842   4.866  10.079 -0.9856 -0.2431 -0.7584
    7SAPS   H3S  838   1.893   4.972  10.208 -0.9897  1.0036  1.3954
    7SAPS   C24  839   1.740   5.057  10.098 -0.2394 -0.2150  0.2413
    7SAPS   H4R  840   1.800   5.105  10.018 -0.4425  0.1712  0.3162
    7SAPS   H4S  841   1.728   5.131  10.180  0.0256  0.1735 -0.0652
    7SAPS   C25  842   1.609   5.025  10.033  0.2207  0.3859  0.7388
    7SAPS   H5R  843   1.526   5.017  10.104  1.8459  1.3606  2.8461
    7SAPS   C26  844   1.583   4.988   9.902  1.1569 -0.4105  1.1571
    7SAPS   H6R  845   1.480   4.960   9.876  0.3974  0.6744  2.8109
    7SAPS   C27  846   1.692   4.970   9.802  0.5259 -0.6362  0.5520
    7SAPS   H7R  847   1.787   4.961   9.858 -0.7930 -0.3799  2.9443
    7SAPS   H7S  848   1.701   5.063   9.741 -0.8236  0.8150  2.4745
    7SAPS   C28  849   1.660   4.842   9.720  0.4661  0.0860  0.0661
    7SAPS   H8R  850   1.687   4.750   9.774 -0.3552  1.0514  2.2104
    7SAPS   C29  851   1.603   4.836   9.596 -0.0664  0.1922 -0.0811
    7SAPS   H9R  852   1.579   4.736   9.557  2.2773 -0.3835 -0.1816
    7SAPS  C210  853   1.550   4.948   9.514 -0.3021 -0.5968  0.4669
    7SAPS  H10R  854   1.640   4.982   9.459 -0.1564  0.0586  1.0895
    7SAPS  H10S  855   1.535   5.041   9.573  3.9208  1.0719 -0.7081
    7SAPS  C211  856   1.434   4.915   9.427  0.1123 -0.3536 -0.6076
    7SAPS  H11R  857   1.339   4.882   9.473  1.1029 -0.1798  1.6795
    7SAPS  C212  858   1.418   4.925   9.295 -0.0263 -0.3759  0.5354
    7SAPS  H12R  859   1.319   4.914   9.249  0.4009  0.3890 -0.5966
    7SAPS  C213  860   1.528   4.968   9.194  0.0628  0.0001  0.2278
    7SAPS  H13R  861   1.505   4.929   9.092  0.1734  0.4177  0.0404
    7SAPS  H13S  862   1.632   4.940   9.220  0.2542  1.5754  1.2606
    7SAPS  C214  863   1.532   5.117   9.180 -0.9176 -0.4250  0.3019
    7SAPS  H14R  864   1.541   5.164   9.279 -1.9717 -0.6016  0.4937
    7SAPS  C215  865   1.538   5.191   9.065  0.2084 -0.9252 -0.2102
    7SAPS  H15R  866   1.536   5.299   9.085 -1.1605 -0.9619 -0.0515
    7SAPS  C216  867   1.532   5.157   8.919 -0.3481  0.3955 -0.1374
    7SAPS  H16R  868   1.430   5.116   8.900  0.0868 -1.6150  1.4706
    7SAPS  H16S  869   1.610   5.080   8.905 -0.3379  0.2061  0.8869
    7SAPS  C217  870   1.565   5.272   8.821 -0.3059 -0.0025 -0.4044
    7SAPS  H17R  871   1.543   5.246   8.715 -0.9546  2.8768 -1.0479
    7SAPS  H17S  872   1.672   5.301   8.826 -0.5836  0.9226  0.5914
    7SAPS  C218  873   1.478   5.398   8.839 -0.0189 -0.1741 -0.3777
    7SAPS  H18R  874   1.494   5.467   8.753 -0.7589  0.2127 -0.2134
    7SAPS  H18S  875   1.502   5.441   8.939  0.7400  1.8349 -1.3619
    7SAPS  C219  876   1.330   5.368   8.831 -0.4407 -0.0262 -0.6056
    7SAPS  H19R  877   1.286   5.469   8.841 -0.3598 -0.0962  0.6618
    7SAPS  H19S  878   1.289   5.322   8.923  0.9207  0.2799  0.1820
    7SAPS  C220  879   1.270   5.295   8.713 -0.1667 -0.5502  0.8877
    7SAPS  H20R  880   1.285   5.354   8.620 -0.7838 -2.3812 -0.4231
    7SAPS  H20S  881   1.163   5.272   8.727 -0.4108 -0.8020 -1.1212
    7SAPS  H20T  882   1.323   5.202   8.683 -1.0018 -0.5726 -0.6150
    7SAPS   C33  883   1.307   4.504   9.791 -0.2999  0.3376  0.8047
    7SAPS   H3X  884   1.253   4.594   9.829 -0.5630  1.1544 -1.3660
    7SAPS   H3Y  885   1.253   4.410   9.817  0.0496 -0.6544 -1.7923
    7SAPS   C34  886   1.311   4.523   9.641  0.0805  0.4610  1.4665
    7SAPS   H4X  887   1.365   4.445   9.583 -0.9410  0.5028  0.4300
    7SAPS   H4Y  888   1.362   4.616   9.609 -1.9197  0.7375 -1.3369
    7SAPS   C35  889   1.168   4.535   9.576 -0.2223 -0.6659  0.2540
    7SAPS   H5X  890   1.104   4.574   9.658 -0.4494  2.1470 -1.1345
    7SAPS   H5Y  891   1.122   4.436   9.556 -3.0739  0.7085 -0.5154
    7SAPS   C36  892   1.152   4.627   9.456 -0.2318 -0.1988 -0.7823
    7SAPS   H6X  893   1.202   4.723   9.479  0.1188  0.0661 -2.4931
    7SAPS   H6Y  894   1.046   4.647   9.429  0.0260  1.3189 -0.7294
    7SAPS   C37  895   1.214   4.555   9.329  0.5935  0.5071 -0.4322
    7SAPS   H7X  896   1.180   4.449   9.329 -0.1579  0.7040  1.5446
    7SAPS   H7Y  897   1.323   4.562   9.346  1.0699 -1.0676 -2.3858
    7SAPS   C38  898   1.166   4.628   9.192 -0.2870  0.2453  0.3230
    7SAPS   H8X  899   1.179   4.738   9.197  0.0595  0.2637 -0.7588
    7SAPS   H8Y  900   1.056   4.611   9.188 -0.2463 -0.6088  1.9552
    7SAPS   C39  901   1.233   4.583   9.069  0.8619 -0.5292  1.4500
    7SAPS   H9X  902   1.342   4.577   9.093  1.2890  3.5090  1.2342
    7SAPS   H9Y  903   1.219   4.672   9.004  1.0121 -0.4911  1.4681
    7SAPS  C310  904   1.178   4.460   8.993  0.1034  0.2272  0.0799
    7SAPS  H10X  905   1.208   4.458   8.886  2.5628 -1.3382  0.7324
    7SAPS  H10Y  906   1.068   4.464   9.009  0.2673 -2.4429  2.7646
    7SAPS  C311  907   1.218   4.326   9.053  0.2377 -0.9629 -0.5301
    7SAPS  H11X  908   1.152   4.314   9.142 -1.4163 -1.3627 -1.7775
    7SAPS  H11Y  909   1.328   4.321   9.073 -0.1437 -1.5212  1.7300
    7SAPS  C312  910   1.194   4.197   8.971 -0.4257  0.2010 -0.1560
    7SAPS  H12X  911   1.084   4.185   8.968 -0.3507 -0.9716  0.9777
    7SAPS  H12Y  912   1.235   4.109   9.024 -0.9237 -0.8844 -1.5289
    7SAPS  C313  913   1.238   4.188   8.824 -0.6212 -0.2687  0.0282
    7SAPS  H13X  914   1.208   4.281   8.772 -0.7540 -0.4119 -0.1519
    7SAPS  H13Y  915   1.185   4.109   8.767 -1.4671 -0.2181  0.7253
    7SAPS  C314  916   1.391   4.180   8.808  0.2265 -0.3508  0.5908
    7SAPS  H14X  917   1.432   4.099   8.872 -1.7277 -1.3192  0.7003
    7SAPS  H14Y  918   1.428   4.276   8.849  0.9404 -0.1856 -0.3984
    7SAPS  C315  919   1.433   4.180   8.660  0.3290  0.2286 -0.1398
    7SAPS  H15X  920   1.376   4.267   8.620 -2.2794 -0.8840  0.9232
    7SAPS  H15Y  921   1.409   4.090   8.600  2.0984 -0.7213  0.5186
    7SAPS  C316  922   1.581   4.210   8.652 -0.3925  1.0293 -0.7483
    7SAPS  H16X  923   1.640   4.124   8.690 -1.3222  0.3809 -0.7435
    7SAPS  H16Y  924   1.606   4.294   8.720  1.1338  0.6213 -0.7744
    7SAPS  C317  925   1.624   4.230   8.507 -0.1506  0.6750  0.8586
    7SAPS  H17X  926   1.560   4.304   8.454 -2.4845  0.4896  3.1573
    7SAPS  H17Y  927   1.615   4.135   8.451 -1.6977  2.3417 -1.9251
    7SAPS  C318  928   1.768   4.280   8.497 -0.2286 -0.6614  0.8555
    7SAPS  H18X  929   1.803   4.363   8.561  4.5307 -2.4427  0.9484
    7SAPS  H18Y  930   1.787   4.317   8.394 -0.4217  0.8669  1.3453
    7SAPS  H18Z  931   1.840   4.200   8.524 -0.6578 -1.1788  0.5098
    8SAPS     N  932   4.468   0.765  11.225 -0.0871 -0.0398  0.3415
    8SAPS   HN1  933   4.495   0.788  11.127 -0.5536  0.3466  0.3027
    8SAPS   HN2  934   4.530   0.818  11.290 -0.3267  1.0770 -0.3240
    8SAPS   HN3  935   4.489   0.663  11.227  3.1288  0.5272  1.2917
    8SAPS   C12  936   4.326   0.792  11.234 -0.2536  0.2599 -1.0522
    8SAPS  H12A  937   4.293   0.731  11.317 -2.2276 -0.4735 -2.3119
    8SAPS   C13  938   4.277   0.930  11.276  0.0424 -0.3642  0.0859
    8SAPS  O13A  939   4.364   1.018  11.307 -0.2299 -0.2924  0.2959
    8SAPS  O13B  940   4.153   0.960  11.265 -0.1310 -0.0851 -0.1197
    8SAPS   C11  941   4.258   0.737  11.113 -0.2766  0.0363  0.4860
    8SAPS  H11A  942   4.284   0.801  11.026 -1.2750  0.8561  0.7576
    8SAPS  H11B  943   4.151   0.740  11.144  0.0936  1.6465  1.7218
    8SAPS     P  944   4.194   0.489  11.052  0.3836 -0.2191  0.0100
    8SAPS   O13  945   4.262   0.385  10.967  0.1683  0.5067 -0.4471
    8SAPS   O14  946   4.146   0.439  11.186 -0.3742 -0.2077 -0.0155
    8SAPS   O12  947   4.304   0.608  11.072  0.2883 -0.3564 -0.2486
    8SAPS   O11  948   4.081   0.558  10.975  0.1066 -0.5580 -0.4775
    8SAPS    C1  949   4.094   0.567  10.837 -0.1697 -0.3283 -0.1532
    8SAPS    HA  950   4.201   0.559  10.805 -0.1212 -1.8651  0.3413
    8SAPS    HB  951   4.046   0.481  10.786 -1.0597 -0.7216  1.3098
    8SAPS    C2  952   4.053   0.704  10.798 -0.3715  0.2108  0.6138
    8SAPS    HS  953   4.120   0.775  10.851  0.5751 -0.4843  0.3758
    8SAPS   O21  954   3.913   0.728  10.825 -0.1324 -0.4072  0.0082
    8SAPS   C21  955   3.868   0.859  10.831  0.3791 -0.6959 -0.3256
    8SAPS   O22  956   3.939   0.958  10.832  0.5583  0.1381 -0.2229
    8SAPS   C22  957   3.721   0.870  10.847  0.7792  0.3135  0.3515
    8SAPS   H2R  958   3.698   0.826  10.947  1.7336 -0.4517  0.2477
    8SAPS   H2S  959   3.686   0.976  10.840 -0.4057 -0.0099  1.0138
    8SAPS    C3  960   4.073   0.716  10.638 -0.3118 -0.1907 -0.3409
    8SAPS    HX  961   4.004   0.642  10.591  1.2981 -1.7648 -0.3369
    8SAPS    HY  962   4.174   0.681  10.607  0.5839  1.3615  0.6836
    8SAPS   O31  963   4.052   0.849  10.587  0.3542 -0.1469  0.0410
    8SAPS   C31  964   4.145   0.942  10.614  0.3359 -0.1278 -0.2505
    8SAPS   O32  965   4.251   0.925  10.672  0.8231 -0.0876 -0.3842
    8SAPS   C32  966   4.118   1.076  10.538 -0.4583  0.0484 -0.1368
    8SAPS   H2X  967   4.198   1.074  10.460  1.3467  1.8366  1.5372
    8SAPS   H2Y  968   4.140   1.156  10.613 -0.5659  0.8950 -0.9813
    8SAPS   C23  969   3.634   0.785  10.745  0.5699 -0.0961  0.2569
    8SAPS   H3R  970   3.530   0.808  10.780  1.2405 -0.2403  2.5299
    8SAPS   H3S  971   3.661   0.679  10.764  1.8327  0.1821  0.0740
    8SAPS   C24  972   3.662   0.831  10.605 -0.1058  0.0593 -0.6178
    8SAPS   H4R  973   3.770   0.822  10.580  0.2993 -0.3673  1.1421
    8SAPS   H4S  974   3.637   0.939  10.609 -0.9352 -0.0559 -2.1755
    8SAPS   C25  975   3.552   0.773  10.522  0.2506  0.2756  0.4420
    8SAPS   H5R  976   3.452   0.808  10.553 -1.0964 -3.1077  0.3051
    8SAPS   C26  977   3.571   0.701  10.405 -0.3185 -0.1380 -0.3721
    8SAPS   H6R  978   3.483   0.659  10.353 -0.5259 -0.9568  0.5970
    8SAPS   C27  979   3.709   0.665  10.349  0.2709  0.7297 -0.1392
    8SAPS   H7R  980   3.700   0.557  10.328  1.4686  0.7242 -0.7350
    8SAPS   H7S  981   3.794   0.696  10.414  1.1956  0.1549 -1.0434
    8SAPS   C28  982   3.725   0.748  10.228 -0.3539 -1.1096 -0.7602
    8SAPS   H8R  983   3.756   0.852  10.241  0.0793 -1.2991 -0.2295
    8SAPS   C29  984   3.732   0.710  10.095  0.6395  0.0593 -0.2006
    8SAPS   H9R  985   3.750   0.783  10.014  1.6744 -1.0080 -0.9706
    8SAPS  C210  986   3.726   0.574  10.041 -0.2461  0.0611 -0.6423
    8SAPS  H10R  987   3.630   0.536  10.080  0.4495  1.0958  2.3967
    8SAPS  H10S  988   3.806   0.506  10.078 -0.2899  0.5568  0.3988
    8SAPS  C211  989   3.726   0.576   9.891  0.0717 -0.4350  0.1387
    8SAPS  H11R  990   3.627   0.597   9.848 -0.4875 -1.2212  1.0005
    8SAPS  C212  991   3.828   0.553   9.801 -1.5126  0.2229  0.0687
    8SAPS  H12R  992   3.817   0.579   9.695  0.8859 -2.5431 -1.0154
    8SAPS  C213  993   3.971   0.525   9.843 -0.0812  0.7209 -0.2024
    8SAPS  H13R  994   3.980   0.482   9.945 -0.3409 -1.9665 -1.2366
    8SAPS  H13S  995   4.033   0.617   9.851 -1.4114  1.5587  0.8301
    8SAPS  C214  996   4.042   0.432   9.750 -0.5703  0.3344  0.1744
    8SAPS  H14R  997   4.105   0.486   9.677  1.0421 -0.5176  0.8803
    8SAPS  C215  998   4.033   0.302   9.732  0.0120 -0.0939  0.0438
    8SAPS  H15R  999   4.085   0.256   9.647 -2.5824 -1.4729 -0.8948
    8SAPS  C216 1000   3.941   0.215   9.816  0.2230 -0.0866 -0.0423
    8SAPS  H16R 1001   3.891   0.142   9.748  0.0442 -1.4275  1.4832
    8SAPS  H16S 1002   3.858   0.275   9.858  1.0111 -0.2061  1.7634
    8SAPS  C217 1003   3.992   0.119   9.928  0.3065  0.1891  0.6461
    8SAPS  H17R 1004   3.917   0.122  10.009 -1.6030 -2.9828 -0.8211
    8SAPS  H17S 1005   4.085   0.151   9.980 -0.1722  3.4042 -0.2430
    8SAPS  C218 1006   4.015  -0.030   9.886  0.3729  0.2864 -0.0609
    8SAPS  H18R 1007   3.919  -0.061   9.840 -0.0901  1.2001  0.2595
    8SAPS  H18S 1008   4.037  -0.087   9.979  1.5808 -0.6983 -0.9237
    8SAPS  C219 1009   4.126  -0.053   9.777 -0.1585 -0.0398 -0.1219
    8SAPS  H19R 1010   4.091  -0.000   9.685  0.9938  0.5021 -0.2682
    8SAPS  H19S 1011   4.117  -0.162   9.756 -3.1285  0.2744 -1.0022
    8SAPS  C220 1012   4.263   0.003   9.804  0.1221 -0.4356 -0.2068
    8SAPS  H20R 1013   4.266   0.110   9.774 -0.6445  0.4940  2.7092
    8SAPS  H20S 1014   4.331  -0.051   9.735 -1.6848 -2.1720 -0.7513
    8SAPS  H20T 1015   4.298  -0.017   9.907 -1.4109  1.3675  0.7326
    8SAPS   C33 1016   3.974   1.086  10.489  0.4139  0.0179 -0.4560
    8SAPS   H3X 1017   3.952   1.193  10.468 -0.8501 -0.4465 -1.6171
    8SAPS   H3Y 1018   3.900   1.056  10.567  1.2873 -0.3038  0.2678
    8SAPS   C34 1019   3.943   1.012  10.356  0.6605  0.1015 -0.6497
    8SAPS   H4X 1020   3.838   1.040  10.334  0.2490 -0.4992  0.4621
    8SAPS   H4Y 1021   3.953   0.902  10.363 -0.5169  0.0541  0.6815
    8SAPS   C35 1022   4.029   1.059  10.245  0.2341 -0.6728 -0.1593
    8SAPS   H5X 1023   4.123   1.002  10.257  0.1579 -0.6976  0.3192
    8SAPS   H5Y 1024   4.049   1.167  10.260 -1.6539 -0.5631  2.1001
    8SAPS   C36 1025   3.969   1.027  10.113  0.2764  0.1342  0.4805
    8SAPS   H6X 1026   3.868   1.072  10.099 -0.0707 -0.9971 -0.9058
    8SAPS   H6Y 1027   3.950   0.918  10.099  1.4573  0.0819 -0.9168
    8SAPS   C37 1028   4.055   1.085  10.003 -0.3291 -0.2466  0.4859
    8SAPS   H7X 1029   4.156   1.040  10.006  0.0822  0.6914  0.9664
    8SAPS   H7Y 1030   4.075   1.190  10.033  1.0309 -0.5208  0.6164
    8SAPS   C38 1031   3.992   1.069   9.861 -0.6320  0.2346 -0.0957
    8SAPS   H8X 1032   4.044   1.139   9.792 -0.4604 -0.5726 -0.7946
    8SAPS   H8Y 1033   3.886   1.103   9.866 -0.7925 -0.2392 -0.2936
    8SAPS   C39 1034   4.003   0.927   9.799 -0.2321  0.2972 -0.4199
    8SAPS   H9X 1035   3.918   0.862   9.825  1.0241 -1.9626 -1.6254
    8SAPS   H9Y 1036   4.092   0.867   9.827 -0.1693  0.7728  0.4103
    8SAPS  C310 1037   4.001   0.926   9.649 -0.1746  0.1830  1.2862
    8SAPS  H10X 1038   4.101   0.960   9.614 -0.9445 -1.0499 -2.6704
    8SAPS  H10Y 1039   3.936   1.001   9.598  0.2478 -0.4053 -0.1695
    8SAPS  C311 1040   3.979   0.785   9.582  0.7031  0.4342  0.5865
    8SAPS  H11X 1041   3.879   0.752   9.618  0.9542 -0.1925  0.7244
    8SAPS  H11Y 1042   4.052   0.709   9.615  2.2834  1.3672 -0.5883
    8SAPS  C312 1043   3.975   0.806   9.428  0.0528 -0.0315  0.6335
    8SAPS  H12X 1044   4.074   0.816   9.378  1.1766 -3.6336  1.8727
    8SAPS  H12Y 1045   3.919   0.898   9.401  2.2183  1.6721  1.5079
    8SAPS  C313 1046   3.909   0.694   9.356  0.0689  0.0192  0.3454
    8SAPS  H13X 1047   3.799   0.688   9.372 -0.2261 -0.0604 -1.5106
    8SAPS  H13Y 1048   3.954   0.602   9.400  0.8227  0.8633  1.3599
    8SAPS  C314 1049   3.952   0.683   9.210 -0.2755  0.6583  0.2483
    8SAPS  H14X 1050   4.048   0.736   9.193 -1.7589  3.0960 -1.0230
    8SAPS  H14Y 1051   3.877   0.743   9.156 -1.0318 -0.1034  0.4283
    8SAPS  C315 1052   3.961   0.540   9.160  0.0597  0.2977 -0.3379
    8SAPS  H15X 1053   3.873   0.484   9.198 -0.3964  1.6565  0.7089
    8SAPS  H15Y 1054   4.052   0.490   9.198 -0.2910  0.5327  0.8451
    8SAPS  C316 1055   3.955   0.538   9.008 -0.8620  0.0894  0.2762
    8SAPS  H16X 1056   4.034   0.607   8.968  2.4639 -4.4274 -1.8244
    8SAPS  H16Y 1057   3.855   0.564   8.969 -1.2047 -1.9686 -0.3199
    8SAPS  C317 1058   3.990   0.405   8.943 -0.7369  0.0624 -0.5937
    8SAPS  H17X 1059   3.933   0.321   8.987  0.2121 -0.9779 -1.3023
    8SAPS  H17Y 1060   4.097   0.384   8.966 -0.4224  1.8940 -0.1691
    8SAPS  C318 1061   3.981   0.416   8.792 -0.1840  0.9240  0.2695
    8SAPS  H18X 1062   3.980   0.314   8.749  0.8089  1.6441 -1.5757
    8SAPS  H18Y 1063   4.072   0.463   8.748  1.1220 -1.7654 -0.1102
    8SAPS  H18Z 1064   3.891   0.471   8.759 -0.8781  0.9915  2.1181
    9SAPS     N 1065   1.234   4.776   5.987  0.8348 -0.5730 -0.0573
    9SAPS   HN1 1066   1.308   4.784   5.914 -0.6090  1.5537 -1.4032
    9SAPS   HN2 1067   1.145   4.758   5.936  0.2535  1.2342  0.2696
    9SAPS   HN3 1068   1.225   4.866   6.039  1.0308  0.0170 -1.0316
    9SAPS   C12 1069   1.264   4.661   6.081 -0.4009 -0.0293  0.6676
    9SAPS  H12A 1070   1.169   4.626   6.119 -0.4902 -2.3046 -1.3898
    9SAPS   C13 1071   1.321   4.531   6.021 -0.0633 -0.3062 -0.8919
    9SAPS  O13A 1072   1.310   4.519   5.898  0.6383  0.3195  0.2689
    9SAPS  O13B 1073   1.343   4.435   6.096 -0.5351 -0.1672 -0.4744
    9SAPS   C11 1074   1.353   4.708   6.198 -0.2484 -0.3096 -0.2388
    9SAPS  H11A 1075   1.377   4.629   6.273  0.8363  1.3766  1.2742
    9SAPS  H11B 1076   1.297   4.777   6.264 -1.9726 -2.5095  0.7466
    9SAPS     P 1077   1.517   4.915   6.172 -0.4768  0.0554 -0.2645
    9SAPS   O13 1078   1.667   4.926   6.158 -0.1645  0.2018 -0.0517
    9SAPS   O14 1079   1.435   4.994   6.076  0.5887  1.1723 -0.2054
    9SAPS   O12 1080   1.478   4.762   6.152 -0.4653  0.5339 -0.3302
    9SAPS   O11 1081   1.465   4.949   6.319  0.2084 -0.1171  0.0446
    9SAPS    C1 1082   1.561   4.969   6.423  0.4429 -0.2312 -0.1425
    9SAPS    HA 1083   1.663   4.925   6.413  1.5285  1.6522  1.7093
    9SAPS    HB 1084   1.584   5.078   6.428 -0.8734  0.0698 -0.2868
    9SAPS    C2 1085   1.498   4.935   6.560 -0.8779 -0.1378 -0.5000
    9SAPS    HS 1086   1.408   4.998   6.578  0.2423  0.9054  1.9327
    9SAPS   O21 1087   1.606   4.956   6.654 -0.0576  0.1449 -0.2480
    9SAPS   C21 1088   1.641   5.082   6.685  0.6594  0.5019  0.0156
    9SAPS   O22 1089   1.585   5.183   6.643 -0.0344  0.4348  0.1127
    9SAPS   C22 1090   1.744   5.069   6.793 -0.6146 -0.1135  0.0544
    9SAPS   H2R 1091   1.684   5.043   6.883 -1.0799  1.2633  0.1715
    9SAPS   H2S 1092   1.814   4.986   6.774 -0.8112 -0.7755  2.0161
    9SAPS    C3 1093   1.461   4.779   6.569 -0.5064  0.5607 -0.5519
    9SAPS    HX 1094   1.546   4.723   6.526 -0.2339 -1.2554  2.1332
    9SAPS    HY 1095   1.376   4.762   6.499  0.6156 -0.3045 -1.7728
    9SAPS   O31 1096   1.427   4.737   6.706 -0.4214  0.2566  0.5495
    9SAPS   C31 1097   1.537   4.688   6.772  0.6774  0.4144 -0.6810
    9SAPS   O32 1098   1.639   4.639   6.726  0.2712 -0.0523  0.0683
    9SAPS   C32 1099   1.490   4.667   6.918 -0.5272  0.1679  0.1666
    9SAPS   H2X 1100   1.506   4.559   6.938 -0.4183 -0.5984 -3.4680
    9SAPS   H2Y 1101   1.385   4.703   6.918 -0.0481  1.8870 -2.5098
    9SAPS   C23 1102   1.827   5.192   6.812 -0.2196  0.1910 -0.2955
    9SAPS   H3R 1103   1.763   5.282   6.798 -0.3970 -0.0628 -1.1455
    9SAPS   H3S 1104   1.906   5.203   6.734  0.1759 -0.0441  0.0688
    9SAPS   C24 1105   1.884   5.188   6.957  0.5255 -0.3655 -0.3570
    9SAPS   H4R 1106   1.799   5.171   7.026 -0.4026 -2.6827 -1.9443
    9SAPS   H4S 1107   1.939   5.284   6.966  0.5039 -0.4343  0.5915
    9SAPS   C25 1108   1.986   5.084   6.984 -0.3509  0.2661  1.0492
    9SAPS   H5R 1109   2.024   5.040   6.891 -2.3710  0.6035 -0.0052
    9SAPS   C26 1110   2.033   5.044   7.103  0.2984  0.4612  0.0059
    9SAPS   H6R 1111   2.112   4.969   7.110 -0.3702 -0.1288  1.7152
    9SAPS   C27 1112   2.000   5.112   7.238  0.0492 -0.3177  0.0066
    9SAPS   H7R 1113   1.921   5.189   7.218  0.8814  0.3489 -0.8553
    9SAPS   H7S 1114   2.089   5.168   7.273 -0.2072  0.0630  0.0566
    9SAPS   C28 1115   1.936   5.024   7.340  0.6213  0.8526 -0.0626
    9SAPS   H8R 1116   1.877   4.945   7.291  2.4134  1.1158 -2.8451
    9SAPS   C29 1117   1.930   5.026   7.474 -0.2436  0.4032  0.6395
    9SAPS   H9R 1118   1.865   4.958   7.530 -0.0903  0.0722  0.4177
    9SAPS  C210 1119   1.993   5.131   7.561  0.4343  0.4721  0.0498
    9SAPS  H10R 1120   1.909   5.177   7.617 -0.2603 -0.3779 -0.2661
    9SAPS  H10S 1121   2.037   5.213   7.501  2.5748 -1.2481 -0.8563
    9SAPS  C211 1122   2.097   5.096   7.667 -0.6703 -0.0684  0.9568
    9SAPS  H11R 1123   2.201   5.104   7.630 -1.9673  0.7657 -2.9694
    9SAPS  C212 1124   2.078   5.050   7.791 -0.2105  0.0476 -0.4721
    9SAPS  H12R 1125   2.160   5.050   7.864 -0.2388  2.5863 -0.3614
    9SAPS  C213 1126   1.939   5.043   7.852 -0.4420  0.0040  0.3793
    9SAPS  H13R 1127   1.925   4.952   7.914 -2.1920 -2.3630 -3.1772
    9SAPS  H13S 1128   1.867   5.025   7.769  1.4467 -3.2672 -0.7401
    9SAPS  C214 1129   1.904   5.173   7.928 -0.3446  0.4172  1.6569
    9SAPS  H14R 1130   1.827   5.230   7.873 -0.1428 -0.2381  0.6728
    9SAPS  C215 1131   1.954   5.211   8.047  0.4962  0.2130 -0.6700
    9SAPS  H15R 1132   1.925   5.307   8.092  0.6241  0.0258 -0.1812
    9SAPS  C216 1133   2.049   5.147   8.133 -0.1421  0.1212  0.1139
    9SAPS  H16R 1134   2.134   5.218   8.145 -0.5518  0.5358  0.5612
    9SAPS  H16S 1135   2.088   5.053   8.088 -0.5668  0.0645 -0.1377
    9SAPS  C217 1136   1.987   5.107   8.267 -0.0138 -0.3934  0.7825
    9SAPS  H17R 1137   2.036   5.015   8.307 -0.2124 -2.3045 -2.9458
    9SAPS  H17S 1138   1.882   5.081   8.244 -0.7790  4.0250 -1.9621
    9SAPS  C218 1139   1.975   5.220   8.378 -0.5944 -0.5187  0.1139
    9SAPS  H18R 1140   1.929   5.313   8.339  1.3476  1.5755  2.4103
    9SAPS  H18S 1141   2.082   5.235   8.404  0.5577  1.2464 -4.6169
    9SAPS  C219 1142   1.903   5.172   8.502 -0.0294  0.0235 -0.1119
    9SAPS  H19R 1143   1.919   5.250   8.580  0.1734 -0.7122  0.5909
    9SAPS  H19S 1144   1.945   5.076   8.538  1.8655 -0.1070 -2.4146
    9SAPS  C220 1145   1.757   5.169   8.480  0.4791  0.5514  0.3005
    9SAPS  H20R 1146   1.711   5.261   8.436  0.3322  1.4198  2.1551
    9SAPS  H20S 1147   1.700   5.147   8.573 -0.1222 -1.8227 -0.5776
    9SAPS  H20T 1148   1.742   5.083   8.411  1.5418  1.8305 -1.6016
    9SAPS   C33 1149   1.569   4.750   7.023 -0.1035 -1.3022 -0.8077
    9SAPS   H3X 1150   1.554   4.859   7.014  0.9068 -0.7746  2.6346
    9SAPS   H3Y 1151   1.679   4.734   7.012 -0.0645 -0.6799 -1.3900
    9SAPS   C34 1152   1.531   4.695   7.161 -0.1372 -0.7650  0.2511
    9SAPS   H4X 1153   1.553   4.586   7.163  1.6663 -0.4246  1.6225
    9SAPS   H4Y 1154   1.424   4.712   7.183 -0.1829 -1.3863  0.5324
    9SAPS   C35 1155   1.626   4.747   7.273  0.0474  0.1314  0.5249
    9SAPS   H5X 1156   1.642   4.857   7.262  0.3592  0.0595  0.2564
    9SAPS   H5Y 1157   1.728   4.704   7.276  1.4061  2.9227 -1.2090
    9SAPS   C36 1158   1.570   4.715   7.413  0.5145  0.0286 -0.0437
    9SAPS   H6X 1159   1.578   4.606   7.434 -1.1507 -0.2612 -0.7731
    9SAPS   H6Y 1160   1.460   4.731   7.409  0.6608  1.2408  0.3357
    9SAPS   C37 1161   1.617   4.814   7.515  0.3711  0.1723 -0.2843
    9SAPS   H7X 1162   1.591   4.916   7.479 -0.3241  0.9120  2.1230
    9SAPS   H7Y 1163   1.728   4.821   7.521  0.4768 -2.0239  1.9784
    9SAPS   C38 1164   1.560   4.768   7.652 -0.3387 -0.8330  0.9462
    9SAPS   H8X 1165   1.616   4.679   7.688  3.9723  0.6986 -1.2056
    9SAPS   H8Y 1166   1.454   4.736   7.661 -0.2682 -0.7836  2.1621
    9SAPS   C39 1167   1.597   4.884   7.751 -0.1730 -0.1128  0.2093
    9SAPS   H9X 1168   1.546   4.973   7.708  0.5510 -0.2764 -1.0532
    9SAPS   H9Y 1169   1.704   4.907   7.767 -1.2942  4.4723  2.7929
    9SAPS  C310 1170   1.551   4.858   7.895  0.5583 -0.2627  0.2475
    9SAPS  H10X 1171   1.597   4.937   7.957  3.3395 -1.2489 -0.4444
    9SAPS  H10Y 1172   1.588   4.762   7.936 -1.6800 -2.2217 -1.9838
    9SAPS  C311 1173   1.395   4.859   7.909 -0.7180  0.1094  0.6162
    9SAPS  H11X 1174   1.347   4.774   7.856  0.5009 -1.1418  1.4587
    9SAPS  H11Y 1175   1.351   4.945   7.853  1.5992 -0.3791 -2.2151
    9SAPS  C312 1176   1.337   4.857   8.053 -0.1801  0.0636  0.4160
    9SAPS  H12X 1177   1.393   4.940   8.100  1.1239  1.2877 -2.9647
    9SAPS  H12Y 1178   1.375   4.767   8.106  1.0538 -1.1807 -2.3821
    9SAPS  C313 1179   1.193   4.878   8.074  0.9766  0.0811 -0.0339
    9SAPS  H13X 1180   1.189   4.855   8.183  3.3447  0.8075  0.2518
    9SAPS  H13Y 1181   1.127   4.820   8.006  0.1501  1.6074 -0.5772
    9SAPS  C314 1182   1.156   5.026   8.037 -0.3590 -0.1830 -0.6790
    9SAPS  H14X 1183   1.189   5.048   7.933  1.5995  1.8409  0.2717
    9SAPS  H14Y 1184   1.207   5.094   8.109 -2.5366  0.8583 -0.0291
    9SAPS  C315 1185   1.014   5.068   8.058  0.5265 -0.9464 -0.0134
    9SAPS  H15X 1186   0.982   5.013   8.149 -0.8060  0.5929  0.5061
    9SAPS  H15Y 1187   0.954   5.035   7.970 -0.0724  1.6580 -0.6617
    9SAPS  C316 1188   0.997   5.219   8.067 -0.1688 -0.1690 -0.6416
    9SAPS  H16X 1189   1.037   5.265   8.160 -1.0391  0.3832 -0.5265
    9SAPS  H16Y 1190   0.889   5.242   8.076 -0.2312  0.4635 -2.4381
    9SAPS  C317 1191   1.057   5.297   7.950  0.0013  0.3831  0.2244
    9SAPS  H17X 1192   1.065   5.233   7.859 -1.8378  1.0522 -0.4395
    9SAPS  H17Y 1193   1.161   5.325   7.978  0.6613  0.1525 -1.7645
    9SAPS  C318 1194   0.998   5.431   7.915 -0.0837  0.5339  0.6078
    9SAPS  H18X 1195   0.906   5.430   7.851 -0.1038  0.0327  0.6419
    9SAPS  H18Y 1196   1.073   5.497   7.868 -0.2811  1.2150  1.2407
    9SAPS  H18Z 1197   0.971   5.483   8.009 -1.2519  0.7912  0.1614
   10SAPS     N 1198   0.300   4.233   6.205 -0.3248 -0.1817 -0.4744
   10SAPS   HN1 1199   0.365   4.313   6.192 -0.3124  0.6620  3.6182
   10SAPS   HN2 1200   0.349   4.144   6.186 -0.7199 -0.0586 -2.2267
   10SAPS   HN3 1201   0.217   4.239   6.142  0.0370 -0.5427 -0.9979
   10SAPS   C12 1202   0.243   4.242   6.344 -0.0044 -1.1148  0.2696
   10SAPS  H12A 1203   0.302   4.186   6.415 -1.0085 -0.2477  1.8530
   10SAPS   C13 1204   0.225   4.395   6.401  0.2743  0.7517  0.3165
   10SAPS  O13A 1205   0.240   4.485   6.314  0.3248  0.2911  0.0081
   10SAPS  O13B 1206   0.196   4.415   6.522 -0.3462  0.3469  0.1023
   10SAPS   C11 1207   0.104   4.171   6.351  0.4530 -0.3040 -0.4353
   10SAPS  H11A 1208   0.033   4.184   6.267  0.0826  1.0064  0.0586
   10SAPS  H11B 1209   0.046   4.205   6.439  1.4644 -0.1222  0.1820
   10SAPS     P 1210   0.025   3.920   6.395  0.3058 -0.0272  0.1994
   10SAPS   O13 1211  -0.102   3.965   6.339 -0.0093 -0.1793  0.1155
   10SAPS   O14 1212   0.071   3.787   6.344 -0.6300 -0.0808  0.0908
   10SAPS   O12 1213   0.131   4.030   6.359  0.6834  0.2674 -0.4507
   10SAPS   O11 1214   0.007   3.914   6.545 -0.2805  0.2044 -0.1716
   10SAPS    C1 1215   0.043   3.821   6.641 -0.3529 -0.6586 -0.5484
   10SAPS    HA 1216  -0.028   3.736   6.631  0.9771 -1.9916  0.8603
   10SAPS    HB 1217   0.148   3.787   6.633  1.0627  2.9762  0.5454
   10SAPS    C2 1218   0.020   3.884   6.782  0.3588  0.3844  0.1320
   10SAPS    HS 1219  -0.087   3.913   6.784  0.5499  1.1352 -0.2590
   10SAPS   O21 1220   0.107   3.993   6.797 -0.0431  0.0540 -0.2379
   10SAPS   C21 1221   0.062   4.091   6.876  0.6010 -0.1268  0.8342
   10SAPS   O22 1222  -0.043   4.093   6.929  0.8136  0.3597 -0.0561
   10SAPS   C22 1223   0.160   4.213   6.883 -0.4098  0.9896  0.7324
   10SAPS   H2R 1224   0.263   4.177   6.862 -1.7979 -2.7064 -0.7097
   10SAPS   H2S 1225   0.140   4.273   6.792  0.1807  2.5923  1.6374
   10SAPS    C3 1226   0.042   3.773   6.893 -0.3289  0.1323  0.3623
   10SAPS    HX 1227   0.136   3.722   6.862  0.6445  2.3798 -0.5913
   10SAPS    HY 1228  -0.041   3.699   6.881 -0.8709  0.2670  2.6965
   10SAPS   O31 1229   0.050   3.829   7.030  0.3432 -0.3375  0.6702
   10SAPS   C31 1230  -0.063   3.846   7.087  0.8246  0.3186 -0.2502
   10SAPS   O32 1231  -0.169   3.801   7.044  0.0763  0.2370 -0.0234
   10SAPS   C32 1232  -0.043   3.914   7.218 -0.0117  0.2989 -0.2734
   10SAPS   H2X 1233  -0.008   4.018   7.199 -0.3547  0.4938  0.1522
   10SAPS   H2Y 1234   0.028   3.846   7.270 -0.9823  0.7774  1.7686
   10SAPS   C23 1235   0.140   4.303   7.005  0.5592 -0.5831 -0.3302
   10SAPS   H3R 1236   0.037   4.297   7.046 -0.1196 -1.6558 -2.0741
   10SAPS   H3S 1237   0.143   4.407   6.964 -0.9074  0.7537  2.6604
   10SAPS   C24 1238   0.247   4.297   7.118 -0.5659  0.1153  0.4398
   10SAPS   H4R 1239   0.233   4.364   7.205  0.0156 -1.8545  2.1237
   10SAPS   H4S 1240   0.342   4.324   7.068 -1.0169 -0.8070 -1.0021
   10SAPS   C25 1241   0.248   4.152   7.167 -0.1096  0.3940 -0.3953
   10SAPS   H5R 1242   0.271   4.074   7.093  1.8134  0.4099  0.1226
   10SAPS   C26 1243   0.223   4.119   7.292 -0.3496 -0.5378 -0.2286
   10SAPS   H6R 1244   0.209   4.012   7.309 -3.2392 -0.2625 -0.3558
   10SAPS   C27 1245   0.204   4.206   7.413  0.4713 -0.1614 -0.1147
   10SAPS   H7R 1246   0.264   4.297   7.392  2.0132 -0.9689  0.6553
   10SAPS   H7S 1247   0.242   4.160   7.506 -0.6370 -0.1393  0.3674
   10SAPS   C28 1248   0.057   4.237   7.434 -0.5704  0.0921  0.8693
   10SAPS   H8R 1249  -0.007   4.192   7.357  0.1482 -0.4748  0.5935
   10SAPS   C29 1250   0.010   4.313   7.537 -0.1860  0.7013 -0.6309
   10SAPS   H9R 1251  -0.099   4.318   7.549 -0.0715 -0.0171  0.9289
   10SAPS  C210 1252   0.090   4.381   7.646  0.2310 -0.1006 -0.3077
   10SAPS  H10R 1253   0.176   4.434   7.601  0.2442  2.1089  2.0693
   10SAPS  H10S 1254   0.128   4.316   7.728 -1.4953  1.4089  1.8169
   10SAPS  C211 1255   0.003   4.492   7.705 -0.2498 -0.4143 -0.3459
   10SAPS  H11R 1256  -0.001   4.581   7.641  1.2805 -1.1322 -1.5172
   10SAPS  C212 1257  -0.046   4.497   7.832 -0.9479  0.2816 -0.1885
   10SAPS  H12R 1258  -0.092   4.590   7.868 -0.1086  0.0016  1.7661
   10SAPS  C213 1259  -0.040   4.385   7.940 -0.1202 -0.2798  0.1353
   10SAPS  H13R 1260   0.048   4.321   7.921 -1.5875 -1.7176 -2.3236
   10SAPS  H13S 1261  -0.128   4.318   7.928 -1.3235  1.3524 -0.5975
   10SAPS  C214 1262  -0.034   4.429   8.087  0.0086 -0.6032  0.3800
   10SAPS  H14R 1263  -0.014   4.537   8.095  1.6376 -0.8753  0.3690
   10SAPS  C215 1264  -0.050   4.354   8.197 -0.2091  0.1452  0.3926
   10SAPS  H15R 1265  -0.027   4.396   8.295  1.5000 -0.8774  0.4774
   10SAPS  C216 1266  -0.066   4.201   8.195  0.1588  0.3493 -0.1196
   10SAPS  H16R 1267   0.020   4.158   8.250  2.1526 -1.6583 -4.2804
   10SAPS  H16S 1268  -0.066   4.156   8.093 -1.5982  1.7195 -0.7765
   10SAPS  C217 1269  -0.201   4.185   8.264  0.1336  0.9999  0.6152
   10SAPS  H17R 1270  -0.238   4.083   8.240 -1.6576  1.7921 -0.1471
   10SAPS  H17S 1271  -0.273   4.244   8.203  2.2701 -0.0166 -3.2008
   10SAPS  C218 1272  -0.194   4.209   8.417 -0.9033 -0.4477  0.5568
   10SAPS  H18R 1273  -0.146   4.306   8.443  3.1742 -2.3528  0.8617
   10SAPS  H18S 1274  -0.125   4.135   8.463  0.1651 -0.3746 -0.8649
   10SAPS  C219 1275  -0.326   4.194   8.485 -0.3021  0.3449  0.7502
   10SAPS  H19R 1276  -0.387   4.116   8.434 -2.4296  2.4606 -0.1386
   10SAPS  H19S 1277  -0.396   4.277   8.462 -3.5088 -1.8288  1.8033
   10SAPS  C220 1278  -0.319   4.161   8.637 -0.0380  0.1909 -0.1753
   10SAPS  H20R 1279  -0.273   4.061   8.657  1.8306  1.1494  0.5803
   10SAPS  H20S 1280  -0.418   4.164   8.687 -1.2715  0.1370 -2.4876
   10SAPS  H20T 1281  -0.251   4.236   8.683  0.6265 -1.5009  1.7582
   10SAPS   C33 1282  -0.172   3.923   7.307 -0.3661 -0.0783  0.0149
   10SAPS   H3X 1283  -0.153   3.931   7.416 -4.7585 -0.4649  0.9666
   10SAPS   H3Y 1284  -0.217   3.823   7.289  1.0554 -0.8024  0.2980
   10SAPS   C34 1285  -0.271   4.038   7.273 -0.3172  0.0325  0.0681
   10SAPS   H4X 1286  -0.262   4.046   7.163  0.0764  0.7455  0.1502
   10SAPS   H4Y 1287  -0.235   4.128   7.328  1.6244  1.4294 -3.2209
   10SAPS   C35 1288  -0.419   3.998   7.299  0.0224 -0.3876  0.5551
   10SAPS   H5X 1289  -0.444   3.998   7.408 -1.4909  0.8877  0.2467
   10SAPS   H5Y 1290  -0.432   3.898   7.253  0.5813 -0.1545 -0.1194
   10SAPS   C36 1291  -0.532   4.089   7.235 -0.3791 -0.0256 -0.1452
   10SAPS   H6X 1292  -0.504   4.103   7.128 -0.7891  0.3590 -0.2040
   10SAPS   H6Y 1293  -0.524   4.192   7.277 -1.2514  0.4728 -1.1478
   10SAPS   C37 1294  -0.677   4.047   7.236  0.2010  0.3853 -0.1220
   10SAPS   H7X 1295  -0.694   3.963   7.166 -0.6675 -1.1476  1.8355
   10SAPS   H7Y 1296  -0.746   4.127   7.202 -1.4982  0.1586  2.5410
   10SAPS   C38 1297  -0.724   4.001   7.381  0.1823  0.5050  0.0882
   10SAPS   H8X 1298  -0.704   4.085   7.450 -1.0474  0.3636  0.6459
   10SAPS   H8Y 1299  -0.672   3.908   7.411 -5.5079 -2.4705  2.3027
   10SAPS   C39 1300  -0.881   3.981   7.394 -0.0525  0.4091  0.0416
   10SAPS   H9X 1301  -0.910   3.914   7.310  0.2666 -0.6117  0.7156
   10SAPS   H9Y 1302  -0.931   4.079   7.382  0.9959  0.9824  0.3064
   10SAPS  C310 1303  -0.926   3.921   7.530  0.1303 -0.7874 -0.2400
   10SAPS  H10X 1304  -0.862   3.831   7.542  4.3022  1.9963  0.3229
   10SAPS  H10Y 1305  -1.035   3.897   7.526  0.2147 -1.0077 -1.7303
   10SAPS  C311 1306  -0.894   4.004   7.651 -0.7402 -0.8770  0.3921
   10SAPS  H11X 1307  -0.924   4.110   7.637 -0.2308 -0.9950 -2.0289
   10SAPS  H11Y 1308  -0.784   3.997   7.658 -0.2593  1.7731 -2.3712
   10SAPS  C312 1309  -0.944   3.953   7.780 -0.6985 -0.5715 -0.1322
   10SAPS  H12X 1310  -0.922   3.844   7.778 -0.2081 -0.4981 -3.1400
   10SAPS  H12Y 1311  -1.054   3.965   7.790 -0.4229  0.2480  4.0097
   10SAPS  C313 1312  -0.882   4.037   7.903 -0.2746  0.6854 -0.1983
   10SAPS  H13X 1313  -0.909   4.144   7.895  1.3346  1.1426  0.0567
   10SAPS  H13Y 1314  -0.771   4.026   7.894 -0.3594 -0.8577  0.3592
   10SAPS  C314 1315  -0.928   3.980   8.032 -0.0594 -0.0355 -1.0655
   10SAPS  H14X 1316  -0.883   3.880   8.043  0.6084  0.3605 -0.0739
   10SAPS  H14Y 1317  -1.039   3.974   8.034 -0.0816  0.2966 -1.1570
   10SAPS  C315 1318  -0.884   4.064   8.152 -0.0656 -0.0195  0.0593
   10SAPS  H15X 1319  -0.939   4.024   8.240 -1.2464  0.7437 -0.3213
   10SAPS  H15Y 1320  -0.914   4.171   8.153  1.7205  0.5169 -0.2002
   10SAPS  C316 1321  -0.734   4.040   8.178  0.4979  0.1540  0.3446
   10SAPS  H16X 1322  -0.681   4.080   8.089  0.5840 -0.4463  0.1183
   10SAPS  H16Y 1323  -0.707   3.933   8.190  2.5912  0.6783  0.6455
   10SAPS  C317 1324  -0.681   4.094   8.313 -0.1955  0.0911 -0.6912
   10SAPS  H17X 1325  -0.716   4.195   8.342 -1.0221 -0.8017  1.6210
   10SAPS  H17Y 1326  -0.570   4.093   8.311 -0.1920 -1.5085 -0.8262
   10SAPS  C318 1327  -0.714   3.997   8.428 -0.3925 -0.6654  0.7598
   10SAPS  H18X 1328  -0.666   4.043   8.517 -1.1389  3.1497 -0.5838
   10SAPS  H18Y 1329  -0.673   3.895   8.412 -0.1844 -0.2788 -1.5490
   10SAPS  H18Z 1330  -0.823   3.992   8.450 -0.3272  0.7364  1.5625
   11SAPS     N 1331   2.608   5.484   5.725 -0.2041 -0.2178  0.2928
   11SAPS   HN1 1332   2.619   5.534   5.816 -0.7388 -0.2420  0.3734
   11SAPS   HN2 1333   2.560   5.394   5.741  1.9186 -1.9118 -2.1076
   11SAPS   HN3 1334   2.699   5.453   5.686 -0.6977 -2.1008  0.5515
   11SAPS   C12 1335   2.521   5.551   5.623 -0.3263 -0.1300  0.2049
   11SAPS  H12A 1336   2.557   5.653   5.615 -1.9348  0.4522  0.0146
   11SAPS   C13 1337   2.528   5.491   5.476 -0.0127 -0.0075  1.5557
   11SAPS  O13A 1338   2.628   5.407   5.452  0.2134 -0.4655 -0.2482
   11SAPS  O13B 1339   2.468   5.554   5.385 -0.4301 -0.4406 -0.1746
   11SAPS   C11 1340   2.374   5.561   5.674 -0.2266 -0.6137 -0.3257
   11SAPS  H11A 1341   2.336   5.460   5.700 -1.2565  0.3399  2.2036
   11SAPS  H11B 1342   2.314   5.620   5.601 -0.9438  0.3742  0.9993
   11SAPS     P 1343   2.248   5.689   5.856 -0.0789  0.0608  0.3430
   11SAPS   O13 1344   2.273   5.834   5.875  0.6758  0.6350  0.2376
   11SAPS   O14 1345   2.122   5.650   5.786  0.0437  0.4383 -0.0746
   11SAPS   O12 1346   2.380   5.641   5.792 -0.3139  0.6118 -0.6446
   11SAPS   O11 1347   2.251   5.620   5.994 -0.4285 -0.0797 -0.0738
   11SAPS    C1 1348   2.279   5.482   5.999 -1.0898  0.6031 -0.1061
   11SAPS    HA 1349   2.199   5.415   5.961 -0.5716  0.1965 -0.4947
   11SAPS    HB 1350   2.368   5.452   5.940 -1.7661  0.8109 -1.2555
   11SAPS    C2 1351   2.288   5.447   6.153 -0.1555 -0.6851  0.3669
   11SAPS    HS 1352   2.188   5.468   6.195 -0.3201  2.5625 -1.3652
   11SAPS   O21 1353   2.390   5.518   6.219 -0.3433  0.0837  0.4345
   11SAPS   C21 1354   2.356   5.621   6.301  0.0646  0.7146  0.7350
   11SAPS   O22 1355   2.242   5.637   6.345 -0.4895  0.0729 -0.2648
   11SAPS   C22 1356   2.476   5.708   6.335  0.0578  0.2928 -0.4992
   11SAPS   H2R 1357   2.560   5.638   6.356 -1.0714 -0.7454  0.7627
   11SAPS   H2S 1358   2.496   5.770   6.245  0.6006  1.0467  0.1281
   11SAPS    C3 1359   2.328   5.298   6.157 -0.1615 -0.2483 -0.1146
   11SAPS    HX 1360   2.406   5.286   6.079 -1.1538  0.1916 -1.1921
   11SAPS    HY 1361   2.251   5.236   6.106 -0.2444  2.2400 -3.3063
   11SAPS   O31 1362   2.368   5.257   6.292  0.6968 -0.2282  0.4009
   11SAPS   C31 1363   2.267   5.224   6.365 -0.3041  0.0127 -1.2783
   11SAPS   O32 1364   2.154   5.227   6.331  0.5053  0.3278  0.4650
   11SAPS   C32 1365   2.327   5.182   6.505 -0.3439  0.5341 -0.6406
   11SAPS   H2X 1366   2.425   5.232   6.524 -0.8200  1.4034 -0.4272
   11SAPS   H2Y 1367   2.352   5.076   6.486 -0.5533  0.7827 -2.5569
   11SAPS   C23 1368   2.461   5.789   6.468  0.0456  0.6031  0.5228
   11SAPS   H3R 1369   2.558   5.841   6.486  0.8029  0.1393 -1.9476
   11SAPS   H3S 1370   2.442   5.718   6.551 -0.2210 -0.6054 -0.5394
   11SAPS   C24 1371   2.363   5.899   6.465  0.7516 -0.4677  0.8039
   11SAPS   H4R 1372   2.346   5.944   6.565  0.5830 -0.6919  0.8750
   11SAPS   H4S 1373   2.257   5.876   6.442  0.7740  0.4724 -0.3868
   11SAPS   C25 1374   2.400   6.012   6.371  0.0755  0.0895 -0.0945
   11SAPS   H5R 1375   2.387   5.987   6.265 -0.8664 -0.2803  0.0989
   11SAPS   C26 1376   2.448   6.134   6.407 -0.0368 -0.0636  0.9137
   11SAPS   H6R 1377   2.480   6.202   6.327 -0.1900 -0.4180  0.5512
   11SAPS   C27 1378   2.473   6.182   6.550  1.2885  0.1185 -0.3749
   11SAPS   H7R 1379   2.565   6.242   6.561  1.6490 -0.7005  1.5739
   11SAPS   H7S 1380   2.503   6.090   6.606  1.2738  0.8342  0.8485
   11SAPS   C28 1381   2.361   6.261   6.619 -0.2679  0.2030  0.4046
   11SAPS   H8R 1382   2.341   6.362   6.580  0.6459  2.0624  4.2691
   11SAPS   C29 1383   2.294   6.211   6.728 -0.3019 -0.2957 -0.8001
   11SAPS   H9R 1384   2.213   6.274   6.769  1.6551  0.5140  2.1503
   11SAPS  C210 1385   2.291   6.080   6.805  0.0674 -0.0830 -0.2310
   11SAPS  H10R 1386   2.302   6.103   6.914 -0.3347  1.0616 -0.4176
   11SAPS  H10S 1387   2.386   6.023   6.794  0.6249  0.6899  0.3822
   11SAPS  C211 1388   2.173   5.992   6.768  0.5278  0.3169 -0.3632
   11SAPS  H11R 1389   2.099   6.022   6.693 -0.5112 -0.1196  0.4542
   11SAPS  C212 1390   2.136   5.887   6.852 -0.0130 -0.1422  0.9950
   11SAPS  H12R 1391   2.047   5.833   6.818  0.8257 -0.4931 -0.7894
   11SAPS  C213 1392   2.190   5.827   6.974 -0.1018  0.0504  0.2319
   11SAPS  H13R 1393   2.299   5.812   6.967 -0.1321  0.0845 -0.3591
   11SAPS  H13S 1394   2.145   5.727   6.992  0.6463 -0.4020 -0.3827
   11SAPS  C214 1395   2.162   5.915   7.093  0.1314 -0.4072 -0.3170
   11SAPS  H14R 1396   2.086   5.992   7.071 -0.5207 -1.5069 -2.1614
   11SAPS  C215 1397   2.219   5.920   7.218  0.0218  0.7180 -0.3194
   11SAPS  H15R 1398   2.182   5.999   7.285 -0.4476  0.1649  0.0777
   11SAPS  C216 1399   2.315   5.821   7.273 -0.3646  0.0763 -0.0757
   11SAPS  H16R 1400   2.416   5.867   7.266 -1.1338  1.7836 -0.4530
   11SAPS  H16S 1401   2.317   5.731   7.208  0.6859  0.7089 -0.9566
   11SAPS  C217 1402   2.294   5.783   7.415 -0.6502  0.0797 -0.4561
   11SAPS  H17R 1403   2.381   5.725   7.454  0.8667  3.1301  1.0738
   11SAPS  H17S 1404   2.206   5.719   7.435 -1.6698  1.2366 -1.1518
   11SAPS  C218 1405   2.316   5.901   7.516  0.1731  0.1317 -0.0991
   11SAPS  H18R 1406   2.226   5.966   7.516  0.2610  0.2930  1.3798
   11SAPS  H18S 1407   2.399   5.962   7.475 -0.2964 -0.6966 -2.4711
   11SAPS  C219 1408   2.356   5.865   7.661 -0.0346  0.8798  0.2655
   11SAPS  H19R 1409   2.368   5.955   7.724  0.6394  0.0956  1.2903
   11SAPS  H19S 1410   2.457   5.817   7.657  1.5853  4.0805 -0.5505
   11SAPS  C220 1411   2.261   5.756   7.731  0.9270 -0.4240  0.3423
   11SAPS  H20R 1412   2.278   5.740   7.840  0.5092  0.1341  0.4971
   11SAPS  H20S 1413   2.261   5.655   7.685 -1.6673 -1.1317  1.7202
   11SAPS  H20T 1414   2.153   5.778   7.720 -0.0347 -4.1712  1.1108
   11SAPS   C33 1415   2.226   5.189   6.626 -0.1813  0.0086  0.2594
   11SAPS   H3X 1416   2.270   5.124   6.705  0.5998 -0.7741 -0.8002
   11SAPS   H3Y 1417   2.123   5.159   6.597 -0.7883  1.2917  0.9711
   11SAPS   C34 1418   2.206   5.330   6.677 -0.0624 -0.2067 -0.2072
   11SAPS   H4X 1419   2.097   5.350   6.668  0.2549  0.9146 -2.2057
   11SAPS   H4Y 1420   2.273   5.400   6.622 -0.0219  0.1984  0.3531
   11SAPS   C35 1421   2.265   5.335   6.819  0.5315  0.0374 -0.3850
   11SAPS   H5X 1422   2.373   5.307   6.817  0.9071  1.1007  1.8517
   11SAPS   H5Y 1423   2.216   5.270   6.896 -0.8237  1.8399  0.3372
   11SAPS   C36 1424   2.249   5.470   6.878  0.3781  0.1769 -0.1901
   11SAPS   H6X 1425   2.140   5.490   6.891  0.3407  0.5327 -1.0244
   11SAPS   H6Y 1426   2.284   5.551   6.810 -1.8122  2.3732  1.0848
   11SAPS   C37 1427   2.323   5.481   7.012  0.0403  0.5581 -0.1286
   11SAPS   H7X 1428   2.315   5.586   7.047 -1.4353  0.0905  1.0372
   11SAPS   H7Y 1429   2.431   5.467   6.994  0.2592  0.5514  1.0945
   11SAPS   C38 1430   2.283   5.406   7.139  0.5380  0.8737 -0.1168
   11SAPS   H8X 1431   2.302   5.298   7.120  1.1821  0.7788  1.0016
   11SAPS   H8Y 1432   2.177   5.425   7.168 -0.6455 -1.2831 -2.6280
   11SAPS   C39 1433   2.378   5.436   7.252  0.4431  0.1257  0.8348
   11SAPS   H9X 1434   2.395   5.546   7.253 -3.4756  0.8644  1.5166
   11SAPS   H9Y 1435   2.475   5.386   7.230  0.7237  0.8076  0.4825
   11SAPS  C310 1436   2.329   5.388   7.390  0.3876  0.2275 -0.4528
   11SAPS  H10X 1437   2.310   5.279   7.385 -0.5683  0.0797  3.3582
   11SAPS  H10Y 1438   2.228   5.428   7.415  0.3431 -0.1434 -0.0315
   11SAPS  C311 1439   2.424   5.413   7.507 -0.4448  0.0235 -0.4432
   11SAPS  H11X 1440   2.442   5.523   7.511  0.6656 -0.1618 -0.2174
   11SAPS  H11Y 1441   2.521   5.363   7.485 -0.7756 -1.5164  1.3938
   11SAPS  C312 1442   2.366   5.364   7.637  0.7791  0.0051 -0.5686
   11SAPS  H12X 1443   2.329   5.262   7.615  2.2441 -1.2587  2.2037
   11SAPS  H12Y 1444   2.277   5.424   7.667  0.0154 -0.3595 -2.0362
   11SAPS  C313 1445   2.464   5.349   7.748  0.5890  0.4061  0.2585
   11SAPS  H13X 1446   2.529   5.439   7.744  0.2743  0.5848 -1.3029
   11SAPS  H13Y 1447   2.529   5.258   7.741 -0.0880 -0.5902  4.2783
   11SAPS  C314 1448   2.406   5.330   7.893  0.0506  0.4247  0.2580
   11SAPS  H14X 1449   2.488   5.305   7.965  0.2781 -0.0643 -0.1676
   11SAPS  H14Y 1450   2.329   5.250   7.893 -1.0145  1.4219 -0.1912
   11SAPS  C315 1451   2.339   5.453   7.953  0.6155  0.5947  0.3137
   11SAPS  H15X 1452   2.230   5.432   7.965  0.2566  1.3638 -1.3825
   11SAPS  H15Y 1453   2.339   5.544   7.890  2.2528  1.1759  1.0985
   11SAPS  C316 1454   2.385   5.501   8.093 -0.5669 -0.1956  0.3565
   11SAPS  H16X 1455   2.479   5.559   8.085 -1.5184  1.2753 -0.6986
   11SAPS  H16Y 1456   2.410   5.410   8.151  1.8053  0.7451  0.9373
   11SAPS  C317 1457   2.267   5.587   8.146 -0.7855  0.4351 -0.2767
   11SAPS  H17X 1458   2.182   5.519   8.168 -1.6310  0.8023 -2.2335
   11SAPS  H17Y 1459   2.225   5.652   8.067 -2.7470  0.3951  0.6955
   11SAPS  C318 1460   2.301   5.668   8.269 -0.2678  0.0993  0.5856
   11SAPS  H18X 1461   2.378   5.741   8.238 -0.2446  0.3047  1.1179
   11SAPS  H18Y 1462   2.350   5.601   8.343  2.8969  1.0105 -0.5308
   11SAPS  H18Z 1463   2.215   5.716   8.322 -1.6482 -1.8006  0.1905
   12SAPS     N 1464   2.384   0.379   5.722 -0.0332  0.4854  0.2819
   12SAPS   HN1 1465   2.456   0.448   5.695  0.3207  0.2283  0.5614
   12SAPS   HN2 1466   2.312   0.371   5.647 -0.9272  0.2242  1.1489
   12SAPS   HN3 1467   2.344   0.393   5.817 -1.9861 -1.8944 -0.0862
   12SAPS   C12 1468   2.458   0.244   5.735 -1.2232  0.3001  0.0122
   12SAPS  H12A 1469   2.388   0.162   5.723  0.5662 -1.3654  0.4015
   12SAPS   C13 1470   2.567   0.218   5.635 -0.4725 -0.3673  0.4873
   12SAPS  O13A 1471   2.589   0.310   5.550  0.6296  0.3775 -0.5912
   12SAPS  O13B 1472   2.615   0.100   5.626 -0.4673 -0.3636  0.3748
   12SAPS   C11 1473   2.530   0.243   5.880  0.0862 -0.5208  0.4665
   12SAPS  H11A 1474   2.581   0.145   5.885 -1.3817 -1.2161  3.0350
   12SAPS  H11B 1475   2.447   0.240   5.953 -1.0068 -0.5111 -0.7287
   12SAPS     P 1476   2.601   0.480   5.981  0.0738  0.4082 -0.3070
   12SAPS   O13 1477   2.723   0.560   5.995  0.0319  0.1790 -0.4695
   12SAPS   O14 1478   2.474   0.552   5.955  0.2429 -0.1402  0.1621
   12SAPS   O12 1479   2.622   0.355   5.887 -0.5938  0.2397 -0.0241
   12SAPS   O11 1480   2.587   0.423   6.120 -0.2100 -0.4860 -0.4831
   12SAPS    C1 1481   2.670   0.320   6.172 -0.3147  0.0543  0.1666
   12SAPS    HA 1482   2.628   0.222   6.142 -1.7344  1.1107 -1.4140
   12SAPS    HB 1483   2.769   0.322   6.121 -0.8913  0.4377 -0.9706
   12SAPS    C2 1484   2.690   0.330   6.326 -0.2798 -0.0525 -0.2855
   12SAPS    HS 1485   2.771   0.259   6.353 -1.4548 -1.0382  0.8189
   12SAPS   O21 1486   2.569   0.284   6.394 -0.2792 -0.4732  0.5065
   12SAPS   C21 1487   2.564   0.156   6.422 -0.0390 -0.5411 -0.2386
   12SAPS   O22 1488   2.649   0.078   6.383 -0.7432  0.3847 -0.7025
   12SAPS   C22 1489   2.443   0.123   6.513 -0.0933  0.1971  0.3033
   12SAPS   H2R 1490   2.464   0.179   6.607 -0.0894  0.6013  0.0603
   12SAPS   H2S 1491   2.347   0.158   6.470 -1.6636 -2.8430  1.0078
   12SAPS    C3 1492   2.725   0.476   6.379 -0.6432  0.3300  0.6790
   12SAPS    HX 1493   2.648   0.552   6.354  0.0483  1.4492  1.8677
   12SAPS    HY 1494   2.818   0.492   6.321  0.4684  1.4032  2.6363
   12SAPS   O31 1495   2.764   0.486   6.522  0.7453 -0.3289  0.1854
   12SAPS   C31 1496   2.659   0.510   6.600  0.7851  0.9250  0.1137
   12SAPS   O32 1497   2.557   0.566   6.561  0.2255 -0.0303  0.8304
   12SAPS   C32 1498   2.686   0.457   6.735 -0.9540  0.1317  0.8667
   12SAPS   H2X 1499   2.782   0.496   6.775 -1.0952  0.2148  1.1244
   12SAPS   H2Y 1500   2.697   0.346   6.730 -1.3804 -0.0194  2.7869
   12SAPS   C23 1501   2.437  -0.026   6.544  0.2718 -0.0088 -0.2564
   12SAPS   H3R 1502   2.441  -0.071   6.443 -1.8769  1.7746 -1.2073
   12SAPS   H3S 1503   2.331  -0.042   6.573 -0.5902 -2.6453 -4.0801
   12SAPS   C24 1504   2.547  -0.078   6.641  0.2101 -0.4499  0.5998
   12SAPS   H4R 1505   2.528  -0.043   6.744  2.3620  0.9394  0.5814
   12SAPS   H4S 1506   2.651  -0.046   6.620 -0.0367 -0.4382 -0.7125
   12SAPS   C25 1507   2.542  -0.230   6.644  0.1751  0.1891 -0.5448
   12SAPS   H5R 1508   2.510  -0.278   6.550 -0.7152  0.6555 -0.4957
   12SAPS   C26 1509   2.575  -0.310   6.746  0.7569  0.7708 -0.1854
   12SAPS   H6R 1510   2.577  -0.418   6.728 -0.9397  0.6512  0.1023
   12SAPS   C27 1511   2.612  -0.269   6.888 -0.2801 -0.2329 -0.4775
   12SAPS   H7R 1512   2.618  -0.158   6.896  0.8764 -0.4145  2.3438
   12SAPS   H7S 1513   2.713  -0.311   6.909 -0.0887  0.4725  0.0867
   12SAPS   C28 1514   2.514  -0.317   6.996 -0.7163 -0.3600 -0.9595
   12SAPS   H8R 1515   2.475  -0.415   6.964 -0.0012 -0.7966 -0.5356
   12SAPS   C29 1516   2.486  -0.261   7.116 -0.1883  0.7558  0.1980
   12SAPS   H9R 1517   2.412  -0.320   7.171  1.6580 -1.2844  0.6113
   12SAPS  C210 1518   2.545  -0.140   7.176  0.1749  0.4837 -0.5664
   12SAPS  H10R 1519   2.472  -0.116   7.256  1.8211  2.3945  0.4202
   12SAPS  H10S 1520   2.548  -0.057   7.102 -0.5890 -0.2417 -1.4439
   12SAPS  C211 1521   2.679  -0.162   7.240 -0.2298 -0.9824  0.2100
   12SAPS  H11R 1522   2.741  -0.239   7.192  0.6526 -0.7528  0.9686
   12SAPS  C212 1523   2.724  -0.098   7.352 -0.3930 -0.0265  0.8959
   12SAPS  H12R 1524   2.815  -0.143   7.393  0.3545  2.7840  2.6229
   12SAPS  C213 1525   2.647   0.007   7.432 -0.6118  0.1919 -0.4984
   12SAPS  H13R 1526   2.539  -0.012   7.417 -0.4844 -1.0334  0.0079
   12SAPS  H13S 1527   2.677   0.102   7.384 -2.2831  1.0064  0.0166
   12SAPS  C214 1528   2.673  -0.010   7.583 -0.2269 -0.3454 -0.3366
   12SAPS  H14R 1529   2.778  -0.012   7.614 -0.3437 -0.3299  0.0684
   12SAPS  C215 1530   2.578  -0.037   7.673 -0.3097 -0.4028  0.3529
   12SAPS  H15R 1531   2.604  -0.030   7.780 -1.2156 -1.0130  0.6265
   12SAPS  C216 1532   2.430  -0.052   7.655  0.5481 -0.4625 -0.4793
   12SAPS  H16R 1533   2.396  -0.158   7.665 -1.4272 -0.0970 -2.3908
   12SAPS  H16S 1534   2.386  -0.015   7.560  1.0442  0.8916 -0.1939
   12SAPS  C217 1535   2.352   0.043   7.749  0.1218  0.5415 -0.3147
   12SAPS  H17R 1536   2.375   0.150   7.727 -0.0275  0.5986 -0.1950
   12SAPS  H17S 1537   2.369   0.036   7.858  0.2757 -0.9570 -0.4257
   12SAPS  C218 1538   2.198   0.028   7.732  0.1425  0.7546 -0.2667
   12SAPS  H18R 1539   2.168  -0.059   7.794  2.4837  1.1862  1.6369
   12SAPS  H18S 1540   2.186  -0.003   7.626  0.4098  1.4375 -0.5025
   12SAPS  C219 1541   2.115   0.146   7.762 -0.1311 -0.0209 -0.0998
   12SAPS  H19R 1542   2.170   0.235   7.726 -0.3744 -1.0340 -3.3415
   12SAPS  H19S 1543   2.103   0.149   7.872 -0.4396  1.5822 -0.1618
   12SAPS  C220 1544   1.971   0.149   7.701 -0.3581  0.1418  0.5661
   12SAPS  H20R 1545   1.903   0.220   7.752 -0.3681  1.1698 -0.8245
   12SAPS  H20S 1546   1.917   0.052   7.709  0.1011 -0.1607  0.0767
   12SAPS  H20T 1547   1.967   0.186   7.596 -0.1483  2.5659  1.3650
   12SAPS   C33 1548   2.571   0.481   6.835 -0.3592 -0.0314  0.1311
   12SAPS   H3X 1549   2.474   0.465   6.785 -0.4769 -2.4817  0.9968
   12SAPS   H3Y 1550   2.580   0.586   6.871 -0.9513 -0.0274  0.2748
   12SAPS   C34 1551   2.571   0.384   6.955  0.5466 -0.8784  0.4741
   12SAPS   H4X 1552   2.663   0.399   7.017  0.9015  1.6395 -0.5467
   12SAPS   H4Y 1553   2.578   0.284   6.908 -3.0841 -1.0143 -0.0356
   12SAPS   C35 1554   2.437   0.387   7.037  0.2038  0.1179 -0.4798
   12SAPS   H5X 1555   2.353   0.411   6.969  1.4155 -3.1731 -3.4501
   12SAPS   H5Y 1556   2.448   0.479   7.097  0.1543  0.8328 -1.5467
   12SAPS   C36 1557   2.418   0.260   7.117 -0.4953  0.7540  0.0874
   12SAPS   H6X 1558   2.514   0.263   7.173 -1.1403  3.0896  1.1860
   12SAPS   H6Y 1559   2.423   0.175   7.046 -0.0844  0.2687  0.6877
   12SAPS   C37 1560   2.314   0.258   7.232  0.2485 -0.8204  0.5704
   12SAPS   H7X 1561   2.324   0.165   7.291 -2.1813 -2.6660 -1.6977
   12SAPS   H7Y 1562   2.214   0.252   7.184  0.0243 -1.1203  1.0602
   12SAPS   C38 1563   2.309   0.382   7.323  0.4668  0.3791 -0.3873
   12SAPS   H8X 1564   2.208   0.389   7.369  0.3029 -2.1026 -0.2660
   12SAPS   H8Y 1565   2.322   0.478   7.268 -0.3012  0.1001 -1.0704
   12SAPS   C39 1566   2.414   0.363   7.438 -0.0144 -0.0347  0.0198
   12SAPS   H9X 1567   2.512   0.382   7.388  0.2793 -0.8727  0.2628
   12SAPS   H9Y 1568   2.408   0.257   7.471 -1.1024 -0.7870 -2.3733
   12SAPS  C310 1569   2.390   0.462   7.555  0.1275  0.5620  0.2705
   12SAPS  H10X 1570   2.280   0.474   7.564  0.2679  2.2319  0.0293
   12SAPS  H10Y 1571   2.420   0.562   7.517  1.5604 -1.0687 -3.3412
   12SAPS  C311 1572   2.480   0.447   7.676 -0.3274  0.2392 -0.2230
   12SAPS  H11X 1573   2.585   0.452   7.639 -0.7710 -0.6791 -1.7088
   12SAPS  H11Y 1574   2.467   0.346   7.720  0.2193 -0.0569 -0.7389
   12SAPS  C312 1575   2.468   0.560   7.791 -0.1003  0.0737  0.3441
   12SAPS  H12X 1576   2.369   0.569   7.841 -0.3826 -0.3710 -0.1204
   12SAPS  H12Y 1577   2.480   0.652   7.731  1.9436 -0.8011 -0.7105
   12SAPS  C313 1578   2.569   0.548   7.905  0.2390  0.0941  0.2471
   12SAPS  H13X 1579   2.669   0.548   7.855 -0.1122 -0.6480 -0.4849
   12SAPS  H13Y 1580   2.564   0.456   7.968  1.3164  0.6575  1.1984
   12SAPS  C314 1581   2.568   0.666   8.011  0.8997 -0.5730 -0.7506
   12SAPS  H14X 1582   2.614   0.633   8.106 -0.2062 -1.6691 -0.5610
   12SAPS  H14Y 1583   2.458   0.674   8.024  0.5840 -2.2417 -1.9389
   12SAPS  C315 1584   2.622   0.797   7.964  0.1336  0.3090 -0.2012
   12SAPS  H15X 1585   2.574   0.836   7.872  1.8741  2.9635 -0.0729
   12SAPS  H15Y 1586   2.730   0.788   7.942  0.3765 -1.1483  1.4169
   12SAPS  C316 1587   2.623   0.903   8.081  0.1123 -0.4280 -0.3469
   12SAPS  H16X 1588   2.676   0.860   8.169  1.4285 -0.4392 -1.1217
   12SAPS  H16Y 1589   2.519   0.910   8.119 -0.7716 -1.0671 -2.4889
   12SAPS  C317 1590   2.679   1.037   8.036  0.1551 -0.2324  0.1441
   12SAPS  H17X 1591   2.606   1.078   7.962 -1.9209 -0.5088  1.9251
   12SAPS  H17Y 1592   2.774   1.031   7.979  0.2403  2.3577 -0.1096
   12SAPS  C318 1593   2.710   1.125   8.159 -0.0528 -0.4259 -0.1902
   12SAPS  H18X 1594   2.628   1.117   8.233 -0.1345 -0.4642 -0.2836
   12SAPS  H18Y 1595   2.724   1.232   8.133  0.5073 -0.3355  0.4462
   12SAPS  H18Z 1596   2.804   1.083   8.202  0.4904  0.9957  0.0397
   13SAPS     N 1597   3.387   3.797   6.049 -0.0003  0.3583 -0.2472
   13SAPS   HN1 1598   3.473   3.790   6.107 -0.1770  1.0041  0.1032
   13SAPS   HN2 1599   3.415   3.784   5.950 -0.2001 -2.0488 -0.0607
   13SAPS   HN3 1600   3.334   3.886   6.056 -1.1181 -0.2166 -1.0582
   13SAPS   C12 1601   3.306   3.680   6.076  0.9995  0.1119  0.0144
   13SAPS  H12A 1602   3.246   3.672   5.987  0.3754  2.4813  0.1491
   13SAPS   C13 1603   3.378   3.546   6.085  0.2865 -0.8001  0.6116
   13SAPS  O13A 1604   3.500   3.538   6.057  0.0397 -0.7087 -0.1669
   13SAPS  O13B 1605   3.307   3.446   6.103  0.4214 -0.3128  0.4225
   13SAPS   C11 1606   3.215   3.704   6.201  0.2158  0.4282  0.0963
   13SAPS  H11A 1607   3.281   3.701   6.290 -0.9208  6.1724  1.5282
   13SAPS  H11B 1608   3.142   3.621   6.208  0.5538  0.0499 -0.7316
   13SAPS     P 1609   2.988   3.825   6.146 -0.2662 -0.0013  0.4917
   13SAPS   O13 1610   2.930   3.949   6.198 -0.1290  0.1042 -0.0545
   13SAPS   O14 1611   2.986   3.804   6.004  0.3180 -0.0161 -0.0187
   13SAPS   O12 1612   3.139   3.829   6.203 -0.4640  0.2081  0.7969
   13SAPS   O11 1613   2.918   3.708   6.216 -0.3359 -0.2852  0.1438
   13SAPS    C1 1614   2.866   3.724   6.348  0.4036  0.5053  0.0423
   13SAPS    HA 1615   2.825   3.825   6.371  0.0118  0.1066  1.2064
   13SAPS    HB 1616   2.797   3.639   6.369  1.2765  0.1535  1.7281
   13SAPS    C2 1617   2.973   3.703   6.466 -1.0597  0.0152  0.7654
   13SAPS    HS 1618   3.042   3.789   6.460 -0.8167 -0.2320 -0.2971
   13SAPS   O21 1619   3.027   3.574   6.443 -0.7666  0.6042  0.0912
   13SAPS   C21 1620   3.154   3.563   6.487 -0.1370 -0.7251 -0.2570
   13SAPS   O22 1621   3.221   3.652   6.539 -0.0477 -0.2342  0.0887
   13SAPS   C22 1622   3.213   3.429   6.450 -0.3878  0.3483 -0.2857
   13SAPS   H2R 1623   3.152   3.378   6.373  3.5198 -1.4737 -2.4341
   13SAPS   H2S 1624   3.307   3.457   6.398 -1.1135  1.1143 -1.2506
   13SAPS    C3 1625   2.906   3.703   6.608  0.0181  0.2316  0.1462
   13SAPS    HX 1626   2.983   3.677   6.684  1.4946 -0.2014 -1.4300
   13SAPS    HY 1627   2.830   3.623   6.598  0.6409 -0.2414 -1.0646
   13SAPS   O31 1628   2.833   3.825   6.641  0.0512 -0.2234 -0.0407
   13SAPS   C31 1629   2.911   3.927   6.675 -0.0239  0.3236 -0.2617
   13SAPS   O32 1630   3.037   3.918   6.673  0.2407  0.1550 -0.4425
   13SAPS   C32 1631   2.821   4.042   6.724 -0.4230 -0.4068  0.1764
   13SAPS   H2X 1632   2.725   3.996   6.757  0.1507 -1.5279  0.3321
   13SAPS   H2Y 1633   2.810   4.115   6.641 -0.3966  0.6100  1.0450
   13SAPS   C23 1634   3.231   3.338   6.574 -0.1587  0.5389  0.3394
   13SAPS   H3R 1635   3.289   3.401   6.645  1.5055  0.3792 -0.8012
   13SAPS   H3S 1636   3.304   3.255   6.556  0.6686  1.1459  0.8226
   13SAPS   C24 1637   3.105   3.272   6.635 -0.5257  0.4268  0.2492
   13SAPS   H4R 1638   3.083   3.186   6.568 -0.1768  1.2263 -0.9027
   13SAPS   H4S 1639   3.018   3.340   6.625 -1.6516 -1.2752 -3.1107
   13SAPS   C25 1640   3.122   3.229   6.778  0.0959  0.3780  0.0767
   13SAPS   H5R 1641   3.167   3.130   6.793 -1.2877 -0.1532  0.8192
   13SAPS   C26 1642   3.096   3.296   6.893  0.0414 -0.2142 -0.1322
   13SAPS   H6R 1643   3.120   3.252   6.991 -2.2653 -0.5458  0.3419
   13SAPS   C27 1644   3.038   3.438   6.900  0.1291  0.1874  0.1558
   13SAPS   H7R 1645   2.945   3.447   6.959  0.1981 -1.1458  0.5040
   13SAPS   H7S 1646   2.985   3.451   6.803  0.2845 -2.1420 -0.3054
   13SAPS   C28 1647   3.153   3.542   6.926 -0.0527 -0.3642  1.2163
   13SAPS   H8R 1648   3.214   3.570   6.839 -3.1754  1.1850 -0.6728
   13SAPS   C29 1649   3.179   3.594   7.040  0.0645  0.3273 -0.0150
   13SAPS   H9R 1650   3.264   3.662   7.049  0.7920 -0.7149  1.5669
   13SAPS  C210 1651   3.110   3.560   7.168  0.0732  0.6963 -0.6084
   13SAPS  H10R 1652   3.131   3.453   7.188  2.6037  1.1220 -0.6874
   13SAPS  H10S 1653   3.002   3.579   7.152  0.0568 -1.2313 -3.4778
   13SAPS  C211 1654   3.170   3.639   7.289  0.4075  0.0737  0.3663
   13SAPS  H11R 1655   3.270   3.684   7.275  0.1454  0.0626 -1.8319
   13SAPS  C212 1656   3.112   3.644   7.410 -0.2756 -0.1319 -0.1384
   13SAPS  H12R 1657   3.175   3.700   7.480  0.6722 -1.3255 -0.0068
   13SAPS  C213 1658   2.981   3.591   7.460  0.4258 -0.1759  0.5835
   13SAPS  H13R 1659   2.909   3.590   7.375  0.0000 -3.0037  0.8859
   13SAPS  H13S 1660   2.954   3.651   7.549  1.3510 -0.4387  1.0546
   13SAPS  C214 1661   2.966   3.441   7.484 -0.6349  0.1931  0.1944
   13SAPS  H14R 1662   2.996   3.385   7.395 -2.0009  0.8718 -0.7437
   13SAPS  C215 1663   2.913   3.372   7.589 -0.3211  0.2035 -0.9160
   13SAPS  H15R 1664   2.926   3.263   7.590  0.0844  0.1655  2.3543
   13SAPS  C216 1665   2.867   3.431   7.723  0.3232 -0.1314  0.6053
   13SAPS  H16R 1666   2.760   3.418   7.752  1.2870 -1.4158  4.1465
   13SAPS  H16S 1667   2.875   3.542   7.722  1.3438 -0.1757  1.5877
   13SAPS  C217 1668   2.949   3.373   7.841  0.1491 -0.0751  0.1769
   13SAPS  H17R 1669   3.051   3.417   7.846 -0.6776  1.8713  1.0433
   13SAPS  H17S 1670   2.963   3.263   7.849 -1.4959 -0.2981  0.1824
   13SAPS  C218 1671   2.884   3.416   7.976  0.1195 -0.1670 -0.0416
   13SAPS  H18R 1672   2.919   3.356   8.062 -0.8231  0.0489  0.5059
   13SAPS  H18S 1673   2.775   3.392   7.975 -0.2896  1.5624  0.1497
   13SAPS  C219 1674   2.892   3.565   8.024 -0.3244 -0.1407  0.2894
   13SAPS  H19R 1675   2.832   3.624   7.951  1.1080 -0.9796 -1.6400
   13SAPS  H19S 1676   2.997   3.600   8.011 -1.4642  3.8313  0.5732
   13SAPS  C220 1677   2.843   3.596   8.166  0.6856  0.3442 -0.3787
   13SAPS  H20R 1678   2.904   3.549   8.246  0.3962 -1.4473 -1.1530
   13SAPS  H20S 1679   2.743   3.549   8.176 -0.2449  2.6420  2.5711
   13SAPS  H20T 1680   2.831   3.705   8.180  0.0408  0.1902  0.3255
   13SAPS   C33 1681   2.905   4.109   6.840  0.4657 -0.4569 -0.6600
   13SAPS   H3X 1682   2.842   4.188   6.886  1.1842 -0.9569  1.2817
   13SAPS   H3Y 1683   3.008   4.147   6.821 -0.3677  1.5343 -1.4071
   13SAPS   C34 1684   2.935   4.013   6.958 -0.3344 -0.6748 -1.1251
   13SAPS   H4X 1685   3.016   3.939   6.940  0.5826  0.2363 -0.8213
   13SAPS   H4Y 1686   2.837   3.964   6.978 -0.6022  0.1594 -0.3573
   13SAPS   C35 1687   2.973   4.089   7.083  1.0190  0.7773 -0.1727
   13SAPS   H5X 1688   2.894   4.167   7.086  1.5389  1.4329 -1.9259
   13SAPS   H5Y 1689   3.069   4.136   7.052  1.1308  0.6792  0.0292
   13SAPS   C36 1690   2.987   4.004   7.212  0.2165  0.2310  0.0316
   13SAPS   H6X 1691   3.046   4.056   7.290 -0.2499  2.7890 -1.2195
   13SAPS   H6Y 1692   3.022   3.900   7.198  1.1731 -0.0563  3.7727
   13SAPS   C37 1693   2.854   3.989   7.282  0.6905  0.2650  0.2249
   13SAPS   H7X 1694   2.791   3.916   7.227  0.9238  0.2605 -0.0389
   13SAPS   H7Y 1695   2.806   4.089   7.291  3.9960  2.0323 -0.1127
   13SAPS   C38 1696   2.873   3.949   7.430  0.3676 -0.1270 -0.3407
   13SAPS   H8X 1697   2.940   4.022   7.480  1.4275 -1.6402  0.5675
   13SAPS   H8Y 1698   2.920   3.850   7.449  0.2296 -0.2270 -0.5157
   13SAPS   C39 1699   2.735   3.941   7.501  0.0953  0.0180  0.9666
   13SAPS   H9X 1700   2.672   3.879   7.434  1.0036 -0.1730  0.2702
   13SAPS   H9Y 1701   2.692   4.043   7.505  0.2769  0.0715  1.6395
   13SAPS  C310 1702   2.743   3.876   7.638 -0.3306  0.4048 -0.5148
   13SAPS  H10X 1703   2.830   3.910   7.698  0.8703 -1.4567 -1.0907
   13SAPS  H10Y 1704   2.766   3.767   7.643 -0.1497  0.4287 -0.8207
   13SAPS  C311 1705   2.615   3.899   7.723 -0.5575 -0.5986 -0.6807
   13SAPS  H11X 1706   2.525   3.862   7.670 -2.7408 -0.8166  2.8577
   13SAPS  H11Y 1707   2.609   4.009   7.739  4.0799 -0.1318 -0.6950
   13SAPS  C312 1708   2.622   3.825   7.855 -0.3637  0.5544 -0.2153
   13SAPS  H12X 1709   2.711   3.871   7.903  1.3444 -1.6949 -1.0429
   13SAPS  H12Y 1710   2.643   3.717   7.840  3.5580  0.5638  3.4278
   13SAPS  C313 1711   2.496   3.833   7.936  0.5313 -0.0057 -0.4799
   13SAPS  H13X 1712   2.414   3.785   7.878 -0.2476 -0.1393  0.6915
   13SAPS  H13Y 1713   2.463   3.939   7.945 -1.5589 -0.6749  0.3885
   13SAPS  C314 1714   2.519   3.788   8.085 -0.0872  0.5910 -0.2250
   13SAPS  H14X 1715   2.607   3.846   8.120  0.4422 -0.5000  0.2898
   13SAPS  H14Y 1716   2.557   3.686   8.106 -0.7953  0.3927  0.1108
   13SAPS  C315 1717   2.399   3.794   8.173  0.5415 -0.0858 -0.1055
   13SAPS  H15X 1718   2.381   3.902   8.191 -0.3641 -0.4758  1.5044
   13SAPS  H15Y 1719   2.421   3.747   8.271 -1.1967 -0.3411  0.1829
   13SAPS  C316 1720   2.270   3.727   8.112 -0.5373  0.6723 -0.1922
   13SAPS  H16X 1721   2.279   3.616   8.119 -1.9828  0.6471  2.8281
   13SAPS  H16Y 1722   2.247   3.762   8.009  0.2785 -1.9532 -1.3778
   13SAPS  C317 1723   2.139   3.769   8.183 -0.0873 -0.1418 -0.6480
   13SAPS  H17X 1724   2.132   3.879   8.166 -0.8117  0.1435  1.2301
   13SAPS  H17Y 1725   2.143   3.743   8.291 -1.0855 -0.6241 -0.7128
   13SAPS  C318 1726   2.020   3.699   8.118 -0.2353  0.9396  0.4596
   13SAPS  H18X 1727   2.023   3.731   8.011  0.7612  1.3311  0.5833
   13SAPS  H18Y 1728   1.926   3.724   8.170 -0.8611 -2.6230  1.2931
   13SAPS  H18Z 1729   2.032   3.589   8.126  0.2514  0.9813  0.3597
   14SAPS     N 1730   1.197   6.625   5.773  0.1370 -0.0878  0.6448
   14SAPS   HN1 1731   1.167   6.604   5.871 -0.4671 -1.0683  0.2670
   14SAPS   HN2 1732   1.234   6.720   5.756  1.5103 -0.7163 -0.0928
   14SAPS   HN3 1733   1.116   6.600   5.712  3.5664  0.3034 -4.6933
   14SAPS   C12 1734   1.310   6.540   5.728 -0.0997  0.2817  0.1669
   14SAPS  H12A 1735   1.357   6.497   5.815  0.7897 -0.0164 -0.4494
   14SAPS   C13 1736   1.260   6.420   5.647 -0.0550  0.6574  0.1103
   14SAPS  O13A 1737   1.136   6.398   5.628 -0.2270  0.5977 -0.2877
   14SAPS  O13B 1738   1.344   6.341   5.596 -0.5009 -0.0717  0.6307
   14SAPS   C11 1739   1.416   6.633   5.659 -0.3664  0.1567 -0.5992
   14SAPS  H11A 1740   1.364   6.683   5.575 -2.6952 -2.2529 -0.7449
   14SAPS  H11B 1741   1.490   6.566   5.611 -1.2437 -2.6515  1.6673
   14SAPS     P 1742   1.610   6.744   5.808  0.5497  0.4658  0.2559
   14SAPS   O13 1743   1.712   6.703   5.707  0.3283  0.0761 -0.1054
   14SAPS   O14 1744   1.624   6.884   5.852  0.0908 -0.1950 -0.2922
   14SAPS   O12 1745   1.467   6.729   5.753  0.6078 -0.0488  0.2576
   14SAPS   O11 1746   1.603   6.654   5.931 -0.1616  0.2974 -0.0414
   14SAPS    C1 1747   1.508   6.667   6.031  0.3498  0.1164  0.1332
   14SAPS    HA 1748   1.409   6.698   5.991  0.1444 -1.2597 -0.4805
   14SAPS    HB 1749   1.487   6.567   6.075 -1.2927  0.3516 -0.0307
   14SAPS    C2 1750   1.552   6.765   6.146  1.0233  0.2984 -0.2822
   14SAPS    HS 1751   1.521   6.869   6.123  0.5303  0.3571  0.5757
   14SAPS   O21 1752   1.691   6.741   6.160  0.2699  0.2975 -0.1647
   14SAPS   C21 1753   1.755   6.842   6.215  0.5141  0.3855 -0.5972
   14SAPS   O22 1754   1.721   6.959   6.216 -0.0841  0.1172 -0.2022
   14SAPS   C22 1755   1.888   6.801   6.275  0.9299 -0.4103  0.0042
   14SAPS   H2R 1756   1.896   6.692   6.251  1.1079  0.0203 -2.1639
   14SAPS   H2S 1757   1.956   6.850   6.202  1.2129 -1.7459 -0.6758
   14SAPS    C3 1758   1.488   6.728   6.282 -0.5393 -1.0715 -0.6934
   14SAPS    HX 1759   1.540   6.633   6.307  0.5069 -0.5331 -0.7689
   14SAPS    HY 1760   1.380   6.704   6.274 -0.8158 -0.3568  0.6482
   14SAPS   O31 1761   1.522   6.817   6.393  0.2559  0.5235  0.2401
   14SAPS   C31 1762   1.420   6.863   6.467  0.0396 -0.4429 -0.3383
   14SAPS   O32 1763   1.303   6.846   6.450  0.9932  0.4683  0.1426
   14SAPS   C32 1764   1.488   6.925   6.591 -0.4931 -0.2847  0.3634
   14SAPS   H2X 1765   1.506   7.034   6.578 -0.6846  0.2482  3.5706
   14SAPS   H2Y 1766   1.590   6.883   6.602  0.2858  1.5060  0.4387
   14SAPS   C23 1767   1.921   6.832   6.418 -0.9967  0.7451  0.4849
   14SAPS   H3R 1768   1.857   6.782   6.493  0.3134 -2.5452 -0.3977
   14SAPS   H3S 1769   1.903   6.942   6.426 -0.7229  1.1729 -3.2559
   14SAPS   C24 1770   2.070   6.815   6.456  0.2269 -0.1754  0.2200
   14SAPS   H4R 1771   2.085   6.872   6.551  1.2946 -1.9903  1.1932
   14SAPS   H4S 1772   2.129   6.863   6.375 -0.2974  0.0475 -0.0284
   14SAPS   C25 1773   2.108   6.669   6.476 -0.4770  0.1256 -0.0191
   14SAPS   H5R 1774   2.156   6.618   6.391  0.4628 -1.6317  1.5010
   14SAPS   C26 1775   2.090   6.594   6.587 -0.4877  0.3453  0.9306
   14SAPS   H6R 1776   2.130   6.492   6.576  2.9322  1.5349  1.2004
   14SAPS   C27 1777   2.031   6.630   6.718  0.0767 -0.0107  0.5114
   14SAPS   H7R 1778   1.979   6.546   6.769 -0.2793  0.0602  0.2606
   14SAPS   H7S 1779   1.955   6.707   6.696 -0.4971 -0.6244  0.3291
   14SAPS   C28 1780   2.143   6.678   6.808 -0.2432  0.0549 -0.3344
   14SAPS   H8R 1781   2.194   6.767   6.767 -0.8896  1.2818  1.3969
   14SAPS   C29 1782   2.160   6.641   6.933 -0.2070 -0.5879 -0.5301
   14SAPS   H9R 1783   2.254   6.670   6.983 -0.7777 -1.9456  1.4419
   14SAPS  C210 1784   2.078   6.554   7.016  1.1970  0.0586 -0.0172
   14SAPS  H10R 1785   1.979   6.541   6.967  2.2829  0.3578 -2.3968
   14SAPS  H10S 1786   2.052   6.612   7.108 -0.3305  0.8603 -0.9022
   14SAPS  C211 1787   2.132   6.416   7.040  1.0148 -0.4185  0.3145
   14SAPS  H11R 1788   2.188   6.377   6.954  0.6477  0.1597 -0.1919
   14SAPS  C212 1789   2.138   6.353   7.156 -0.4179  0.1176  0.1511
   14SAPS  H12R 1790   2.175   6.250   7.161  0.0210  0.2802  0.2798
   14SAPS  C213 1791   2.081   6.399   7.285 -0.1931  0.0225  0.9443
   14SAPS  H13R 1792   1.990   6.461   7.278 -0.3265 -0.3908 -2.4128
   14SAPS  H13S 1793   2.160   6.462   7.332  2.1286 -1.9568 -0.0438
   14SAPS  C214 1794   2.040   6.296   7.388 -0.2741  1.0227 -0.1229
   14SAPS  H14R 1795   1.935   6.269   7.372  0.4966 -1.2391 -1.8628
   14SAPS  C215 1796   2.121   6.248   7.491  0.1449 -0.1862  0.4165
   14SAPS  H15R 1797   2.085   6.178   7.567 -0.1281 -0.5838 -0.0703
   14SAPS  C216 1798   2.264   6.286   7.513 -0.6254 -0.2416 -0.9574
   14SAPS  H16R 1799   2.309   6.327   7.420 -2.1622 -0.8836 -2.0304
   14SAPS  H16S 1800   2.321   6.202   7.558 -2.1444 -0.3314  0.9607
   14SAPS  C217 1801   2.292   6.393   7.630  0.3396  0.3970 -0.5659
   14SAPS  H17R 1802   2.271   6.495   7.592  2.5489  1.9955  2.1002
   14SAPS  H17S 1803   2.402   6.391   7.642  0.2009  1.4279  1.1268
   14SAPS  C218 1804   2.219   6.351   7.758  0.8392 -0.0611  0.2260
   14SAPS  H18R 1805   2.246   6.246   7.782  0.1694 -0.4950 -0.8192
   14SAPS  H18S 1806   2.109   6.351   7.745  0.9885 -1.4391 -1.2940
   14SAPS  C219 1807   2.260   6.429   7.882  0.2071  0.0834  0.0275
   14SAPS  H19R 1808   2.186   6.399   7.959 -2.5602  1.7262 -1.7737
   14SAPS  H19S 1809   2.247   6.533   7.845  0.1956 -0.1127 -0.5407
   14SAPS  C220 1810   2.403   6.405   7.927 -0.6988  0.4242 -0.8408
   14SAPS  H20R 1811   2.434   6.474   8.008 -0.3634  0.5783 -1.0986
   14SAPS  H20S 1812   2.473   6.402   7.841 -1.2582 -1.9911 -1.2694
   14SAPS  H20T 1813   2.404   6.301   7.965  0.1407  1.1163  1.1828
   14SAPS   C33 1814   1.412   6.895   6.722  0.0670  0.0757  0.3635
   14SAPS   H3X 1815   1.391   6.786   6.716  2.2691 -0.3127 -2.1873
   14SAPS   H3Y 1816   1.315   6.949   6.717  0.4903  1.0929  2.2636
   14SAPS   C34 1817   1.485   6.931   6.849 -0.4658 -0.0831 -0.4984
   14SAPS   H4X 1818   1.468   7.040   6.854  0.6199  0.0993 -0.6467
   14SAPS   H4Y 1819   1.595   6.926   6.841 -0.3424  0.0414  0.7839
   14SAPS   C35 1820   1.449   6.858   6.981  0.6220  1.1496 -0.1742
   14SAPS   H5X 1821   1.459   6.748   6.970  1.1507  1.2026 -0.2977
   14SAPS   H5Y 1822   1.342   6.880   6.997  0.3548  0.4312 -0.9058
   14SAPS   C36 1823   1.530   6.907   7.105  0.7800  0.1866  0.5621
   14SAPS   H6X 1824   1.629   6.859   7.087 -0.6197 -3.1619  1.0285
   14SAPS   H6Y 1825   1.470   6.857   7.184  1.4448 -1.4468  0.0765
   14SAPS   C37 1826   1.521   7.061   7.118  0.5039  0.3207 -0.2713
   14SAPS   H7X 1827   1.419   7.105   7.118  0.3994  0.2062  2.1713
   14SAPS   H7Y 1828   1.586   7.097   7.036 -0.6207  0.0989 -1.2829
   14SAPS   C38 1829   1.575   7.108   7.250 -0.0414 -0.3031 -0.7661
   14SAPS   H8X 1830   1.565   7.218   7.256 -1.0850 -0.4086 -0.3540
   14SAPS   H8Y 1831   1.684   7.091   7.257  0.0795  0.4803 -0.6457
   14SAPS   C39 1832   1.497   7.064   7.372 -0.3299 -0.1975  0.2440
   14SAPS   H9X 1833   1.510   6.954   7.382 -0.3124 -0.2561 -0.4038
   14SAPS   H9Y 1834   1.388   7.084   7.361 -0.4347 -1.3173 -1.0571
   14SAPS  C310 1835   1.546   7.128   7.508 -0.3343  0.2243  0.4431
   14SAPS  H10X 1836   1.537   7.238   7.491 -1.0362 -0.1697 -2.2391
   14SAPS  H10Y 1837   1.656   7.114   7.514 -0.0719  1.6221 -0.6183
   14SAPS  C311 1838   1.468   7.102   7.635 -0.4850  0.0925  0.5636
   14SAPS  H11X 1839   1.365   7.141   7.624 -0.0994  0.6912 -1.3786
   14SAPS  H11Y 1840   1.512   7.172   7.709  2.0103 -0.0444 -0.6688
   14SAPS  C312 1841   1.462   6.953   7.675 -0.0506  0.0963  0.3315
   14SAPS  H12X 1842   1.468   6.895   7.581  0.3028 -2.3863  1.8109
   14SAPS  H12Y 1843   1.367   6.929   7.726 -0.0088 -1.2457 -0.1817
   14SAPS  C313 1844   1.573   6.906   7.772  0.1595  0.2903  0.1085
   14SAPS  H13X 1845   1.669   6.949   7.736  0.2498 -1.4897 -1.9871
   14SAPS  H13Y 1846   1.585   6.797   7.755 -0.0603  0.3531 -0.4627
   14SAPS  C314 1847   1.538   6.939   7.913  0.9563 -0.5894  0.5112
   14SAPS  H14X 1848   1.431   6.910   7.921  0.1798  2.0014  0.6319
   14SAPS  H14Y 1849   1.549   7.048   7.933  1.0276 -0.0028 -2.2780
   14SAPS  C315 1850   1.623   6.868   8.017 -0.0257 -0.0150 -0.2985
   14SAPS  H15X 1851   1.640   6.762   7.988  0.2728  0.0475 -0.3541
   14SAPS  H15Y 1852   1.562   6.874   8.110  0.5954  1.4008  0.0421
   14SAPS  C316 1853   1.753   6.930   8.048 -0.3145  0.0030  0.1270
   14SAPS  H16X 1854   1.795   6.976   7.956  0.2521  2.1315  1.3887
   14SAPS  H16Y 1855   1.821   6.844   8.065 -1.1510 -0.9464 -1.1802
   14SAPS  C317 1856   1.754   7.012   8.172  0.1307  0.1576 -0.3987
   14SAPS  H17X 1857   1.719   6.955   8.261  1.7510 -1.5606 -0.7864
   14SAPS  H17Y 1858   1.687   7.099   8.157 -0.1917 -0.3574 -2.2242
   14SAPS  C318 1859   1.899   7.044   8.211  0.1464  0.0743 -0.5254
   14SAPS  H18X 1860   1.954   7.080   8.121  0.4084  2.7528  0.6059
   14SAPS  H18Y 1861   1.955   6.954   8.245  0.8106  1.0594  1.0687
   14SAPS  H18Z 1862   1.896   7.118   8.293  1.6205 -1.1626  0.7027
   15SAPS     N 1863   2.890   5.594   6.010  0.6810 -0.2421 -0.4615
   15SAPS   HN1 1864   2.883   5.580   6.113 -2.5001 -0.6977 -0.6476
   15SAPS   HN2 1865   2.807   5.638   5.966 -0.3231 -1.4708  0.1343
   15SAPS   HN3 1866   2.898   5.502   5.963 -0.5544  0.4939 -2.2084
   15SAPS   C12 1867   3.012   5.667   5.973 -1.2046 -0.5283  0.1122
   15SAPS  H12A 1868   3.031   5.749   6.041 -1.3448 -1.5297  1.4158
   15SAPS   C13 1869   3.133   5.589   5.976  0.2749  0.0447  0.1821
   15SAPS  O13A 1870   3.134   5.465   5.962  0.4277 -0.0597  0.7022
   15SAPS  O13B 1871   3.243   5.652   5.995 -0.0557 -0.1370  0.5848
   15SAPS   C11 1872   2.991   5.739   5.834 -0.2846  0.3329  0.0838
   15SAPS  H11A 1873   2.999   5.663   5.754 -1.4672 -0.2121  0.4656
   15SAPS  H11B 1874   3.080   5.803   5.817 -0.8361  1.3202  0.8295
   15SAPS     P 1875   2.810   5.940   5.877  0.3837 -0.5458  0.4516
   15SAPS   O13 1876   2.863   6.043   5.791 -0.0105 -0.3322  0.6371
   15SAPS   O14 1877   2.666   5.918   5.888  0.0689 -0.3639 -0.2632
   15SAPS   O12 1878   2.870   5.806   5.820  0.0430  0.0344 -0.3319
   15SAPS   O11 1879   2.871   5.968   6.018 -0.1904 -0.2977 -0.1496
   15SAPS    C1 1880   2.792   6.043   6.113  0.4773 -0.2592  0.1775
   15SAPS    HA 1881   2.759   6.135   6.060  0.2522 -0.9290 -0.8663
   15SAPS    HB 1882   2.700   5.989   6.145  0.1433 -0.1496 -0.5630
   15SAPS    C2 1883   2.881   6.085   6.230  0.3542 -0.2297 -0.8589
   15SAPS    HS 1884   2.968   6.149   6.201  2.4705 -2.1727  0.8987
   15SAPS   O21 1885   2.928   5.970   6.296  0.0977 -0.7162  0.5969
   15SAPS   C21 1886   3.039   5.983   6.365 -0.2475  0.5171  0.0893
   15SAPS   O22 1887   3.115   6.072   6.379  0.3833 -0.0603 -0.1774
   15SAPS   C22 1888   3.060   5.849   6.432  1.5874  0.1655 -0.1703
   15SAPS   H2R 1889   2.966   5.810   6.477  1.9764 -3.7276 -2.3155
   15SAPS   H2S 1890   3.085   5.779   6.349  0.3927  0.6767 -1.0122
   15SAPS    C3 1891   2.790   6.176   6.329 -0.0414 -0.4506 -0.0289
   15SAPS    HX 1892   2.699   6.113   6.338 -0.2964 -0.3186 -1.5249
   15SAPS    HY 1893   2.745   6.259   6.272 -0.6042 -1.6977 -1.4585
   15SAPS   O31 1894   2.845   6.210   6.462 -0.2037 -0.3219  0.7190
   15SAPS   C31 1895   2.929   6.308   6.449  0.3804 -0.0406  0.4677
   15SAPS   O32 1896   2.961   6.368   6.342 -0.4685 -0.2139 -0.7024
   15SAPS   C32 1897   3.000   6.336   6.584  0.6203  0.1401  0.6104
   15SAPS   H2X 1898   3.108   6.318   6.565  0.4028  0.4557 -1.0649
   15SAPS   H2Y 1899   2.978   6.270   6.671  2.0955  1.6998  2.2618
   15SAPS   C23 1900   3.176   5.837   6.531 -0.0841  0.3874 -0.7787
   15SAPS   H3R 1901   3.279   5.852   6.492  0.7474 -1.7765  0.4012
   15SAPS   H3S 1902   3.187   5.735   6.572  1.3028  0.2476 -1.4349
   15SAPS   C24 1903   3.151   5.923   6.659 -0.7731  0.4031 -0.2632
   15SAPS   H4R 1904   3.104   6.017   6.624 -1.7685 -0.7617 -2.2614
   15SAPS   H4S 1905   3.246   5.944   6.711 -1.1890  1.2747  0.1630
   15SAPS   C25 1906   3.060   5.851   6.752  0.3620  0.0752 -0.0030
   15SAPS   H5R 1907   3.056   5.743   6.731  0.7437  0.1198 -0.3012
   15SAPS   C26 1908   2.967   5.897   6.838  0.2278  0.0608  0.4292
   15SAPS   H6R 1909   2.913   5.821   6.896  1.0814 -1.1533 -0.3167
   15SAPS   C27 1910   2.938   6.041   6.884  0.5105  0.0782 -0.0700
   15SAPS   H7R 1911   3.020   6.105   6.846  0.7520 -0.2647 -0.1345
   15SAPS   H7S 1912   2.949   6.060   6.993  1.1279  3.1233 -0.5686
   15SAPS   C28 1913   2.800   6.084   6.827  0.1642  0.5592 -0.4752
   15SAPS   H8R 1914   2.788   6.074   6.718 -1.5833 -2.9004 -0.1226
   15SAPS   C29 1915   2.692   6.139   6.890  0.5172 -0.1606  0.0151
   15SAPS   H9R 1916   2.602   6.154   6.829 -0.1118 -0.1549  0.9259
   15SAPS  C210 1917   2.683   6.170   7.032  0.4902  0.0794 -0.4321
   15SAPS  H10R 1918   2.693   6.280   7.042 -3.0333  0.3408  2.4882
   15SAPS  H10S 1919   2.772   6.137   7.090  1.8719 -1.5431 -3.2471
   15SAPS  C211 1920   2.548   6.132   7.087  0.3004  0.8485  1.0381
   15SAPS  H11R 1921   2.470   6.126   7.010  1.5426 -3.1404 -0.1640
   15SAPS  C212 1922   2.529   6.107   7.223 -0.4975  0.0436 -0.2436
   15SAPS  H12R 1923   2.429   6.095   7.266  0.6502  1.9881  3.3757
   15SAPS  C213 1924   2.632   6.124   7.334 -0.1861  0.3637 -0.3391
   15SAPS  H13R 1925   2.729   6.095   7.288 -0.9558 -2.7852 -0.2041
   15SAPS  H13S 1926   2.606   6.049   7.412 -0.9645 -0.2352 -1.1456
   15SAPS  C214 1927   2.655   6.262   7.395  0.1955 -0.6840  0.1750
   15SAPS  H14R 1928   2.668   6.344   7.323  1.6358  0.4186  1.6244
   15SAPS  C215 1929   2.662   6.290   7.525 -0.5632 -0.8407 -0.4555
   15SAPS  H15R 1930   2.686   6.393   7.558 -0.4402 -0.5217 -1.5016
   15SAPS  C216 1931   2.649   6.188   7.635  0.6763 -0.3683 -0.6117
   15SAPS  H16R 1932   2.575   6.116   7.593  1.9015 -1.5617 -0.7727
   15SAPS  H16S 1933   2.597   6.238   7.719  1.5620  1.1242 -0.9047
   15SAPS  C217 1934   2.778   6.115   7.671  0.7506 -0.6868  0.2129
   15SAPS  H17R 1935   2.847   6.186   7.722  0.1379  0.4329 -0.4734
   15SAPS  H17S 1936   2.829   6.078   7.579  1.3320 -2.1810  1.0863
   15SAPS  C218 1937   2.762   5.981   7.739  0.6356  0.1121  0.2917
   15SAPS  H18R 1938   2.865   5.944   7.759  1.6839  3.0041  0.7323
   15SAPS  H18S 1939   2.711   5.919   7.662 -1.4241  2.5980 -0.5098
   15SAPS  C219 1940   2.667   5.995   7.861  0.2076 -0.8226  0.0232
   15SAPS  H19R 1941   2.576   6.036   7.813 -0.2416 -1.6145  0.1762
   15SAPS  H19S 1942   2.713   6.068   7.931 -1.9579  0.8475 -0.1888
   15SAPS  C220 1943   2.637   5.872   7.941 -0.3321  0.0888  0.4057
   15SAPS  H20R 1944   2.597   5.799   7.868 -0.1619  1.4397 -1.1165
   15SAPS  H20S 1945   2.566   5.906   8.019  0.2763 -2.0687  1.9726
   15SAPS  H20T 1946   2.720   5.832   8.002 -0.8856 -1.4317  0.2055
   15SAPS   C33 1947   3.004   6.486   6.631 -0.0053 -0.1598 -0.1533
   15SAPS   H3X 1948   2.906   6.531   6.656  1.0396  1.6949  0.7677
   15SAPS   H3Y 1949   3.069   6.539   6.557  1.5785 -4.4354 -2.2267
   15SAPS   C34 1950   3.090   6.500   6.760  1.0061 -0.2243 -0.6056
   15SAPS   H4X 1951   3.139   6.600   6.763 -0.8993  0.7541  0.8564
   15SAPS   H4Y 1952   3.170   6.424   6.764  2.2283  0.9295 -2.0384
   15SAPS   C35 1953   2.992   6.472   6.883  0.5635 -0.1471 -0.0604
   15SAPS   H5X 1954   2.953   6.369   6.868  1.2525 -0.4560  0.2209
   15SAPS   H5Y 1955   2.908   6.544   6.885  0.4253 -0.2851  2.2093
   15SAPS   C36 1956   3.072   6.486   7.017  0.5753 -0.2024 -0.3678
   15SAPS   H6X 1957   2.999   6.544   7.077 -1.4817 -2.6293 -0.3532
   15SAPS   H6Y 1958   3.163   6.549   7.008  1.1964 -1.0218 -0.0416
   15SAPS   C37 1959   3.083   6.351   7.099 -0.1886 -0.5376  0.2684
   15SAPS   H7X 1960   3.139   6.271   7.047  0.2914  0.2152 -0.3849
   15SAPS   H7Y 1961   2.977   6.316   7.099 -1.5675  2.9867  2.6928
   15SAPS   C38 1962   3.126   6.364   7.248  1.3200 -0.8899  0.1517
   15SAPS   H8X 1963   3.228   6.408   7.253  1.8376 -1.3295 -3.4710
   15SAPS   H8Y 1964   3.119   6.266   7.299  0.8005 -0.0994  1.6742
   15SAPS   C39 1965   3.032   6.461   7.332 -0.2156  0.6443 -0.0848
   15SAPS   H9X 1966   2.925   6.457   7.302  0.1737  1.8963 -1.8057
   15SAPS   H9Y 1967   3.064   6.565   7.310  1.1310 -0.0952 -1.8864
   15SAPS  C310 1968   3.050   6.437   7.482 -0.1239  0.0235 -0.7709
   15SAPS  H10X 1969   3.144   6.380   7.499 -1.0137 -0.5924  2.6864
   15SAPS  H10Y 1970   2.964   6.370   7.505 -0.3018  0.4991 -0.0073
   15SAPS  C311 1971   3.059   6.573   7.561 -0.3742 -0.4695  0.4123
   15SAPS  H11X 1972   2.966   6.632   7.547 -2.4948 -3.5009  0.7056
   15SAPS  H11Y 1973   3.143   6.634   7.523 -1.5944 -0.0063 -1.6745
   15SAPS  C312 1974   3.058   6.538   7.713 -0.0650 -0.0508  0.2464
   15SAPS  H12X 1975   3.094   6.621   7.779  2.7476 -0.1508 -1.0193
   15SAPS  H12Y 1976   3.127   6.454   7.733  0.6732  0.2791 -0.8030
   15SAPS  C313 1977   2.927   6.487   7.761  0.3778  0.1170 -1.2162
   15SAPS  H13X 1978   2.908   6.386   7.718 -1.0527 -1.4476  2.6248
   15SAPS  H13Y 1979   2.851   6.563   7.737  1.4139  2.0612  1.2572
   15SAPS  C314 1980   2.924   6.475   7.911 -0.0687  0.2499 -1.1494
   15SAPS  H14X 1981   2.931   6.576   7.956 -2.3433  0.0409 -0.2089
   15SAPS  H14Y 1982   3.013   6.414   7.940 -2.2554 -1.1815  3.5488
   15SAPS  C315 1983   2.810   6.407   7.975 -0.5801  0.4172 -0.0115
   15SAPS  H15X 1984   2.799   6.302   7.940 -0.5089  0.1230  0.8158
   15SAPS  H15Y 1985   2.711   6.450   7.950 -0.7401  0.8474  1.2935
   15SAPS  C316 1986   2.842   6.398   8.120  0.4899  0.8725 -0.0803
   15SAPS  H16X 1987   2.798   6.490   8.165  0.9224  1.1877 -0.2934
   15SAPS  H16Y 1988   2.952   6.387   8.127  0.6814  2.1931 -0.7390
   15SAPS  C317 1989   2.774   6.280   8.201  0.4849 -0.1781 -0.0704
   15SAPS  H17X 1990   2.807   6.292   8.306  1.8298  0.4819 -0.5456
   15SAPS  H17Y 1991   2.821   6.186   8.164  1.9991 -0.0225  1.3569
   15SAPS  C318 1992   2.613   6.280   8.192 -0.4632 -0.6815 -0.1185
   15SAPS  H18X 1993   2.586   6.207   8.270  0.2638 -1.2659 -0.3996
   15SAPS  H18Y 1994   2.560   6.250   8.099 -1.2140 -0.8601  0.3601
   15SAPS  H18Z 1995   2.579   6.383   8.216  1.4693 -0.0972  0.2848
   16SAPS     N 1996   5.547   1.149   6.437  0.0877  0.0486  0.1349
   16SAPS   HN1 1997   5.481   1.099   6.499 -0.5974  1.8047  0.8687
   16SAPS   HN2 1998   5.642   1.159   6.479  1.0209  0.6038 -1.9323
   16SAPS   HN3 1999   5.493   1.238   6.432  0.6318  0.4288  0.8998
   16SAPS   C12 2000   5.549   1.067   6.313 -0.4425  0.4228  0.4389
   16SAPS  H12A 2001   5.445   1.065   6.286  0.1706 -3.0706 -2.2014
   16SAPS   C13 2002   5.622   1.129   6.191 -0.1709  0.5000 -0.3873
   16SAPS  O13A 2003   5.674   1.241   6.193  0.7105 -0.0484 -0.8619
   16SAPS  O13B 2004   5.627   1.057   6.083 -0.1810  0.7045  0.0061
   16SAPS   C11 2005   5.591   0.924   6.354  0.5264  0.4845 -0.2684
   16SAPS  H11A 2006   5.701   0.917   6.369  0.0574 -1.3481  3.2377
   16SAPS  H11B 2007   5.576   0.858   6.266  2.3666 -0.0131 -0.2545
   16SAPS     P 2008   5.533   0.716   6.520  0.1365 -0.0839  0.2003
   16SAPS   O13 2009   5.416   0.643   6.469  0.2431 -0.2943 -0.1489
   16SAPS   O14 2010   5.670   0.668   6.484 -0.7988  0.3555 -0.1087
   16SAPS   O12 2011   5.528   0.871   6.470  0.2307  0.4085 -0.4951
   16SAPS   O11 2012   5.536   0.715   6.679 -0.3979  0.1596  0.0437
   16SAPS    C1 2013   5.547   0.837   6.749 -0.3790 -0.5892 -0.6016
   16SAPS    HA 2014   5.636   0.888   6.707 -0.4244 -1.0958 -1.3422
   16SAPS    HB 2015   5.455   0.899   6.732 -0.2840 -0.8500 -2.3025
   16SAPS    C2 2016   5.570   0.819   6.902 -0.2210 -0.3770  0.2492
   16SAPS    HS 2017   5.680   0.802   6.903 -0.0085  0.8917  0.5546
   16SAPS   O21 2018   5.493   0.704   6.949  0.3282  0.1412  0.3788
   16SAPS   C21 2019   5.559   0.644   7.048  0.3268  0.0896 -0.6289
   16SAPS   O22 2020   5.674   0.668   7.082  0.1174  0.2659 -0.5738
   16SAPS   C22 2021   5.465   0.542   7.115  0.5331  0.5706 -0.0102
   16SAPS   H2R 2022   5.360   0.579   7.115 -1.9730 -5.3404 -0.4192
   16SAPS   H2S 2023   5.464   0.455   7.046 -1.6302 -0.7064  1.5163
   16SAPS    C3 2024   5.529   0.952   6.965  0.4384 -0.0798 -0.0805
   16SAPS    HX 2025   5.422   0.971   6.944  0.8915  1.7419 -0.9282
   16SAPS    HY 2026   5.581   1.044   6.931 -1.2648  0.8014 -0.4028
   16SAPS   O31 2027   5.539   0.939   7.107  0.4650  0.2210 -0.1778
   16SAPS   C31 2028   5.668   0.964   7.152  0.0605  0.4447 -0.0625
   16SAPS   O32 2029   5.759   0.990   7.081 -0.4099 -0.3291 -0.2978
   16SAPS   C32 2030   5.669   0.958   7.305  0.0363  0.2055  0.6181
   16SAPS   H2X 2031   5.671   1.065   7.337 -1.0557  1.2456 -2.4234
   16SAPS   H2Y 2032   5.762   0.903   7.334  0.3348 -0.7129 -1.8181
   16SAPS   C23 2033   5.508   0.483   7.250 -0.5700 -0.4770 -0.8593
   16SAPS   H3R 2034   5.526   0.567   7.321 -0.2226  1.3486 -3.0032
   16SAPS   H3S 2035   5.597   0.419   7.228 -1.1086 -1.2487 -0.8356
   16SAPS   C24 2036   5.400   0.383   7.307  0.4380  0.0380  0.9144
   16SAPS   H4R 2037   5.454   0.330   7.388 -0.8784 -1.3933  0.9025
   16SAPS   H4S 2038   5.383   0.316   7.220 -0.9195 -0.3795  1.4870
   16SAPS   C25 2039   5.267   0.443   7.353  0.2281 -0.0013 -0.3228
   16SAPS   H5R 2040   5.195   0.462   7.273  0.8345  0.9836 -0.6509
   16SAPS   C26 2041   5.236   0.483   7.473  0.5535  0.3962  0.0546
   16SAPS   H6R 2042   5.132   0.512   7.496  0.4485  0.2980 -0.2940
   16SAPS   C27 2043   5.328   0.480   7.592 -0.6564 -0.5549 -0.1616
   16SAPS   H7R 2044   5.313   0.576   7.646 -1.0268 -0.7858  0.1535
   16SAPS   H7S 2045   5.435   0.463   7.567 -0.4563 -2.0763  1.4740
   16SAPS   C28 2046   5.303   0.369   7.689  0.0924 -0.4065  0.7251
   16SAPS   H8R 2047   5.285   0.273   7.637  0.9651  0.0702 -0.5106
   16SAPS   C29 2048   5.317   0.373   7.824 -0.1680 -0.2991  0.2980
   16SAPS   H9R 2049   5.315   0.271   7.867  0.1672 -0.4773 -0.1014
   16SAPS  C210 2050   5.360   0.489   7.908 -0.1971 -0.4660 -0.0255
   16SAPS  H10R 2051   5.421   0.565   7.856 -1.7859  1.0412  0.2206
   16SAPS  H10S 2052   5.450   0.451   7.960  1.3474 -0.4844 -2.5220
   16SAPS  C211 2053   5.254   0.547   8.003 -0.1835  0.0797  0.7686
   16SAPS  H11R 2054   5.164   0.571   7.944 -0.2586 -2.6676 -0.4040
   16SAPS  C212 2055   5.252   0.568   8.131 -0.0121  0.5736  0.4340
   16SAPS  H12R 2056   5.155   0.594   8.176  0.1267 -0.2731  1.2565
   16SAPS  C213 2057   5.368   0.536   8.224  0.1956 -0.0503 -0.4324
   16SAPS  H13R 2058   5.427   0.628   8.244  1.1105 -0.9343  1.1242
   16SAPS  H13S 2059   5.442   0.465   8.180  0.8955  0.5078 -0.1808
   16SAPS  C214 2060   5.321   0.485   8.350 -0.5378  0.3516 -0.1574
   16SAPS  H14R 2061   5.313   0.376   8.354  0.3717  0.2812 -0.1559
   16SAPS  C215 2062   5.304   0.546   8.470 -0.6084  0.2769  0.3919
   16SAPS  H15R 2063   5.264   0.480   8.548  0.0104  1.4566  1.7498
   16SAPS  C216 2064   5.329   0.691   8.506  0.2852  0.4521  0.1747
   16SAPS  H16R 2065   5.387   0.741   8.425 -0.3037  1.0386  0.1015
   16SAPS  H16S 2066   5.396   0.689   8.594  2.1650 -0.1679 -1.2190
   16SAPS  C217 2067   5.192   0.763   8.537 -0.2277  0.3236 -0.6387
   16SAPS  H17R 2068   5.206   0.869   8.569 -0.8619  0.5594 -1.1168
   16SAPS  H17S 2069   5.135   0.716   8.619  1.7683 -2.5604 -0.7874
   16SAPS  C218 2070   5.100   0.773   8.413 -0.0370 -0.2474  0.5366
   16SAPS  H18R 2071   5.003   0.810   8.454  0.6557  1.3292  0.8071
   16SAPS  H18S 2072   5.086   0.668   8.380  2.7515 -0.5777  0.2238
   16SAPS  C219 2073   5.145   0.861   8.300  0.5436 -0.0365  0.3202
   16SAPS  H19R 2074   5.235   0.817   8.251  0.4550  1.5055 -1.2875
   16SAPS  H19S 2075   5.175   0.965   8.324  1.5904 -0.4173  0.7396
   16SAPS  C220 2076   5.040   0.865   8.187  0.3740 -0.5064  0.3826
   16SAPS  H20R 2077   4.941   0.872   8.236  0.2669  0.2468  0.0837
   16SAPS  H20S 2078   5.048   0.775   8.122 -0.2935 -3.2892  3.8456
   16SAPS  H20T 2079   5.056   0.951   8.118  0.5322 -0.8661 -0.0314
   16SAPS   C33 2080   5.542   0.888   7.364 -0.0807  0.2874  0.5286
   16SAPS   H3X 2081   5.550   0.780   7.338 -0.2433  0.9730 -2.8303
   16SAPS   H3Y 2082   5.455   0.922   7.305  1.3765  0.6392 -1.5418
   16SAPS   C34 2083   5.520   0.911   7.515 -0.4160  0.6511  0.1140
   16SAPS   H4X 2084   5.433   0.847   7.542  0.2239 -0.3231 -0.0839
   16SAPS   H4Y 2085   5.501   1.018   7.537  1.3026  0.8782  0.6936
   16SAPS   C35 2086   5.637   0.874   7.603  0.4046  0.9485 -1.0165
   16SAPS   H5X 2087   5.708   0.957   7.623 -0.5466  1.3202  1.1041
   16SAPS   H5Y 2088   5.693   0.793   7.551  0.1413  0.5391 -0.6687
   16SAPS   C36 2089   5.585   0.827   7.742 -0.5162 -0.7999  0.9781
   16SAPS   H6X 2090   5.645   0.739   7.776 -1.4682 -1.5299  0.8259
   16SAPS   H6Y 2091   5.485   0.780   7.728 -0.6983  0.1111 -1.1007
   16SAPS   C37 2092   5.569   0.943   7.838  0.1779 -0.2776 -0.6719
   16SAPS   H7X 2093   5.497   1.012   7.790  0.2916 -0.2812 -0.8512
   16SAPS   H7Y 2094   5.656   1.012   7.840 -1.7838  2.3341  1.0024
   16SAPS   C38 2095   5.533   0.884   7.975 -0.4942 -0.3561 -0.0361
   16SAPS   H8X 2096   5.624   0.844   8.024 -0.4197  0.6335  0.6599
   16SAPS   H8Y 2097   5.451   0.809   7.968 -0.8498  0.1510 -1.8263
   16SAPS   C39 2098   5.470   0.986   8.074  0.4708  0.2549  0.9226
   16SAPS   H9X 2099   5.407   0.931   8.147  1.0002 -0.9903  0.4805
   16SAPS   H9Y 2100   5.409   1.055   8.012  2.8610  1.5123 -0.1734
   16SAPS  C310 2101   5.562   1.086   8.143 -1.1187  0.3461  0.1806
   16SAPS  H10X 2102   5.633   1.113   8.063 -0.8568  1.2603  0.7068
   16SAPS  H10Y 2103   5.620   1.046   8.229  0.2486 -0.7112 -1.2005
   16SAPS  C311 2104   5.498   1.213   8.197 -0.1253  0.2798  0.7458
   16SAPS  H11X 2105   5.420   1.185   8.270  0.1014 -0.7994  0.5896
   16SAPS  H11Y 2106   5.454   1.271   8.112  0.4492 -1.1499 -0.5706
   16SAPS  C312 2107   5.599   1.318   8.255 -0.5019 -0.0629  0.8894
   16SAPS  H12X 2108   5.539   1.408   8.279 -2.4904 -1.0418 -0.1462
   16SAPS  H12Y 2109   5.682   1.340   8.184 -0.8798 -0.7181  0.2244
   16SAPS  C313 2110   5.668   1.275   8.386  0.3630 -0.4729  0.0245
   16SAPS  H13X 2111   5.719   1.178   8.369  0.6779 -0.0243 -1.8034
   16SAPS  H13Y 2112   5.588   1.260   8.462 -1.1566 -1.6525 -1.7128
   16SAPS  C314 2113   5.776   1.377   8.424 -0.0992  0.0758 -0.0438
   16SAPS  H14X 2114   5.735   1.481   8.417  0.7003  0.8244  3.9149
   16SAPS  H14Y 2115   5.868   1.361   8.364 -0.3165 -1.3523 -0.0116
   16SAPS  C315 2116   5.808   1.360   8.573 -0.4653  0.3163 -0.0651
   16SAPS  H15X 2117   5.826   1.252   8.589  0.0399  0.4428  0.2373
   16SAPS  H15Y 2118   5.710   1.382   8.620 -1.1412 -1.9519 -0.3166
   16SAPS  C316 2119   5.918   1.449   8.623  0.1985  0.4328 -0.4757
   16SAPS  H16X 2120   5.899   1.551   8.584 -0.2989  1.6650  2.6773
   16SAPS  H16Y 2121   6.008   1.410   8.570 -0.7883 -2.4819 -0.1934
   16SAPS  C317 2122   5.931   1.440   8.776 -0.4916 -0.4229  0.0962
   16SAPS  H17X 2123   5.835   1.482   8.813  0.0775  0.6220  0.4346
   16SAPS  H17Y 2124   6.012   1.508   8.809  0.0678 -0.7577 -0.5497
   16SAPS  C318 2125   5.963   1.306   8.843 -0.8584 -0.8550  0.9054
   16SAPS  H18X 2126   5.970   1.305   8.954  3.2833 -0.9478  0.8002
   16SAPS  H18Y 2127   6.057   1.264   8.802 -1.3333 -0.2488 -0.8824
   16SAPS  H18Z 2128   5.880   1.238   8.816  1.1906 -2.8276 -0.7132
   17SAPC     N 2129   4.362   3.184  10.595 -0.2958  0.1403 -0.4145
   17SAPC   C12 2130   4.417   3.110  10.478 -0.1773  0.4923  0.2964
   17SAPC  H12A 2131   4.345   3.102  10.398 -0.7198  0.9735  0.7304
   17SAPC  H12B 2132   4.431   3.008  10.512  0.6493  1.7180  4.2168
   17SAPC   C13 2133   4.465   3.209  10.693 -0.5951 -0.0652  0.3493
   17SAPC  H13A 2134   4.558   3.243  10.649  0.0102 -1.2718  0.6292
   17SAPC  H13B 2135   4.438   3.281  10.768 -1.2361  1.6468 -1.4291
   17SAPC  H13C 2136   4.504   3.121  10.743 -0.4380  0.7371  1.6803
   17SAPC   C14 2137   4.310   3.320  10.548  0.6490 -0.4656  0.2150
   17SAPC  H14A 2138   4.367   3.363  10.467 -2.1010  0.1410 -1.5534
   17SAPC  H14B 2139   4.213   3.304  10.504  0.3403 -0.6569  0.9491
   17SAPC  H14C 2140   4.320   3.399  10.620  0.5736  2.5838 -2.8818
   17SAPC   C15 2141   4.241   3.114  10.659 -0.9277 -0.0760  0.6888
   17SAPC  H15A 2142   4.262   3.013  10.690  0.5379  0.2050  0.6658
   17SAPC  H15B 2143   4.230   3.177  10.745  0.6873 -0.5601  1.2844
   17SAPC  H15C 2144   4.154   3.125  10.595  1.8779 -0.2293 -3.5646
   17SAPC   C11 2145   4.544   3.160  10.410 -0.0852  0.2955  0.3080
   17SAPC  H11A 2146   4.518   3.263  10.378  0.4346 -0.3434 -2.3666
   17SAPC  H11B 2147   4.552   3.095  10.321 -0.5531  2.6257 -1.5277
   17SAPC     P 2148   4.736   3.016  10.528 -0.5539  0.1763  0.2342
   17SAPC   O13 2149   4.837   3.055  10.633 -0.4500 -0.7569  0.1338
   17SAPC   O14 2150   4.644   2.912  10.563  0.3676  0.6550 -0.6160
   17SAPC   O12 2151   4.664   3.151  10.491  0.6778  0.2515  0.0766
   17SAPC   O11 2152   4.811   2.978  10.393  0.2077  0.2191 -0.6430
   17SAPC    C1 2153   4.887   3.075  10.315  1.5531  0.6173  0.4726
   17SAPC    HA 2154   4.821   3.152  10.270 -0.4396 -0.4485  1.4215
   17SAPC    HB 2155   4.956   3.136  10.377  1.5927  1.7467 -0.6439
   17SAPC    C2 2156   4.972   3.009  10.208  0.4778 -0.1433 -0.6884
   17SAPC    HS 2157   5.031   3.089  10.159  0.3724  0.9311  0.9036
   17SAPC   O21 2158   4.892   2.926  10.121  0.2107 -0.1198  0.1199
   17SAPC   C21 2159   4.846   2.999  10.018  0.0673  0.3892  0.1154
   17SAPC   O22 2160   4.862   3.116   9.998 -0.3510 -0.0877 -0.3199
   17SAPC   C22 2161   4.751   2.911   9.929  0.2699  0.7882 -0.6577
   17SAPC   H2R 2162   4.814   2.878   9.844  2.2295 -0.7587  1.2581
   17SAPC   H2S 2163   4.719   2.832  10.001 -2.0521  1.0415 -1.3318
   17SAPC    C3 2164   5.086   2.918  10.263  0.1498 -0.1406  0.3385
   17SAPC    HX 2165   5.051   2.833  10.325  0.0851 -1.1120 -0.9912
   17SAPC    HY 2166   5.144   2.987  10.328 -0.1522 -0.8095  1.3215
   17SAPC   O31 2167   5.169   2.858  10.157 -0.0684  0.0987  0.5574
   17SAPC   C31 2168   5.255   2.936  10.090  1.1134 -0.0046  0.3068
   17SAPC   O32 2169   5.265   3.056  10.099  0.5539  0.0646  0.8979
   17SAPC   C32 2170   5.315   2.841   9.991  0.8529  0.4726 -0.1179
   17SAPC   H2X 2171   5.250   2.752   9.985  1.1548  0.2841 -0.6931
   17SAPC   H2Y 2172   5.418   2.804  10.013  0.8887 -0.8347 -2.1724
   17SAPC   C23 2173   4.638   2.993   9.863 -0.3881 -0.4142 -0.2503
   17SAPC   H3R 2174   4.686   3.071   9.801  0.2910 -1.1556 -0.6756
   17SAPC   H3S 2175   4.575   3.041   9.941 -0.8730 -0.1619 -0.7854
   17SAPC   C24 2176   4.551   2.915   9.770  0.4651 -0.2689 -0.1239
   17SAPC   H4R 2177   4.521   2.818   9.816  1.6746  0.2194  1.7754
   17SAPC   H4S 2178   4.621   2.889   9.688 -0.0264 -3.7722  0.4066
   17SAPC   C25 2179   4.432   2.999   9.719 -0.3894 -0.4912  0.1232
   17SAPC   H5R 2180   4.373   3.047   9.798  2.2572 -1.0176  2.5948
   17SAPC   C26 2181   4.401   3.027   9.598 -0.0676 -0.4980 -0.0798
   17SAPC   H6R 2182   4.313   3.086   9.568  1.3654  0.3952 -2.9828
   17SAPC   C27 2183   4.495   2.985   9.479  0.3374 -0.0605 -1.0393
   17SAPC   H7R 2184   4.423   2.943   9.406  2.0750 -3.2230 -1.0789
   17SAPC   H7S 2185   4.561   2.898   9.497 -0.1063 -0.1412  0.2942
   17SAPC   C28 2186   4.580   3.083   9.405  0.3882  0.6426 -0.5186
   17SAPC   H8R 2187   4.683   3.080   9.442  0.1764  1.0470  0.1200
   17SAPC   C29 2188   4.550   3.179   9.313  0.1413  0.0376  0.6647
   17SAPC   H9R 2189   4.630   3.247   9.279  0.2381 -0.1407  0.5360
   17SAPC  C210 2190   4.411   3.209   9.267  0.5009  0.2240  0.3343
   17SAPC  H10R 2191   4.393   3.314   9.296  0.1037  0.7439 -1.6623
   17SAPC  H10S 2192   4.342   3.155   9.337  2.4830 -1.6670  0.9474
   17SAPC  C211 2193   4.372   3.186   9.126 -0.2180  0.4698  0.0379
   17SAPC  H11R 2194   4.332   3.085   9.112 -1.6441  0.9326  0.5927
   17SAPC  C212 2195   4.360   3.270   9.024 -0.0250  0.0108  0.3934
   17SAPC  H12R 2196   4.318   3.236   8.928  0.9381 -1.1434  0.3599
   17SAPC  C213 2197   4.397   3.414   9.019  0.2426 -0.4042  0.5204
   17SAPC  H13R 2198   4.504   3.418   8.989 -0.5660 -1.5384 -2.9644
   17SAPC  H13S 2199   4.395   3.455   9.122  0.3749 -0.4223  0.5315
   17SAPC  C214 2200   4.314   3.493   8.923  0.1728 -0.3242 -0.6532
   17SAPC  H14R 2201   4.211   3.484   8.958  0.9608 -0.7581  1.7250
   17SAPC  C215 2202   4.348   3.579   8.826 -0.2031 -0.1345 -0.0010
   17SAPC  H15R 2203   4.270   3.634   8.773  0.2812  1.1943  0.6198
   17SAPC  C216 2204   4.490   3.623   8.801 -0.2362 -0.5015 -0.5283
   17SAPC  H16R 2205   4.522   3.602   8.697 -0.4427  2.1711 -1.2073
   17SAPC  H16S 2206   4.567   3.556   8.847  1.1043 -0.5235 -2.6685
   17SAPC  C217 2207   4.512   3.774   8.842 -0.2003  0.0487 -0.2827
   17SAPC  H17R 2208   4.612   3.810   8.809 -1.6122  4.0288 -0.8436
   17SAPC  H17S 2209   4.502   3.790   8.952  1.6782  1.4943 -0.2746
   17SAPC  C218 2210   4.416   3.870   8.774 -0.4406 -0.2353  0.3764
   17SAPC  H18R 2211   4.320   3.849   8.826 -0.1631  0.0584  1.0185
   17SAPC  H18S 2212   4.400   3.859   8.665  0.8996  1.4402 -0.0385
   17SAPC  C219 2213   4.457   4.013   8.799 -0.5492 -0.6145  0.0429
   17SAPC  H19R 2214   4.558   4.036   8.759 -0.2153 -0.5251  0.9251
   17SAPC  H19S 2215   4.477   4.028   8.907  1.5757 -2.0198 -0.0937
   17SAPC  C220 2216   4.360   4.118   8.752  0.1162 -0.0551  0.5337
   17SAPC  H20R 2217   4.306   4.085   8.661  0.9533 -0.3424  0.1301
   17SAPC  H20S 2218   4.419   4.209   8.728  1.2387 -0.6036  1.1315
   17SAPC  H20T 2219   4.281   4.148   8.824 -1.4397 -1.2345 -0.6203
   17SAPC   C33 2220   5.308   2.892   9.844  0.3299 -0.5227 -0.2990
   17SAPC   H3X 2221   5.351   2.813   9.779 -2.0397 -1.5196 -0.7645
   17SAPC   H3Y 2222   5.367   2.984   9.822  3.1072 -1.9826  0.7256
   17SAPC   C34 2223   5.167   2.913   9.802  0.1983  0.3568 -0.3233
   17SAPC   H4X 2224   5.116   2.988   9.866  0.2021  1.2221 -1.3068
   17SAPC   H4Y 2225   5.119   2.813   9.804 -0.8210  0.8131 -1.0963
   17SAPC   C35 2226   5.151   2.983   9.669 -0.0569 -0.2016  0.3373
   17SAPC   H5X 2227   5.200   3.082   9.679 -2.6665  1.0055  2.2419
   17SAPC   H5Y 2228   5.045   2.998   9.642 -0.5137 -0.5813  1.8192
   17SAPC   C36 2229   5.225   2.910   9.557 -0.4858  0.0747  0.4845
   17SAPC   H6X 2230   5.198   2.802   9.560 -1.2340  0.2008 -1.1372
   17SAPC   H6Y 2231   5.335   2.912   9.573 -0.2662 -0.9887 -0.6917
   17SAPC   C37 2232   5.194   2.978   9.420  0.0960  0.6126  0.0205
   17SAPC   H7X 2233   5.201   3.088   9.410 -1.1693  0.9256  2.1570
   17SAPC   H7Y 2234   5.091   2.948   9.391 -0.4624  0.4313  2.0505
   17SAPC   C38 2235   5.278   2.921   9.312  0.3918 -0.4003  0.0674
   17SAPC   H8X 2236   5.271   2.810   9.305 -1.0379 -0.4437  1.3961
   17SAPC   H8Y 2237   5.379   2.955   9.343 -0.4860  2.9684 -0.3061
   17SAPC   C39 2238   5.274   2.989   9.170 -0.1639 -0.1882 -0.0679
   17SAPC   H9X 2239   5.315   2.923   9.091  0.7685  1.1619 -0.7589
   17SAPC   H9Y 2240   5.351   3.069   9.157 -0.1434 -0.1817  0.0933
   17SAPC  C310 2241   5.131   3.026   9.129  0.8455  0.3245 -0.1280
   17SAPC  H10X 2242   5.142   3.094   9.041  1.2990  0.1916 -0.1777
   17SAPC  H10Y 2243   5.061   3.076   9.198  1.3245 -0.0162  0.6113
   17SAPC  C311 2244   5.049   2.893   9.084  0.1243  0.1433 -0.3378
   17SAPC  H11X 2245   5.061   2.818   9.165  0.3611  0.4685 -0.0668
   17SAPC  H11Y 2246   5.100   2.862   8.991 -0.2920 -0.6332 -0.3112
   17SAPC  C312 2247   4.904   2.928   9.055  0.2962  0.0919  0.2836
   17SAPC  H12X 2248   4.861   2.984   9.140  1.4840  1.0358  0.2920
   17SAPC  H12Y 2249   4.843   2.837   9.038  1.3188 -0.7366  0.8770
   17SAPC  C313 2250   4.881   3.019   8.926 -0.1952 -0.5819 -0.2267
   17SAPC  H13X 2251   4.932   2.985   8.833  0.1583  2.2640 -1.1989
   17SAPC  H13Y 2252   4.910   3.123   8.954 -3.6664  0.8111 -1.2672
   17SAPC  C314 2253   4.734   3.031   8.900  0.2020 -0.4114  0.2677
   17SAPC  H14X 2254   4.675   3.066   8.987  1.3487 -2.4940  1.9857
   17SAPC  H14Y 2255   4.696   2.927   8.887  0.9674 -0.4836 -1.8817
   17SAPC  C315 2256   4.686   3.108   8.775 -0.2176  0.2311  0.1723
   17SAPC  H15X 2257   4.575   3.106   8.774 -0.2207 -0.8915  0.9080
   17SAPC  H15Y 2258   4.715   3.065   8.677 -2.1033  0.5871 -0.5778
   17SAPC  C316 2259   4.719   3.257   8.769  0.2349  0.3541 -0.3515
   17SAPC  H16X 2260   4.827   3.267   8.749  0.7633 -1.2349  1.3956
   17SAPC  H16Y 2261   4.713   3.305   8.869  2.1080 -1.0499  0.4835
   17SAPC  C317 2262   4.649   3.337   8.661  0.6523 -0.2494  1.0998
   17SAPC  H17X 2263   4.690   3.440   8.649  0.5534 -0.3686 -0.5011
   17SAPC  H17Y 2264   4.543   3.357   8.689  1.1028  2.4417  1.2223
   17SAPC  C318 2265   4.661   3.277   8.520 -0.4284  0.6467  0.2168
   17SAPC  H18X 2266   4.609   3.179   8.518 -1.2630  1.0748 -2.4156
   17SAPC  H18Y 2267   4.611   3.334   8.439 -0.4425 -1.3332 -1.2182
   17SAPC  H18Z 2268   4.764   3.252   8.489  0.1237 -0.7252  2.8414
   18SAPC     N 2269   4.463   4.113  10.583 -0.2903 -0.3836  0.3252
   18SAPC   C12 2270   4.392   4.143  10.454  0.7528  0.0630 -0.6014
   18SAPC  H12A 2271   4.462   4.186  10.384 -0.9620 -0.0998 -2.5147
   18SAPC  H12B 2272   4.308   4.207  10.475 -0.2782 -1.9176  1.9324
   18SAPC   C13 2273   4.543   4.231  10.630  0.1089 -0.5836 -0.7071
   18SAPC  H13A 2274   4.612   4.206  10.709 -1.6205  0.8148  1.3996
   18SAPC  H13B 2275   4.602   4.273  10.550 -0.6393 -0.2890 -1.1143
   18SAPC  H13C 2276   4.470   4.300  10.670 -0.4549 -1.7765  0.3663
   18SAPC   C14 2277   4.380   4.067  10.696 -0.2697 -0.2508 -0.2505
   18SAPC  H14A 2278   4.345   4.146  10.761 -2.0617 -0.1962 -1.2210
   18SAPC  H14B 2279   4.293   4.017  10.657  0.1196 -1.1219 -0.0132
   18SAPC  H14C 2280   4.436   4.002  10.760 -0.4804 -0.9840 -0.7950
   18SAPC   C15 2281   4.548   3.988  10.565 -0.5200 -0.3010 -0.3257
   18SAPC  H15A 2282   4.594   3.951  10.655 -0.2627  0.1786 -0.2609
   18SAPC  H15B 2283   4.494   3.899  10.537  0.9468 -1.6861  1.0469
   18SAPC  H15C 2284   4.620   4.004  10.486 -2.9684  0.9823 -2.4608
   18SAPC   C11 2285   4.327   4.027  10.376 -0.2977  0.1031  0.0088
   18SAPC  H11A 2286   4.399   3.964  10.320 -1.3728 -0.8060 -0.3829
   18SAPC  H11B 2287   4.267   4.084  10.302 -0.4380  0.1907  0.1909
   18SAPC     P 2288   4.236   3.790  10.445 -0.2542  0.0540 -0.0200
   18SAPC   O13 2289   4.376   3.745  10.462 -0.3001 -0.4254 -0.3761
   18SAPC   O14 2290   4.140   3.738  10.547 -0.1742 -0.5433 -0.1349
   18SAPC   O12 2291   4.235   3.949  10.454 -0.7793  0.1922  0.2614
   18SAPC   O11 2292   4.181   3.761  10.295 -0.5378  0.5122 -0.5247
   18SAPC    C1 2293   4.080   3.840  10.243  0.0263  0.2894 -0.3703
   18SAPC    HA 2294   3.979   3.812  10.279 -0.7058  0.4750 -2.1867
   18SAPC    HB 2295   4.104   3.945  10.273 -0.6971  0.2933  0.2230
   18SAPC    C2 2296   4.085   3.837  10.089  0.3544  0.0141 -0.2806
   18SAPC    HS 2297   4.023   3.920  10.049  1.2022  0.1924 -1.2633
   18SAPC   O21 2298   4.042   3.709  10.040 -0.5174  0.7276  0.8783
   18SAPC   C21 2299   3.910   3.686  10.037  0.1018  0.1354 -0.3420
   18SAPC   O22 2300   3.825   3.762  10.072 -0.1592 -0.6124 -0.2455
   18SAPC   C22 2301   3.882   3.545   9.981 -0.1092 -0.2693  0.6164
   18SAPC   H2R 2302   3.972   3.480   9.987  0.4113  0.2588 -1.0278
   18SAPC   H2S 2303   3.807   3.501  10.050 -1.3487  3.0275  1.5861
   18SAPC    C3 2304   4.227   3.851  10.037 -0.0596  0.3096 -0.0060
   18SAPC    HX 2305   4.289   3.769  10.079  0.6119  1.1174  0.6100
   18SAPC    HY 2306   4.285   3.940  10.070  0.6352 -0.5447  1.1117
   18SAPC   O31 2307   4.232   3.855   9.894 -0.0078  0.0365 -0.4054
   18SAPC   C31 2308   4.257   3.738   9.839 -0.3009  0.1490  0.1032
   18SAPC   O32 2309   4.295   3.635   9.890 -0.0448  0.5320 -0.1554
   18SAPC   C32 2310   4.214   3.746   9.685 -0.1011 -0.4636  0.2137
   18SAPC   H2X 2311   4.261   3.841   9.649 -0.4331 -1.0027 -1.7601
   18SAPC   H2Y 2312   4.104   3.762   9.684 -0.1634 -0.5103  2.3239
   18SAPC   C23 2313   3.823   3.559   9.833  0.3982  0.4354  0.9003
   18SAPC   H3R 2314   3.831   3.453   9.801 -0.6054  0.3744  0.8106
   18SAPC   H3S 2315   3.887   3.618   9.763  1.4331 -2.9431 -1.2671
   18SAPC   C24 2316   3.664   3.577   9.825  0.2004 -0.3973  0.3899
   18SAPC   H4R 2317   3.612   3.535   9.913  0.3884  2.1643  1.8434
   18SAPC   H4S 2318   3.625   3.529   9.733 -0.9347  0.5133  0.3593
   18SAPC   C25 2319   3.637   3.730   9.840 -0.3620 -0.6985  0.2733
   18SAPC   H5R 2320   3.623   3.773   9.940  0.3173 -0.4206  0.2551
   18SAPC   C26 2321   3.625   3.812   9.731 -0.2742  0.3264 -0.2309
   18SAPC   H6R 2322   3.610   3.921   9.737  2.3502  0.7860 -0.6810
   18SAPC   C27 2323   3.648   3.761   9.584  0.0761  0.9846 -0.2596
   18SAPC   H7R 2324   3.557   3.790   9.526  0.7480  1.8716 -0.9051
   18SAPC   H7S 2325   3.671   3.654   9.566 -0.6112  1.0432 -1.6982
   18SAPC   C28 2326   3.768   3.825   9.515  0.5764 -0.2038 -0.3953
   18SAPC   H8R 2327   3.855   3.812   9.582  1.1368  0.9883 -0.8540
   18SAPC   C29 2328   3.788   3.853   9.389 -0.2331 -0.6211 -0.2604
   18SAPC   H9R 2329   3.879   3.908   9.359 -0.4338  0.5707  1.1854
   18SAPC  C210 2330   3.692   3.830   9.272  0.0341  0.0833  0.1415
   18SAPC  H10R 2331   3.660   3.727   9.297  1.3220  0.0288  1.7528
   18SAPC  H10S 2332   3.742   3.819   9.174  0.5732  0.8456  0.3154
   18SAPC  C211 2333   3.580   3.931   9.266 -0.9404 -0.2893 -0.2565
   18SAPC  H11R 2334   3.609   4.036   9.268 -1.5468 -0.1193  0.8117
   18SAPC  C212 2335   3.451   3.904   9.254 -0.2250  0.1621 -0.0549
   18SAPC  H12R 2336   3.379   3.984   9.274 -1.2382 -0.3800 -1.3917
   18SAPC  C213 2337   3.392   3.762   9.248  0.2053 -0.1077  0.8364
   18SAPC  H13R 2338   3.423   3.695   9.331  1.6181 -0.2090  0.2556
   18SAPC  H13S 2339   3.445   3.721   9.159  0.3192  2.5715 -0.4024
   18SAPC  C214 2340   3.244   3.754   9.214  0.5110 -0.4397  0.2136
   18SAPC  H14R 2341   3.218   3.808   9.122  1.8220 -2.8115 -1.6743
   18SAPC  C215 2342   3.151   3.698   9.296 -0.5954  0.1519  0.0887
   18SAPC  H15R 2343   3.046   3.690   9.265  0.1549 -2.9095 -2.2451
   18SAPC  C216 2344   3.172   3.620   9.424  0.1276  0.5556  0.2143
   18SAPC  H16R 2345   3.268   3.566   9.437  0.1762  0.7771  0.7762
   18SAPC  H16S 2346   3.102   3.536   9.400  0.4943  0.8985 -2.3414
   18SAPC  C217 2347   3.149   3.683   9.564 -0.1727 -0.2894 -0.5516
   18SAPC  H17R 2348   3.047   3.726   9.570 -0.5751 -1.3518  0.6866
   18SAPC  H17S 2349   3.231   3.756   9.578  2.1492 -2.8666  0.2971
   18SAPC  C218 2350   3.151   3.573   9.664  0.7033  0.5936 -0.4470
   18SAPC  H18R 2351   3.239   3.511   9.638  1.0110  0.1287  1.5751
   18SAPC  H18S 2352   3.062   3.509   9.648  0.1057  1.6135 -1.3941
   18SAPC  C219 2353   3.157   3.626   9.816  0.0092  0.3208  0.8970
   18SAPC  H19R 2354   3.161   3.530   9.871  0.9202  0.7220  1.5628
   18SAPC  H19S 2355   3.055   3.670   9.825 -0.3702 -0.0938 -0.9513
   18SAPC  C220 2356   3.263   3.721   9.837 -0.1352  0.5942 -0.7327
   18SAPC  H20R 2357   3.362   3.688   9.801 -0.4193 -5.0707  2.4973
   18SAPC  H20S 2358   3.280   3.745   9.944 -0.0970 -0.1797 -0.5652
   18SAPC  H20T 2359   3.233   3.816   9.787  4.1071  0.9621 -2.9762
   18SAPC   C33 2360   4.261   3.634   9.595  0.9210 -0.4215  0.1772
   18SAPC   H3X 2361   4.194   3.548   9.615  1.2023 -1.2558 -2.1565
   18SAPC   H3Y 2362   4.370   3.613   9.605  0.8394 -0.2679  1.5536
   18SAPC   C34 2363   4.233   3.668   9.448 -0.9193  0.3496  0.0349
   18SAPC   H4X 2364   4.131   3.710   9.435 -1.6169 -1.0243  0.8168
   18SAPC   H4Y 2365   4.239   3.574   9.388 -1.1440  0.0153  0.5263
   18SAPC   C35 2366   4.325   3.775   9.391  0.3912 -0.3514 -0.1717
   18SAPC   H5X 2367   4.427   3.746   9.423  0.3710  0.6355  0.8408
   18SAPC   H5Y 2368   4.303   3.872   9.441  1.9816 -1.3242  2.6257
   18SAPC   C36 2369   4.311   3.781   9.232  0.4533 -0.5785  0.0551
   18SAPC   H6X 2370   4.310   3.676   9.195 -0.0801  0.3838 -2.9440
   18SAPC   H6Y 2371   4.400   3.830   9.186  0.0220 -0.3963 -0.6005
   18SAPC   C37 2372   4.181   3.848   9.189 -0.0336 -0.8328 -0.3941
   18SAPC   H7X 2373   4.198   3.958   9.185 -2.2976 -0.4699 -2.7013
   18SAPC   H7Y 2374   4.093   3.831   9.254 -0.4124 -1.6719 -1.1074
   18SAPC   C38 2375   4.129   3.798   9.048  0.6724 -0.2906  0.3712
   18SAPC   H8X 2376   4.122   3.688   9.062 -0.4986 -0.3658 -0.7053
   18SAPC   H8Y 2377   4.205   3.823   8.971 -0.8196  0.9261 -0.7474
   18SAPC   C39 2378   3.990   3.855   9.008  0.5192  0.7070  0.5666
   18SAPC   H9X 2379   3.959   3.940   9.073  0.7479 -0.5707  2.4177
   18SAPC   H9Y 2380   3.917   3.774   9.028  0.5740  0.3497 -0.6067
   18SAPC  C310 2381   3.983   3.909   8.862  0.0786  0.1231  0.1837
   18SAPC  H10X 2382   4.004   3.830   8.786  0.8538  0.8701 -0.4082
   18SAPC  H10Y 2383   4.057   3.991   8.848  1.3182 -0.8346  0.8577
   18SAPC  C311 2384   3.848   3.964   8.823  0.4349  0.3765 -0.4022
   18SAPC  H11X 2385   3.857   4.010   8.722  0.4600 -0.6872 -0.8998
   18SAPC  H11Y 2386   3.809   4.042   8.892 -2.4680 -1.0275 -0.2857
   18SAPC  C312 2387   3.730   3.858   8.810  0.1380 -0.4851  0.4409
   18SAPC  H12X 2388   3.717   3.797   8.901 -0.1260  1.1524  1.5535
   18SAPC  H12Y 2389   3.767   3.799   8.723 -2.5805 -2.9049  0.8161
   18SAPC  C313 2390   3.589   3.911   8.763 -0.8280 -0.6532 -0.0668
   18SAPC  H13X 2391   3.527   3.829   8.720 -1.5026 -0.2543  0.1341
   18SAPC  H13Y 2392   3.622   3.980   8.683  1.1474  0.9167  1.9830
   18SAPC  C314 2393   3.511   3.990   8.869  0.4243 -0.1410 -1.2669
   18SAPC  H14X 2394   3.554   4.093   8.875  0.6895 -0.3316  1.8075
   18SAPC  H14Y 2395   3.478   3.949   8.967 -2.0382 -0.1522 -2.0391
   18SAPC  C315 2396   3.370   4.019   8.805 -0.8587  0.1942 -0.2860
   18SAPC  H15X 2397   3.382   4.002   8.696 -0.7400  1.0267 -0.4090
   18SAPC  H15Y 2398   3.362   4.130   8.811 -2.5527  0.0911 -0.0649
   18SAPC  C316 2399   3.251   3.941   8.857  0.1537 -0.2958 -0.6685
   18SAPC  H16X 2400   3.247   3.958   8.966  1.2163 -0.8368 -0.5282
   18SAPC  H16Y 2401   3.253   3.832   8.837 -0.0043 -0.2205 -1.1119
   18SAPC  C317 2402   3.109   3.977   8.806  0.3798 -0.3020 -0.2639
   18SAPC  H17X 2403   3.118   3.977   8.695  0.4323  1.0854 -0.2777
   18SAPC  H17Y 2404   3.087   4.081   8.839  0.1446 -0.4909  0.1795
   18SAPC  C318 2405   3.004   3.875   8.852  0.5583 -0.0944  0.1225
   18SAPC  H18X 2406   3.036   3.772   8.825  1.1491  0.3639 -0.9781
   18SAPC  H18Y 2407   2.904   3.889   8.805  0.4740  3.6206  1.0927
   18SAPC  H18Z 2408   2.982   3.886   8.961 -0.0993  2.2151 -0.1929
   19SAPC     N 2409   3.057   4.222  10.405 -0.4512  0.0095 -0.8260
   19SAPC   C12 2410   2.960   4.318  10.343  0.4854 -0.4238  0.6281
   19SAPC  H12A 2411   2.917   4.371  10.427  0.2593  0.8636 -0.2749
   19SAPC  H12B 2412   2.882   4.257  10.299  1.3040 -1.6701  0.8540
   19SAPC   C13 2413   3.136   4.146  10.312 -0.4428 -0.0441  0.8816
   19SAPC  H13A 2414   3.057   4.101  10.254 -1.3856  1.3836  1.0051
   19SAPC  H13B 2415   3.204   4.205  10.253 -2.7765 -1.1751 -3.2894
   19SAPC  H13C 2416   3.198   4.070  10.358  0.0913 -0.4398 -0.4416
   19SAPC   C14 2417   3.151   4.291  10.501  0.6808  0.6422  0.1805
   19SAPC  H14A 2418   3.101   4.331  10.588  1.6097  0.9663  0.5852
   19SAPC  H14B 2419   3.227   4.222  10.534 -0.4119 -0.7715 -0.1859
   19SAPC  H14C 2420   3.209   4.372  10.458 -0.7602  0.3783 -2.5101
   19SAPC   C15 2421   2.977   4.119  10.492 -0.7287 -0.1028 -0.3774
   19SAPC  H15A 2422   3.029   4.043  10.549 -1.8161 -1.5994 -1.3149
   19SAPC  H15B 2423   2.929   4.165  10.577 -0.1499 -0.9308  0.4240
   19SAPC  H15C 2424   2.897   4.071  10.437 -0.3692  0.4452 -1.4124
   19SAPC   C11 2425   3.012   4.418  10.240  0.0447 -1.0422  0.2676
   19SAPC  H11A 2426   2.929   4.454  10.177  0.0780 -0.3659  0.6032
   19SAPC  H11B 2427   3.080   4.367  10.168 -2.4666 -2.3717 -1.2772
   19SAPC     P 2428   2.998   4.652  10.376  0.0040 -0.4359 -0.0217
   19SAPC   O13 2429   2.897   4.595  10.465  1.1689  0.2394 -0.0291
   19SAPC   O14 2430   3.097   4.743  10.440 -0.1945 -0.3647 -0.0520
   19SAPC   O12 2431   3.076   4.532  10.302 -0.5587 -0.6167  0.0096
   19SAPC   O11 2432   2.915   4.726  10.261 -0.7367 -0.2063  0.0019
   19SAPC    C1 2433   2.973   4.768  10.135  0.3060 -0.2355  0.2909
   19SAPC    HA 2434   3.074   4.725  10.117 -0.1375 -1.7133  1.1692
   19SAPC    HB 2435   2.915   4.709  10.061  0.8344 -0.0992 -0.2451
   19SAPC    C2 2436   2.962   4.915  10.084 -0.6320 -0.5205  0.6267
   19SAPC    HS 2437   3.031   4.972  10.150 -0.2404  1.1074 -1.1009
   19SAPC   O21 2438   2.827   4.959  10.091 -0.1846 -0.7225  0.2874
   19SAPC   C21 2439   2.799   5.082  10.147  0.0569 -0.4406  0.8705
   19SAPC   O22 2440   2.888   5.162  10.176 -0.0824 -0.4868 -0.0184
   19SAPC   C22 2441   2.652   5.109  10.140 -0.8962 -1.1181 -0.1097
   19SAPC   H2R 2442   2.604   5.038  10.070 -0.5822  0.6193 -2.2032
   19SAPC   H2S 2443   2.615   5.095  10.244 -1.3615 -0.4344 -0.1780
   19SAPC    C3 2444   3.010   4.933   9.940  1.0760 -0.6528  0.4624
   19SAPC    HX 2445   3.016   5.041   9.917  0.0818 -0.5597  0.5871
   19SAPC    HY 2446   2.934   4.890   9.870  0.2236  1.5149 -0.0407
   19SAPC   O31 2447   3.130   4.869   9.900  0.0310  0.0675  0.1386
   19SAPC   C31 2448   3.245   4.913   9.954  0.1386 -1.0923  0.0008
   19SAPC   O32 2449   3.255   4.993  10.047 -0.9027 -0.2400  0.2281
   19SAPC   C32 2450   3.360   4.869   9.863 -0.0418  0.2808 -0.5779
   19SAPC   H2X 2451   3.320   4.808   9.780  0.6248 -0.0903 -0.6369
   19SAPC   H2Y 2452   3.436   4.809   9.918 -1.3893 -0.9547 -0.0015
   19SAPC   C23 2453   2.621   5.256  10.110  0.3943  0.1909  0.6591
   19SAPC   H3R 2454   2.703   5.323  10.144 -0.0997  2.1433 -1.6955
   19SAPC   H3S 2455   2.524   5.291  10.151  0.8614  1.3914  0.7761
   19SAPC   C24 2456   2.606   5.285   9.953 -0.1298 -0.0128  0.1448
   19SAPC   H4R 2457   2.565   5.387   9.940 -0.9406 -0.3442  0.0200
   19SAPC   H4S 2458   2.526   5.213   9.924 -0.2269  0.3010 -0.3763
   19SAPC   C25 2459   2.729   5.282   9.857  0.3937  0.2774  0.5766
   19SAPC   H5R 2460   2.800   5.364   9.877 -1.2008  2.0587 -0.7324
   19SAPC   C26 2461   2.733   5.207   9.746  0.2368  0.0418  0.3537
   19SAPC   H6R 2462   2.822   5.206   9.682  0.3939  0.6538  0.5629
   19SAPC   C27 2463   2.618   5.110   9.706 -0.3017 -0.1231  0.3510
   19SAPC   H7R 2464   2.522   5.163   9.719  0.3385  1.2910 -0.4059
   19SAPC   H7S 2465   2.632   5.023   9.774 -1.4255 -0.8846 -0.3681
   19SAPC   C28 2466   2.628   5.056   9.562  0.1551 -0.1296  0.0838
   19SAPC   H8R 2467   2.696   4.974   9.532 -0.7879 -0.1671 -2.2047
   19SAPC   C29 2468   2.546   5.097   9.464  0.1158 -0.5005  0.2101
   19SAPC   H9R 2469   2.561   5.055   9.364 -0.2395  0.9265 -0.4760
   19SAPC  C210 2470   2.437   5.196   9.456  0.0195  0.4929  0.1943
   19SAPC  H10R 2471   2.464   5.300   9.430  0.6696  0.5502  1.0695
   19SAPC  H10S 2472   2.389   5.193   9.556 -0.8904 -1.6609 -0.2431
   19SAPC  C211 2473   2.345   5.150   9.342  0.1092  1.0415  0.4782
   19SAPC  H11R 2474   2.276   5.070   9.374 -0.9932  2.2399  1.2138
   19SAPC  C212 2475   2.338   5.197   9.211 -0.1735  0.2054 -0.4508
   19SAPC  H12R 2476   2.267   5.153   9.140 -1.8032 -0.1419  1.3062
   19SAPC  C213 2477   2.411   5.312   9.143 -0.0187 -0.4835  0.3019
   19SAPC  H13R 2478   2.425   5.293   9.034  1.5403  1.8150  0.0332
   19SAPC  H13S 2479   2.516   5.315   9.178  0.5724  0.0390 -1.4081
   19SAPC  C214 2480   2.335   5.442   9.167 -0.6799  0.1351  0.0063
   19SAPC  H14R 2481   2.276   5.457   9.258 -2.6899  0.9183 -1.3343
   19SAPC  C215 2482   2.329   5.536   9.072 -0.0150 -0.3172  0.0518
   19SAPC  H15R 2483   2.264   5.624   9.088 -0.1101 -0.2376 -0.7191
   19SAPC  C216 2484   2.402   5.533   8.942  0.5781 -0.1192  0.2289
   19SAPC  H16R 2485   2.386   5.434   8.894  0.4231  0.5738 -1.1977
   19SAPC  H16S 2486   2.509   5.536   8.972 -0.0430 -0.1390  2.6130
   19SAPC  C217 2487   2.337   5.630   8.833 -0.1773  0.0411 -0.3271
   19SAPC  H17R 2488   2.406   5.619   8.747 -1.4795  0.0420 -1.4013
   19SAPC  H17S 2489   2.340   5.735   8.868  0.5504  1.5162 -4.3367
   19SAPC  C218 2490   2.196   5.587   8.789 -0.7975 -0.2657 -0.3705
   19SAPC  H18R 2491   2.121   5.621   8.864 -1.1458 -0.7160 -0.5087
   19SAPC  H18S 2492   2.178   5.478   8.774 -1.9932 -0.0788 -0.3679
   19SAPC  C219 2493   2.164   5.658   8.659  0.6088  0.1995 -0.6015
   19SAPC  H19R 2494   2.253   5.677   8.596  0.7701 -0.2148 -0.5079
   19SAPC  H19S 2495   2.117   5.754   8.687  0.5638 -0.3789  1.5553
   19SAPC  C220 2496   2.060   5.592   8.573  0.1263  0.3131  0.7420
   19SAPC  H20R 2497   1.959   5.582   8.619 -0.2692 -0.0675 -0.1841
   19SAPC  H20S 2498   2.102   5.490   8.554 -1.9536 -0.6891  1.2750
   19SAPC  H20T 2499   2.054   5.650   8.478 -0.0121 -0.3339  0.3508
   19SAPC   C33 2500   3.434   4.986   9.802  0.3982 -0.4003 -0.2425
   19SAPC   H3X 2501   3.537   4.952   9.777 -0.1430 -1.1177 -1.5658
   19SAPC   H3Y 2502   3.452   5.071   9.872 -1.5664  0.1538 -0.3529
   19SAPC   C34 2503   3.377   5.032   9.670 -0.5797  0.4150 -0.1220
   19SAPC   H4X 2504   3.378   4.950   9.595 -2.0111  0.9672 -0.7720
   19SAPC   H4Y 2505   3.456   5.106   9.644  1.3908 -0.2825  3.2125
   19SAPC   C35 2506   3.246   5.108   9.674  0.8716  0.6118 -0.2228
   19SAPC   H5X 2507   3.255   5.176   9.762 -1.0949  3.2737 -1.9118
   19SAPC   H5Y 2508   3.165   5.032   9.681  2.6493 -1.3701 -0.3225
   19SAPC   C36 2509   3.228   5.197   9.548  0.2916  0.1561 -0.3504
   19SAPC   H6X 2510   3.249   5.144   9.452 -0.8022  1.0243 -1.0931
   19SAPC   H6Y 2511   3.306   5.275   9.554  1.8754 -1.3793  0.1173
   19SAPC   C37 2512   3.085   5.261   9.545  0.2043 -0.8608 -0.2543
   19SAPC   H7X 2513   3.084   5.335   9.628 -1.6213 -1.9615  0.7495
   19SAPC   H7Y 2514   3.012   5.178   9.546 -0.2106 -0.4987 -0.0013
   19SAPC   C38 2515   3.053   5.330   9.410 -0.2513  0.4185 -0.2211
   19SAPC   H8X 2516   3.085   5.262   9.328 -1.8696  0.3001 -0.8008
   19SAPC   H8Y 2517   3.116   5.420   9.394 -0.2580  0.6361  0.9162
   19SAPC   C39 2518   2.902   5.368   9.396  0.5976 -0.2586 -0.4836
   19SAPC   H9X 2519   2.879   5.450   9.467 -1.8310 -0.3702 -1.0596
   19SAPC   H9Y 2520   2.833   5.285   9.424 -2.4542  1.7791 -1.5315
   19SAPC  C310 2521   2.853   5.412   9.265  0.7304 -0.4417 -0.4730
   19SAPC  H10X 2522   2.915   5.492   9.219 -0.1763 -0.1418 -1.1982
   19SAPC  H10Y 2523   2.747   5.446   9.267  0.4715 -1.2480  0.5883
   19SAPC  C311 2524   2.841   5.287   9.172  0.4962 -0.2146 -0.3111
   19SAPC  H11X 2525   2.752   5.233   9.210 -1.9013  0.6060 -4.2002
   19SAPC  H11Y 2526   2.927   5.216   9.178  0.1840 -0.4837  1.2593
   19SAPC  C312 2527   2.806   5.323   9.023 -0.2068  0.7538 -0.7554
   19SAPC  H12X 2528   2.899   5.373   8.986  2.1497 -1.8076  1.2293
   19SAPC  H12Y 2529   2.717   5.390   9.025  0.0348  1.1273  2.5978
   19SAPC  C313 2530   2.787   5.199   8.945  0.2811  0.0222  0.9230
   19SAPC  H13X 2531   2.717   5.126   8.991 -2.4601  1.7084 -0.3171
   19SAPC  H13Y 2532   2.893   5.165   8.936  1.1902  3.0254 -1.4848
   19SAPC  C314 2533   2.754   5.234   8.796 -0.7029  0.4933  1.0611
   19SAPC  H14X 2534   2.835   5.299   8.755 -0.9787  0.2088  0.0445
   19SAPC  H14Y 2535   2.657   5.288   8.788  0.4173  2.8640  2.3278
   19SAPC  C315 2536   2.758   5.106   8.705  0.6695  0.5531 -0.2153
   19SAPC  H15X 2537   2.662   5.058   8.732 -0.6011  2.4165 -1.2236
   19SAPC  H15Y 2538   2.843   5.038   8.724  0.3771  0.4602  0.8344
   19SAPC  C316 2539   2.757   5.143   8.556  0.8274 -0.3134 -0.3594
   19SAPC  H16X 2540   2.850   5.195   8.523 -0.2908  1.3466 -0.9980
   19SAPC  H16Y 2541   2.673   5.213   8.539  0.3641 -0.6691  0.3857
   19SAPC  C317 2542   2.740   5.013   8.465 -0.5787 -0.7313  0.5299
   19SAPC  H17X 2543   2.696   5.047   8.369  0.9414 -2.2595 -0.7448
   19SAPC  H17Y 2544   2.665   4.946   8.514 -1.1819 -0.3764  0.1100
   19SAPC  C318 2545   2.867   4.945   8.431 -0.7524  0.8707  0.0716
   19SAPC  H18X 2546   2.948   5.017   8.405 -0.9788  1.6581  1.4257
   19SAPC  H18Y 2547   2.842   4.874   8.349 -0.4918 -0.1802  0.8926
   19SAPC  H18Z 2548   2.902   4.899   8.526 -1.6174 -1.8199 -0.8229
   20SAPC     N 2549   1.682   1.078  11.391 -0.2305 -0.3644 -0.5857
   20SAPC   C12 2550   1.757   1.158  11.282 -0.3752 -0.4259 -0.5630
   20SAPC  H12A 2551   1.861   1.163  11.312 -1.2623 -0.4627  3.0308
   20SAPC  H12B 2552   1.722   1.260  11.284  0.4922 -0.1225 -0.7076
   20SAPC   C13 2553   1.751   0.940  11.392 -0.1687 -0.8227 -0.1914
   20SAPC  H13A 2554   1.857   0.932  11.411 -0.4861 -5.4819  0.5709
   20SAPC  H13B 2555   1.701   0.871  11.459  3.0896 -1.0643  2.2196
   20SAPC  H13C 2556   1.732   0.909  11.291  0.7040  0.6542 -0.8421
   20SAPC   C14 2557   1.704   1.140  11.524 -0.7089  0.4947 -0.0797
   20SAPC  H14A 2558   1.644   1.088  11.597 -1.7671 -3.1990 -3.2384
   20SAPC  H14B 2559   1.808   1.134  11.553 -0.6774  1.3351  0.0041
   20SAPC  H14C 2560   1.667   1.241  11.534  1.3771  1.2524  0.5013
   20SAPC   C15 2561   1.537   1.061  11.354  0.1937  0.3126  0.5483
   20SAPC  H15A 2562   1.480   1.148  11.385  0.3568  0.1586  1.2923
   20SAPC  H15B 2563   1.533   1.056  11.246  1.7850 -0.5764  0.5083
   20SAPC  H15C 2564   1.490   0.977  11.403 -1.5535  1.1088  0.3276
   20SAPC   C11 2565   1.754   1.109  11.137 -0.2646  0.5233 -0.5742
   20SAPC  H11A 2566   1.791   1.180  11.060 -2.8769  0.1258 -2.3441
   20SAPC  H11B 2567   1.646   1.099  11.113 -0.0507  0.2696 -1.4671
   20SAPC     P 2568   1.946   0.950  11.039 -0.0625  0.0714 -0.0362
   20SAPC   O13 2569   2.036   1.061  11.067  0.2013 -0.2489 -0.7743
   20SAPC   O14 2570   1.988   0.812  11.072  0.2704 -0.0614 -0.1665
   20SAPC   O12 2571   1.817   0.978  11.118 -0.1808  0.2304  0.2150
   20SAPC   O11 2572   1.899   0.949  10.889 -0.1590 -0.3068  0.6764
   20SAPC    C1 2573   1.775   0.892  10.841 -0.2763 -0.1387  0.8247
   20SAPC    HA 2574   1.748   0.791  10.877 -4.6474  0.7425  0.5641
   20SAPC    HB 2575   1.696   0.960  10.879  0.6257  0.7988  1.0891
   20SAPC    C2 2576   1.779   0.884  10.691 -0.5412 -0.4445 -0.4550
   20SAPC    HS 2577   1.864   0.821  10.656 -0.4327 -1.0632  0.8798
   20SAPC   O21 2578   1.782   1.028  10.645  0.4611  0.0878  0.1665
   20SAPC   C21 2579   1.862   1.063  10.555  0.0808 -0.0238 -0.3236
   20SAPC   O22 2580   1.943   0.993  10.492  0.1773 -0.6054 -0.5699
   20SAPC   C22 2581   1.847   1.213  10.521  0.2443  0.0237  0.3646
   20SAPC   H2R 2582   1.798   1.256  10.611 -1.8115 -2.1628  0.3920
   20SAPC   H2S 2583   1.950   1.253  10.513 -0.2590  1.5465  1.2105
   20SAPC    C3 2584   1.651   0.824  10.627  0.8366 -0.5958  0.1336
   20SAPC    HX 2585   1.560   0.859  10.681  1.0783 -2.3020  1.7635
   20SAPC    HY 2586   1.650   0.716  10.652  1.5190 -0.1004  2.5186
   20SAPC   O31 2587   1.660   0.839  10.485 -0.3446 -0.3392  0.1115
   20SAPC   C31 2588   1.548   0.821  10.420  0.3488 -0.2023 -0.0538
   20SAPC   O32 2589   1.444   0.786  10.478  0.2689 -0.1580 -0.3770
   20SAPC   C32 2590   1.572   0.852  10.266  0.5262 -0.8124  0.1176
   20SAPC   H2X 2591   1.548   0.762  10.205 -0.4947 -1.0364  0.8240
   20SAPC   H2Y 2592   1.677   0.882  10.250  0.2841  0.1420  0.2988
   20SAPC   C23 2593   1.770   1.254  10.396  1.2427 -0.3748 -0.4554
   20SAPC   H3R 2594   1.778   1.364  10.392 -0.0982 -0.2207  0.4101
   20SAPC   H3S 2595   1.666   1.221  10.420  2.3502 -2.3783  2.0973
   20SAPC   C24 2596   1.809   1.185  10.273  0.5843 -0.2247 -0.4196
   20SAPC   H4R 2597   1.727   1.183  10.198  0.6771  0.0089 -0.5275
   20SAPC   H4S 2598   1.837   1.079  10.293  2.0814  0.4567  1.3664
   20SAPC   C25 2599   1.931   1.241  10.222  0.2658 -0.4262 -0.1503
   20SAPC   H5R 2600   1.959   1.343  10.254  1.2780 -0.4198 -0.9698
   20SAPC   C26 2601   1.998   1.196  10.115 -0.3203  0.3734 -0.3685
   20SAPC   H6R 2602   2.079   1.257  10.073  0.8115 -0.5533  0.4151
   20SAPC   C27 2603   1.951   1.079  10.032 -0.0949  0.5978  0.5943
   20SAPC   H7R 2604   1.847   1.099   9.998  0.6805  0.9096 -1.7932
   20SAPC   H7S 2605   1.940   0.989  10.096 -0.5181  0.8498  0.8845
   20SAPC   C28 2606   2.054   1.050   9.922 -0.0885 -0.3753  1.2027
   20SAPC   H8R 2607   2.153   1.009   9.948  0.5057 -1.7138 -2.5112
   20SAPC   C29 2608   2.034   1.089   9.785  0.7338  0.3877 -0.7553
   20SAPC   H9R 2609   2.104   1.059   9.705  0.0219  0.2810 -1.3494
   20SAPC  C210 2610   1.914   1.165   9.729 -0.5149  0.7342  0.4196
   20SAPC  H10R 2611   1.884   1.252   9.792 -1.4645 -0.6742  1.9900
   20SAPC  H10S 2612   1.831   1.094   9.743 -0.5129  0.5258 -0.5218
   20SAPC  C211 2613   1.925   1.212   9.587  0.8552 -0.1439  0.7224
   20SAPC  H11R 2614   2.025   1.223   9.541  1.0445  1.4191  1.4331
   20SAPC  C212 2615   1.824   1.223   9.500 -0.9345  0.0089  0.1869
   20SAPC  H12R 2616   1.853   1.245   9.396  3.3932 -1.5720  0.8453
   20SAPC  C213 2617   1.678   1.199   9.528  0.0919  0.1762 -0.2295
   20SAPC  H13R 2618   1.648   1.203   9.635  1.7069  0.7030  0.2315
   20SAPC  H13S 2619   1.668   1.090   9.510  3.5533 -0.1618 -0.7353
   20SAPC  C214 2620   1.582   1.282   9.446  0.5175 -1.0146  0.1033
   20SAPC  H14R 2621   1.518   1.355   9.498 -1.6444  1.1356 -4.9258
   20SAPC  C215 2622   1.547   1.251   9.320  0.2060  0.0619 -0.1949
   20SAPC  H15R 2623   1.474   1.317   9.270 -0.3972 -0.7588 -0.4296
   20SAPC  C216 2624   1.592   1.131   9.231  0.8015  0.3590  0.6748
   20SAPC  H16R 2625   1.615   1.045   9.296 -0.7617  1.0276  2.1851
   20SAPC  H16S 2626   1.690   1.145   9.179  0.9702 -2.7256  0.0037
   20SAPC  C217 2627   1.499   1.109   9.110  0.2263 -0.4662  0.2459
   20SAPC  H17R 2628   1.485   1.201   9.048 -1.2149 -0.1990  0.9271
   20SAPC  H17S 2629   1.396   1.081   9.140 -0.1862  0.5623 -0.1610
   20SAPC  C218 2630   1.541   0.986   9.025  0.0384 -0.3638 -0.3842
   20SAPC  H18R 2631   1.530   0.897   9.089 -0.1800  1.1011  1.7124
   20SAPC  H18S 2632   1.650   1.006   9.018 -0.1058  0.3095 -0.8344
   20SAPC  C219 2633   1.482   0.981   8.884 -0.0661  0.4490 -0.4153
   20SAPC  H19R 2634   1.509   0.894   8.820 -2.8506 -0.1966 -0.8447
   20SAPC  H19S 2635   1.533   1.070   8.840  1.3546  0.8676  1.9129
   20SAPC  C220 2636   1.330   0.998   8.871 -0.1155 -0.4541  0.4049
   20SAPC  H20R 2637   1.319   1.007   8.761  5.1465  2.5224 -0.1752
   20SAPC  H20S 2638   1.294   1.089   8.923  3.6372  0.6184  1.4664
   20SAPC  H20T 2639   1.265   0.916   8.910 -1.4535 -0.5635 -1.9102
   20SAPC   C33 2640   1.494   0.966  10.208 -0.6623  0.3767  0.2611
   20SAPC   H3X 2641   1.517   1.059  10.263  1.5621  1.1391 -1.8047
   20SAPC   H3Y 2642   1.384   0.946  10.202 -1.2559  2.8813  1.6060
   20SAPC   C34 2643   1.541   1.000  10.063 -0.4178 -0.2322  0.3724
   20SAPC   H4X 2644   1.652   1.009  10.063 -0.3843 -0.5966  0.0402
   20SAPC   H4Y 2645   1.502   1.103  10.054  0.7569  0.3007  1.1679
   20SAPC   C35 2646   1.482   0.902   9.957  0.2870  0.5661 -0.0334
   20SAPC   H5X 2647   1.371   0.902   9.962  0.2637  2.2699  0.0331
   20SAPC   H5Y 2648   1.509   0.795   9.966 -0.7961  0.1559 -1.4205
   20SAPC   C36 2649   1.517   0.960   9.815  0.2421  0.4583  0.3308
   20SAPC   H6X 2650   1.609   0.904   9.786 -0.4133 -1.4557  1.7681
   20SAPC   H6Y 2651   1.531   1.070   9.812  0.4156  0.4220 -0.3846
   20SAPC   C37 2652   1.407   0.922   9.699 -0.6136 -0.5772  0.4436
   20SAPC   H7X 2653   1.427   0.996   9.619 -1.4175 -0.7731  0.0493
   20SAPC   H7Y 2654   1.313   0.961   9.745  0.6929  2.2481  0.9398
   20SAPC   C38 2655   1.416   0.789   9.642  0.2320  0.8478 -0.7986
   20SAPC   H8X 2656   1.386   0.722   9.726  0.3553  1.2464 -0.4378
   20SAPC   H8Y 2657   1.524   0.781   9.617  0.1134 -1.8886 -0.7353
   20SAPC   C39 2658   1.327   0.756   9.517  0.8965 -0.1405 -0.9964
   20SAPC   H9X 2659   1.219   0.777   9.537  1.8160  2.0190  3.0009
   20SAPC   H9Y 2660   1.326   0.648   9.494 -0.1711 -0.2151 -0.6723
   20SAPC  C310 2661   1.370   0.829   9.387  0.5095  0.1106  0.4502
   20SAPC  H10X 2662   1.479   0.813   9.373  0.7132 -0.7381  2.6538
   20SAPC  H10Y 2663   1.361   0.938   9.409  1.1865  1.2049 -3.7348
   20SAPC  C311 2664   1.274   0.784   9.267  0.5656 -0.3248 -0.1158
   20SAPC  H11X 2665   1.262   0.871   9.198  1.1759 -0.0266  0.1471
   20SAPC  H11Y 2666   1.172   0.752   9.298 -0.1355  0.8199 -1.1204
   20SAPC  C312 2667   1.337   0.669   9.191  0.0949  0.6493  0.3002
   20SAPC  H12X 2668   1.329   0.582   9.260 -0.4766  1.5905  1.4665
   20SAPC  H12Y 2669   1.445   0.694   9.177 -0.6314  2.3108 -3.6315
   20SAPC  C313 2670   1.268   0.628   9.058  0.1227 -0.0041  0.2161
   20SAPC  H13X 2671   1.303   0.716   9.001  3.0917 -0.2825  1.4719
   20SAPC  H13Y 2672   1.157   0.634   9.062  0.1447  0.5610 -0.0164
   20SAPC  C314 2673   1.308   0.491   9.004 -0.8368  0.2156  0.4259
   20SAPC  H14X 2674   1.272   0.485   8.899 -1.3313  1.4657  0.5084
   20SAPC  H14Y 2675   1.258   0.420   9.073 -0.7696 -1.4535 -1.1725
   20SAPC  C315 2676   1.457   0.461   8.993 -0.1002 -0.0075  0.8287
   20SAPC  H15X 2677   1.511   0.428   9.084  0.0821  1.0288  1.1127
   20SAPC  H15Y 2678   1.503   0.556   8.958 -0.0020 -0.1675  0.5206
   20SAPC  C316 2679   1.488   0.367   8.866  0.0780 -0.2967 -0.3076
   20SAPC  H16X 2680   1.450   0.412   8.772  0.1089 -2.4850 -1.4479
   20SAPC  H16Y 2681   1.444   0.266   8.884 -0.9509  0.2004  0.0320
   20SAPC  C317 2682   1.640   0.351   8.857  0.0879 -0.1117  0.3594
   20SAPC  H17X 2683   1.683   0.305   8.948  0.7935 -1.7194 -0.7491
   20SAPC  H17Y 2684   1.670   0.458   8.850 -0.4636  0.0019 -0.4264
   20SAPC  C318 2685   1.692   0.280   8.727  0.7299 -0.3973  0.5957
   20SAPC  H18X 2686   1.661   0.173   8.727  2.9625 -1.1004  1.1131
   20SAPC  H18Y 2687   1.802   0.288   8.717  0.7131 -1.7379 -1.0834
   20SAPC  H18Z 2688   1.654   0.330   8.635 -0.2658 -1.3826  0.4407
   21SAPC     N 2689   1.020   1.994  11.196 -0.1346 -0.1083 -1.2480
   21SAPC   C12 2690   0.930   2.047  11.088 -0.1286 -0.1778 -0.1449
   21SAPC  H12A 2691   0.879   2.134  11.129  1.5505  1.7230 -1.8509
   21SAPC  H12B 2692   0.853   1.974  11.071  0.6781 -0.6495 -2.0023
   21SAPC   C13 2693   0.940   1.964  11.321  0.2814 -0.1126 -0.1657
   21SAPC  H13A 2694   0.865   2.041  11.331  1.0703  0.5683  0.7001
   21SAPC  H13B 2695   0.894   1.867  11.313  1.2239 -1.0112  3.4269
   21SAPC  H13C 2696   1.007   1.967  11.406 -0.3556  1.8737  0.3359
   21SAPC   C14 2697   1.077   1.866  11.148  0.5484 -0.8750 -0.1764
   21SAPC  H14A 2698   1.137   1.808  11.216 -1.2353 -2.0766  0.4491
   21SAPC  H14B 2699   0.999   1.805  11.105  0.3097 -1.0670  0.5204
   21SAPC  H14C 2700   1.125   1.889  11.054  2.3486  1.1317  1.1441
   21SAPC   C15 2701   1.121   2.093  11.239  0.2752  0.6561 -0.0992
   21SAPC  H15A 2702   1.169   2.072  11.333  1.9465  1.4009 -0.7369
   21SAPC  H15B 2703   1.198   2.106  11.164  0.6800 -1.4254 -0.0955
   21SAPC  H15C 2704   1.075   2.191  11.243 -1.3324 -0.1070  0.9932
   21SAPC   C11 2705   1.006   2.080  10.959 -0.7759 -0.0615  0.2775
   21SAPC  H11A 2706   1.094   2.140  10.991 -1.5707  0.5393  1.4108
   21SAPC  H11B 2707   0.942   2.147  10.899  0.1166  1.5544  1.0741
   21SAPC     P 2708   1.072   1.969  10.733 -0.3703  0.2737  0.2011
   21SAPC   O13 2709   1.216   1.941  10.715 -0.5763  0.4149 -0.1368
   21SAPC   O14 2710   0.985   1.876  10.660 -0.0294 -0.4402 -0.3948
   21SAPC   O12 2711   1.041   1.959  10.883  0.6476 -0.6026  0.0243
   21SAPC   O11 2712   1.038   2.116  10.689  0.2245  0.1159 -0.5441
   21SAPC    C1 2713   0.911   2.129  10.619  0.1245  0.0611  0.7780
   21SAPC    HA 2714   0.819   2.090  10.667 -0.1545 -3.2390 -2.0428
   21SAPC    HB 2715   0.898   2.239  10.624  0.2088  0.1452 -0.5688
   21SAPC    C2 2716   0.921   2.099  10.460 -0.2126  0.1129 -0.9435
   21SAPC    HS 2717   0.889   1.994  10.443 -0.4312  0.3119 -1.8251
   21SAPC   O21 2718   1.057   2.100  10.413  0.2335  0.5765  0.0399
   21SAPC   C21 2719   1.128   2.212  10.427 -0.0559 -0.1286 -0.1402
   21SAPC   O22 2720   1.085   2.324  10.448  0.1312  0.2617 -0.5570
   21SAPC   C22 2721   1.276   2.177  10.429 -0.1244  0.0486  0.2209
   21SAPC   H2R 2722   1.323   2.265  10.477 -0.9292  0.4735  0.2571
   21SAPC   H2S 2723   1.303   2.096  10.500 -0.5139  0.6228  1.0444
   21SAPC    C3 2724   0.824   2.186  10.376  0.0310 -0.3291  0.2653
   21SAPC    HX 2725   0.869   2.264  10.312 -0.2247 -0.7246 -0.4010
   21SAPC    HY 2726   0.761   2.242  10.449  0.1099 -0.9261  0.8034
   21SAPC   O31 2727   0.727   2.106  10.305 -0.1068  0.6510  0.2513
   21SAPC   C31 2728   0.638   2.175  10.225  1.0201  0.3406 -0.5789
   21SAPC   O32 2729   0.631   2.297  10.230 -0.0379  0.6366 -0.2187
   21SAPC   C32 2730   0.555   2.083  10.153  0.3583 -0.4580  0.9712
   21SAPC   H2X 2731   0.464   2.050  10.209 -0.0742  0.6858  0.9573
   21SAPC   H2Y 2732   0.615   1.993  10.126  1.7621  1.4860 -3.2088
   21SAPC   C23 2733   1.356   2.166  10.301 -0.3094  0.0560  0.9212
   21SAPC   H3R 2734   1.460   2.137  10.328  0.0422  2.3123  2.2280
   21SAPC   H3S 2735   1.366   2.260  10.242 -2.2075 -0.9135 -1.1210
   21SAPC   C24 2736   1.297   2.059  10.195 -0.1245  0.1499  0.2580
   21SAPC   H4R 2737   1.348   2.072  10.097  1.4062  0.7404  1.1018
   21SAPC   H4S 2738   1.192   2.086  10.168 -0.0076  1.3379  0.9389
   21SAPC   C25 2739   1.296   1.920  10.246 -0.0227  0.0864 -0.6639
   21SAPC   H5R 2740   1.225   1.898  10.327  0.2141  0.8870 -0.2321
   21SAPC   C26 2741   1.386   1.826  10.224 -0.3581 -0.2942 -0.2828
   21SAPC   H6R 2742   1.386   1.726  10.269  2.5833 -0.2480  0.0078
   21SAPC   C27 2743   1.516   1.844  10.147 -0.6218 -0.2389 -0.1531
   21SAPC   H7R 2744   1.544   1.951  10.134  0.5895 -0.7895 -2.5235
   21SAPC   H7S 2745   1.506   1.806  10.043 -0.7884  3.4205 -1.6513
   21SAPC   C28 2746   1.628   1.772  10.226  0.0653  0.6424 -0.3029
   21SAPC   H8R 2747   1.694   1.833  10.289  1.0338  0.0838 -0.7594
   21SAPC   C29 2748   1.660   1.635  10.229 -0.0454 -0.7710  0.2001
   21SAPC   H9R 2749   1.725   1.596  10.309 -0.6158  0.5945  1.3794
   21SAPC  C210 2750   1.584   1.542  10.140 -0.3895  0.6972  0.0065
   21SAPC  H10R 2751   1.496   1.594  10.096  0.3964  1.5357 -0.6082
   21SAPC  H10S 2752   1.540   1.463  10.203  0.6393  0.8672  0.9748
   21SAPC  C211 2753   1.668   1.478  10.032  0.3951 -0.1612 -0.1142
   21SAPC  H11R 2754   1.774   1.467  10.058  1.4947  0.4998 -3.7200
   21SAPC  C212 2755   1.631   1.434   9.910  0.5341 -0.8303 -0.1483
   21SAPC  H12R 2756   1.714   1.411   9.841  0.6655 -1.0730  0.0821
   21SAPC  C213 2757   1.495   1.468   9.843 -0.8386 -0.0258 -0.2512
   21SAPC  H13R 2758   1.522   1.521   9.749  2.9361 -1.3530 -0.0839
   21SAPC  H13S 2759   1.429   1.540   9.894 -2.2600 -0.5992 -1.2159
   21SAPC  C214 2760   1.423   1.341   9.808  1.2111 -0.0573 -0.1095
   21SAPC  H14R 2761   1.462   1.252   9.859  1.5701  0.6385  0.8731
   21SAPC  C215 2762   1.310   1.329   9.728 -0.1807 -0.0593  0.0207
   21SAPC  H15R 2763   1.256   1.233   9.723 -0.6540  0.1891  0.3054
   21SAPC  C216 2764   1.238   1.441   9.659  0.2839 -0.2679 -0.4336
   21SAPC  H16R 2765   1.285   1.534   9.697  2.9839 -0.6835 -2.4387
   21SAPC  H16S 2766   1.135   1.443   9.701  1.4217 -0.9291  2.6560
   21SAPC  C217 2767   1.259   1.431   9.515  0.0867  0.0663 -0.1901
   21SAPC  H17R 2768   1.265   1.326   9.480 -0.9883  0.0447 -0.3253
   21SAPC  H17S 2769   1.348   1.490   9.482 -0.3250  0.6595 -0.2682
   21SAPC  C218 2770   1.141   1.497   9.437  0.7079  0.5138 -0.2687
   21SAPC  H18R 2771   1.145   1.607   9.449 -0.7239  0.4393  1.2352
   21SAPC  H18S 2772   1.047   1.459   9.483  0.9507 -0.2875 -0.4188
   21SAPC  C219 2773   1.142   1.463   9.289  0.2027 -0.2297 -0.4253
   21SAPC  H19R 2774   1.036   1.454   9.261 -0.3398 -0.7341  1.5886
   21SAPC  H19S 2775   1.187   1.361   9.285 -1.5136 -1.1255  1.4689
   21SAPC  C220 2776   1.213   1.567   9.204 -0.2902  0.0734 -0.0543
   21SAPC  H20R 2777   1.320   1.551   9.231 -0.1228 -0.3622 -0.9250
   21SAPC  H20S 2778   1.183   1.673   9.214  3.3397  1.1403  0.8623
   21SAPC  H20T 2779   1.201   1.528   9.101  0.9471 -1.7257  0.4263
   21SAPC   C33 2780   0.508   2.139  10.017 -0.0948  0.6701  0.3208
   21SAPC   H3X 2781   0.474   2.244  10.025 -1.1082  0.5213 -1.5282
   21SAPC   H3Y 2782   0.416   2.082   9.990 -1.0459  2.0467  0.5565
   21SAPC   C34 2783   0.612   2.121   9.906 -0.6232  0.0158  0.2895
   21SAPC   H4X 2784   0.578   2.166   9.811  1.2698 -1.4186 -1.1482
   21SAPC   H4Y 2785   0.639   2.015   9.886  1.2913  0.9074 -2.4745
   21SAPC   C35 2786   0.750   2.192   9.929 -0.2341 -0.0104  0.0368
   21SAPC   H5X 2787   0.807   2.146  10.013 -1.4685 -0.7472  0.4905
   21SAPC   H5Y 2788   0.721   2.292   9.968  1.8916  0.3026  0.9631
   21SAPC   C36 2789   0.845   2.193   9.816 -0.0129 -0.5172  0.3381
   21SAPC   H6X 2790   0.872   2.086   9.803  1.9669 -0.3543  2.5026
   21SAPC   H6Y 2791   0.943   2.235   9.847  0.0316 -0.5091  0.1929
   21SAPC   C37 2792   0.791   2.270   9.695 -0.1018  0.5065  0.7092
   21SAPC   H7X 2793   0.865   2.342   9.654 -0.2984 -1.3041 -3.3218
   21SAPC   H7Y 2794   0.704   2.336   9.717 -1.4197 -1.0375  0.3012
   21SAPC   C38 2795   0.766   2.176   9.568 -0.0519  0.0733 -0.6264
   21SAPC   H8X 2796   0.670   2.123   9.587  0.7240 -1.6040 -1.2498
   21SAPC   H8Y 2797   0.843   2.097   9.568 -0.0053  0.0871  0.9914
   21SAPC   C39 2798   0.777   2.245   9.429  0.0717  0.4537 -0.2469
   21SAPC   H9X 2799   0.880   2.282   9.409  0.0030  1.9095  1.7813
   21SAPC   H9Y 2800   0.721   2.341   9.430  0.3864  0.6346  0.5966
   21SAPC  C310 2801   0.740   2.162   9.312 -0.4236  0.1179 -0.1851
   21SAPC  H10X 2802   0.658   2.092   9.338  0.5300 -0.4452  1.4017
   21SAPC  H10Y 2803   0.833   2.104   9.295  0.2215  1.3342 -1.0236
   21SAPC  C311 2804   0.710   2.244   9.190  0.1687  0.5668  0.0859
   21SAPC  H11X 2805   0.809   2.290   9.169  0.7876  0.0760  1.7638
   21SAPC  H11Y 2806   0.627   2.316   9.205  0.5499  0.8647  0.8220
   21SAPC  C312 2807   0.672   2.152   9.060  0.0069  0.0842  0.0807
   21SAPC  H12X 2808   0.767   2.101   9.031  1.0107  2.1506 -0.5019
   21SAPC  H12Y 2809   0.631   2.221   8.984 -0.3525 -1.4151 -1.1242
   21SAPC  C313 2810   0.578   2.045   9.101 -0.6073 -0.2244 -0.8259
   21SAPC  H13X 2811   0.500   2.068   9.177 -0.0120 -1.1413  0.0963
   21SAPC  H13Y 2812   0.622   1.955   9.149  0.8813  0.3510 -1.0458
   21SAPC  C314 2813   0.488   1.998   8.984  0.3253 -0.2172  0.7671
   21SAPC  H14X 2814   0.550   1.945   8.909 -1.9524 -2.6661  0.5007
   21SAPC  H14Y 2815   0.439   2.083   8.932  0.1371 -0.9180 -0.2354
   21SAPC  C315 2816   0.390   1.892   9.033  0.8739 -0.4880 -0.3502
   21SAPC  H15X 2817   0.357   1.933   9.131 -1.8989  2.4182 -2.3118
   21SAPC  H15Y 2818   0.440   1.795   9.054  1.6495  0.2736  1.5780
   21SAPC  C316 2819   0.263   1.896   8.949 -0.4762  0.0058 -0.3128
   21SAPC  H16X 2820   0.274   1.836   8.856  1.0784 -0.0373 -0.1304
   21SAPC  H16Y 2821   0.237   2.001   8.924 -1.8310 -0.0013  0.9337
   21SAPC  C317 2822   0.138   1.855   9.040  0.3053  0.0673 -0.5175
   21SAPC  H17X 2823   0.151   1.912   9.135  3.8609 -3.5533  1.4937
   21SAPC  H17Y 2824   0.149   1.748   9.065 -0.9503 -0.5156 -2.2752
   21SAPC  C318 2825  -0.003   1.865   8.969  0.4393 -0.2825 -0.2736
   21SAPC  H18X 2826  -0.084   1.831   9.038 -0.0420 -1.1346 -1.2273
   21SAPC  H18Y 2827   0.003   1.801   8.879 -0.1850  0.1601 -0.6322
   21SAPC  H18Z 2828  -0.022   1.969   8.938 -0.8667 -0.4736 -0.1656
   22SAPC     N 2829   1.662   4.322  10.834  0.3262 -0.3630 -0.2181
   22SAPC   C12 2830   1.554   4.314  10.728  0.5894  1.0255 -0.0528
   22SAPC  H12A 2831   1.542   4.407  10.674  1.1756  1.1577  0.0360
   22SAPC  H12B 2832   1.462   4.283  10.775 -0.2323  0.1053 -2.1466
   22SAPC   C13 2833   1.690   4.197  10.903 -0.1075 -0.4090 -0.6481
   22SAPC  H13A 2834   1.788   4.205  10.949 -0.4534  0.4186 -0.0326
   22SAPC  H13B 2835   1.613   4.178  10.975 -1.6267  4.1106 -0.7988
   22SAPC  H13C 2836   1.691   4.109  10.840  2.9729  0.7947 -2.5448
   22SAPC   C14 2837   1.787   4.365  10.768 -0.6721  0.3052  0.6955
   22SAPC  H14A 2838   1.784   4.457  10.711 -0.4146 -0.0247  0.1476
   22SAPC  H14B 2839   1.864   4.384  10.841 -0.1352  1.8128 -0.2080
   22SAPC  H14C 2840   1.819   4.292  10.695 -1.7125  1.8176 -1.3815
   22SAPC   C15 2841   1.620   4.421  10.945 -0.0998 -0.6287  0.0893
   22SAPC  H15A 2842   1.698   4.430  11.018 -1.0477 -0.5996  1.1370
   22SAPC  H15B 2843   1.607   4.520  10.903  0.5243 -0.5310  0.1309
   22SAPC  H15C 2844   1.531   4.399  11.003 -1.9187  1.5355 -1.7039
   22SAPC   C11 2845   1.559   4.209  10.614  0.2414  1.0825  0.8091
   22SAPC  H11A 2846   1.654   4.210  10.557 -1.6477  1.6824 -2.6229
   22SAPC  H11B 2847   1.490   4.250  10.537 -0.2096  1.5933  1.4711
   22SAPC     P 2848   1.383   4.042  10.678  0.3705  0.1360  0.2912
   22SAPC   O13 2849   1.358   3.905  10.727 -0.2218 -0.5243  0.3649
   22SAPC   O14 2850   1.312   4.154  10.741  0.8264 -0.0012  0.9349
   22SAPC   O12 2851   1.531   4.076  10.652  0.2039  0.6837  0.0570
   22SAPC   O11 2852   1.344   4.050  10.523 -0.1750  0.1930  0.1927
   22SAPC    C1 2853   1.217   3.991  10.476  0.0419 -0.2987  0.3158
   22SAPC    HA 2854   1.237   3.889  10.437  2.2078  0.3320 -0.3363
   22SAPC    HB 2855   1.137   3.990  10.553 -1.7755  0.6979 -1.4614
   22SAPC    C2 2856   1.162   4.079  10.355  0.0077  0.1247  0.3374
   22SAPC    HS 2857   1.056   4.058  10.330 -0.5864  0.9577  1.9558
   22SAPC   O21 2858   1.248   4.079  10.236  0.3804  0.1800 -0.1607
   22SAPC   C21 2859   1.210   3.981  10.157 -0.0192 -0.1461  0.1487
   22SAPC   O22 2860   1.125   3.899  10.182 -1.0873 -0.4607 -0.3078
   22SAPC   C22 2861   1.293   3.993  10.029 -0.4726 -0.5053 -0.7019
   22SAPC   H2R 2862   1.297   4.097   9.990  1.2757 -0.8016 -1.4088
   22SAPC   H2S 2863   1.395   3.963  10.063 -0.0466  2.7190  1.3688
   22SAPC    C3 2864   1.166   4.229  10.407 -0.0991  0.2458 -0.0116
   22SAPC    HX 2865   1.271   4.265  10.397  0.0615 -0.6269 -1.9096
   22SAPC    HY 2866   1.143   4.230  10.515 -0.4075  2.0045 -0.0587
   22SAPC   O31 2867   1.079   4.318  10.335  0.0302  0.1512  0.0429
   22SAPC   C31 2868   0.950   4.311  10.355 -0.9270  0.4307 -0.0474
   22SAPC   O32 2869   0.899   4.232  10.434  0.5573 -0.2725 -0.0913
   22SAPC   C32 2870   0.884   4.412  10.254  0.2000  0.0681  0.6035
   22SAPC   H2X 2871   0.938   4.509  10.255 -0.8608  0.6917 -0.4761
   22SAPC   H2Y 2872   0.783   4.426  10.298 -1.0103 -0.4900 -1.8589
   22SAPC   C23 2873   1.252   3.888   9.916  0.1824 -1.0787 -0.8565
   22SAPC   H3R 2874   1.271   3.786   9.954  0.5545 -0.9108 -0.5883
   22SAPC   H3S 2875   1.316   3.924   9.832  0.8038  1.9299  0.7739
   22SAPC   C24 2876   1.107   3.904   9.874 -0.3205 -0.0979  0.6525
   22SAPC   H4R 2877   1.077   4.011   9.870 -1.8340 -0.0128  5.8935
   22SAPC   H4S 2878   1.042   3.857   9.952 -0.9556 -2.0339 -0.9649
   22SAPC   C25 2879   1.099   3.842   9.732 -0.5095  0.4249 -0.2028
   22SAPC   H5R 2880   1.091   3.912   9.648  1.2930  1.2236  0.2559
   22SAPC   C26 2881   1.111   3.707   9.712  0.6458  0.6021  0.0098
   22SAPC   H6R 2882   1.098   3.670   9.609  0.6719 -2.2601  0.9485
   22SAPC   C27 2883   1.128   3.599   9.813  0.0765  1.4531 -0.3702
   22SAPC   H7R 2884   1.069   3.510   9.784  3.3451 -1.4829  1.1793
   22SAPC   H7S 2885   1.080   3.628   9.909  0.0729 -1.2635  0.5305
   22SAPC   C28 2886   1.267   3.551   9.828 -0.4714  0.2992  0.0054
   22SAPC   H8R 2887   1.324   3.603   9.907 -0.4814 -1.9935  1.6238
   22SAPC   C29 2888   1.319   3.449   9.757 -0.2680 -1.0230  1.2436
   22SAPC   H9R 2889   1.423   3.422   9.782  0.5232  0.7122 -0.0340
   22SAPC  C210 2890   1.239   3.368   9.656 -0.1870  0.7007  0.2368
   22SAPC  H10R 2891   1.181   3.430   9.584  0.7182  0.6939 -0.5170
   22SAPC  H10S 2892   1.153   3.315   9.702 -0.0866 -0.9307 -1.3846
   22SAPC  C211 2893   1.335   3.265   9.598  0.0358 -0.0873  0.0012
   22SAPC  H11R 2894   1.343   3.172   9.657 -2.6477 -0.5626 -0.2237
   22SAPC  C212 2895   1.414   3.283   9.488  0.7286 -0.5977  0.2754
   22SAPC  H12R 2896   1.477   3.198   9.458  3.0082  1.8126 -2.4133
   22SAPC  C213 2897   1.415   3.409   9.401 -0.0065 -0.8067 -0.0293
   22SAPC  H13R 2898   1.445   3.501   9.455 -0.9114  0.9607 -2.3921
   22SAPC  H13S 2899   1.313   3.435   9.365 -0.4656 -1.0066  1.0902
   22SAPC  C214 2900   1.504   3.389   9.281 -0.2135  0.1446  0.0868
   22SAPC  H14R 2901   1.609   3.421   9.296 -0.8900  0.8402  4.6417
   22SAPC  C215 2902   1.472   3.324   9.169 -0.2299  0.3805 -0.6315
   22SAPC  H15R 2903   1.535   3.352   9.083 -1.3671  0.5011 -1.4463
   22SAPC  C216 2904   1.344   3.258   9.132 -0.1841  0.1810  0.1200
   22SAPC  H16R 2905   1.284   3.332   9.074 -0.3035 -0.6390 -0.8270
   22SAPC  H16S 2906   1.283   3.218   9.216 -0.5860 -0.9013 -0.6634
   22SAPC  C217 2907   1.384   3.136   9.044 -0.5618  0.3120 -0.0719
   22SAPC  H17R 2908   1.442   3.067   9.109  0.0373  2.1694  1.4825
   22SAPC  H17S 2909   1.443   3.168   8.955  0.2301 -0.3993  0.1822
   22SAPC  C218 2910   1.260   3.061   8.985  0.1268  0.1380  0.4752
   22SAPC  H18R 2911   1.217   3.140   8.919  4.5918  1.5499 -1.1470
   22SAPC  H18S 2912   1.180   3.039   9.059 -0.3085  0.2385  0.0435
   22SAPC  C219 2913   1.279   2.953   8.886  0.1805  0.4303 -0.2364
   22SAPC  H19R 2914   1.182   2.921   8.842 -1.4946  2.8808  1.3678
   22SAPC  H19S 2915   1.317   2.862   8.937  1.5514 -0.1816 -2.2371
   22SAPC  C220 2916   1.371   2.984   8.771 -0.1205  0.0417 -0.4739
   22SAPC  H20R 2917   1.378   2.893   8.708  0.9083 -0.9421  1.0027
   22SAPC  H20S 2918   1.473   2.994   8.812  0.5862  2.3140 -2.5497
   22SAPC  H20T 2919   1.349   3.077   8.715  1.7335  0.7848 -0.0212
   22SAPC   C33 2920   0.876   4.363  10.109  0.4661  0.2104  0.5655
   22SAPC   H3X 2921   0.827   4.441  10.046 -0.3980  0.3496  1.3910
   22SAPC   H3Y 2922   0.817   4.269  10.102  1.5716 -0.4684  0.0697
   22SAPC   C34 2923   1.007   4.330  10.040  0.3300  0.4214 -0.6762
   22SAPC   H4X 2924   1.068   4.269  10.109  1.3984  0.0707 -1.8955
   22SAPC   H4Y 2925   1.046   4.430  10.009  1.2636  0.2875  0.0459
   22SAPC   C35 2926   0.999   4.244   9.908 -0.2304  0.5628 -0.1265
   22SAPC   H5X 2927   0.934   4.157   9.932  0.7158 -0.0651  0.2332
   22SAPC   H5Y 2928   1.102   4.212   9.881 -0.7207 -0.7439 -0.5387
   22SAPC   C36 2929   0.937   4.305   9.786 -0.1550 -0.2332  0.1803
   22SAPC   H6X 2930   1.001   4.394   9.768 -0.9539  0.2690 -0.2162
   22SAPC   H6Y 2931   0.835   4.343   9.810  0.4651  0.5321  1.7209
   22SAPC   C37 2932   0.939   4.204   9.674 -0.6294  0.4839 -1.0445
   22SAPC   H7X 2933   0.883   4.118   9.716 -1.4823  1.2801 -0.5034
   22SAPC   H7Y 2934   1.044   4.178   9.651 -0.2246  3.1772 -2.7585
   22SAPC   C38 2935   0.873   4.259   9.547 -0.2475 -0.6650  0.2695
   22SAPC   H8X 2936   0.916   4.362   9.547  0.4608 -0.8869  2.9152
   22SAPC   H8Y 2937   0.763   4.270   9.556 -0.5183 -2.0750 -1.0475
   22SAPC   C39 2938   0.907   4.196   9.420  0.7401  0.5356  0.2218
   22SAPC   H9X 2939   0.863   4.094   9.419 -1.2453  1.3236 -1.9715
   22SAPC   H9Y 2940   1.016   4.178   9.406  0.2678 -0.9868 -2.0531
   22SAPC  C310 2941   0.847   4.270   9.302  0.0244 -0.4034 -0.2387
   22SAPC  H10X 2942   0.914   4.354   9.276  0.5774 -0.9556 -0.6279
   22SAPC  H10Y 2943   0.750   4.316   9.329  1.0070  2.3278 -1.0245
   22SAPC  C311 2944   0.842   4.178   9.178  0.5719  0.1149 -0.6248
   22SAPC  H11X 2945   0.780   4.088   9.192 -0.0318  0.2573 -2.2462
   22SAPC  H11Y 2946   0.949   4.148   9.178  0.8840  1.1724 -1.0302
   22SAPC  C312 2947   0.803   4.252   9.052 -0.4386 -0.0142  0.4418
   22SAPC  H12X 2948   0.876   4.325   9.012 -2.3698  1.3917 -0.6890
   22SAPC  H12Y 2949   0.713   4.316   9.064 -1.0328 -1.0738  1.8020
   22SAPC  C313 2950   0.763   4.155   8.934 -0.2090  0.5898 -0.4393
   22SAPC  H13X 2951   0.660   4.117   8.950  0.7266 -1.0116  2.4935
   22SAPC  H13Y 2952   0.829   4.066   8.937 -0.9102  0.0632 -0.4954
   22SAPC  C314 2953   0.782   4.224   8.802  0.3971  0.0556  0.4292
   22SAPC  H14X 2954   0.698   4.290   8.771 -0.2138 -0.7492  0.3236
   22SAPC  H14Y 2955   0.776   4.147   8.722  2.8539 -0.3592  0.5810
   22SAPC  C315 2956   0.914   4.292   8.764  0.1714  0.0364 -0.2303
   22SAPC  H15X 2957   0.986   4.214   8.730 -2.0187 -2.4786  0.5929
   22SAPC  H15Y 2958   0.963   4.344   8.849 -2.4147 -0.7968  1.8844
   22SAPC  C316 2959   0.892   4.386   8.638 -0.7909 -0.7177 -0.8381
   22SAPC  H16X 2960   0.832   4.472   8.673 -0.6297 -1.4306  1.2976
   22SAPC  H16Y 2961   0.841   4.333   8.554 -1.9190  1.7542 -1.8208
   22SAPC  C317 2962   1.021   4.459   8.575  1.0889 -0.0302  0.2584
   22SAPC  H17X 2963   1.095   4.382   8.545 -0.1532 -0.9648 -0.4786
   22SAPC  H17Y 2964   1.058   4.522   8.659 -1.0724  2.4373 -0.5197
   22SAPC  C318 2965   0.988   4.544   8.455 -0.9139 -0.4706 -0.4429
   22SAPC  H18X 2966   0.939   4.480   8.378 -0.7509 -0.5217 -0.5046
   22SAPC  H18Y 2967   1.077   4.597   8.415 -0.8384 -1.2141 -1.2987
   22SAPC  H18Z 2968   0.913   4.617   8.492 -0.2628 -1.1184  2.3245
   23SAPC     N 2969   2.900   1.106  11.107 -0.2514 -0.9403  0.0056
   23SAPC   C12 2970   3.014   1.143  11.009  0.1555  0.5810  0.0566
   23SAPC  H12A 2971   3.047   1.245  11.028  2.1875  0.2814 -1.5613
   23SAPC  H12B 2972   2.961   1.141  10.915 -0.9379  3.3491  0.4973
   23SAPC   C13 2973   2.924   1.117  11.255  0.2964 -0.2132 -0.3582
   23SAPC  H13A 2974   2.840   1.088  11.316  1.3425 -0.5221  1.0038
   23SAPC  H13B 2975   3.010   1.065  11.296 -0.7819 -1.3845  0.4797
   23SAPC  H13C 2976   2.942   1.220  11.281  1.9218 -0.2771 -1.0937
   23SAPC   C14 2977   2.790   1.195  11.065  0.1153  0.8270  0.5788
   23SAPC  H14A 2978   2.826   1.296  11.050 -0.9767  1.1005 -0.3864
   23SAPC  H14B 2979   2.739   1.165  10.974 -0.6766  0.0974  1.2551
   23SAPC  H14C 2980   2.709   1.202  11.135 -0.9260 -1.5611 -0.2820
   23SAPC   C15 2981   2.858   0.971  11.088 -0.1237  0.1932  1.0799
   23SAPC  H15A 2982   2.936   0.897  11.099  1.0113  0.7084 -2.4481
   23SAPC  H15B 2983   2.769   0.952  11.147 -2.0132  1.9755 -1.0213
   23SAPC  H15C 2984   2.825   0.953  10.987  1.8893  1.0265  0.2345
   23SAPC   C11 2985   3.140   1.065  11.010 -0.3305  0.0466  0.5018
   23SAPC  H11A 2986   3.167   1.045  11.116  1.0654  0.7579  0.2941
   23SAPC  H11B 2987   3.232   1.113  10.971 -0.1700 -0.2735  0.4808
   23SAPC     P 2988   3.140   0.926  10.788  0.2693  0.1429 -0.0236
   23SAPC   O13 2989   3.233   0.815  10.755 -0.6248 -0.3368 -0.0485
   23SAPC   O14 2990   3.003   0.918  10.734 -0.4588  0.4470 -0.4500
   23SAPC   O12 2991   3.136   0.937  10.943  0.2293 -0.6002 -0.4445
   23SAPC   O11 2992   3.203   1.063  10.745  0.1380  0.1042  0.0484
   23SAPC    C1 2993   3.136   1.150  10.659  0.3541  0.0281 -0.5836
   23SAPC    HA 2994   3.029   1.163  10.685  0.3102  2.0704 -1.5647
   23SAPC    HB 2995   3.179   1.252  10.672  0.4348 -0.2176  1.3160
   23SAPC    C2 2996   3.159   1.114  10.512  0.5342 -0.2030  0.8895
   23SAPC    HS 2997   3.166   1.202  10.444 -1.9995  0.2075  1.0527
   23SAPC   O21 2998   3.051   1.030  10.469  0.0214  0.5963 -0.1099
   23SAPC   C21 2999   3.000   1.055  10.345  0.1701  0.1077  0.0274
   23SAPC   O22 3000   3.026   1.155  10.275  0.3175 -0.0817 -0.0151
   23SAPC   C22 3001   2.885   0.959  10.311  0.9551 -0.0521  0.5882
   23SAPC   H2R 3002   2.903   0.857  10.353 -0.5306 -0.4494  0.3179
   23SAPC   H2S 3003   2.796   1.010  10.353  1.4076  0.4150  0.9866
   23SAPC    C3 3004   3.294   1.049  10.480 -0.0136  0.0055 -0.9436
   23SAPC    HX 3005   3.296   0.946  10.521  1.9616 -0.2153 -1.4710
   23SAPC    HY 3006   3.358   1.105  10.551  0.0259 -0.4311 -0.6308
   23SAPC   O31 3007   3.347   1.064  10.344  0.1133 -0.3955 -0.9745
   23SAPC   C31 3008   3.331   0.956  10.271 -0.5456 -0.7456  0.0893
   23SAPC   O32 3009   3.268   0.858  10.303  0.3138  0.5924 -0.6465
   23SAPC   C32 3010   3.410   0.957  10.146 -0.4950  0.0068 -0.0681
   23SAPC   H2X 3011   3.351   0.916  10.061  1.9621 -0.8616 -1.4456
   23SAPC   H2Y 3012   3.495   0.888  10.165  0.2662  0.8059 -0.4864
   23SAPC   C23 3013   2.861   0.939  10.159 -0.5689  0.0378  0.4479
   23SAPC   H3R 3014   2.811   1.033  10.128 -0.5356 -0.1509 -0.1870
   23SAPC   H3S 3015   2.782   0.860  10.163 -0.8930  0.2914 -0.6528
   23SAPC   C24 3016   2.981   0.895  10.078  0.3700 -0.4123  0.6346
   23SAPC   H4R 3017   3.027   0.812  10.135 -2.3098 -1.7346  1.0382
   23SAPC   H4S 3018   3.051   0.980  10.063  1.3791 -1.3042  0.1469
   23SAPC   C25 3019   2.950   0.834   9.939 -0.3290  0.6379 -0.9265
   23SAPC   H5R 3020   2.926   0.727   9.947  1.5494  0.2624  0.3215
   23SAPC   C26 3021   2.969   0.879   9.814  0.2906 -0.1830 -0.0259
   23SAPC   H6R 3022   2.920   0.823   9.734 -1.7115 -0.6061  1.4007
   23SAPC   C27 3023   3.024   1.017   9.783 -0.6939  0.6912  0.0744
   23SAPC   H7R 3024   3.071   1.065   9.872 -0.8866  1.5555 -0.2756
   23SAPC   H7S 3025   2.945   1.094   9.772 -1.2896  0.2092  0.8776
   23SAPC   C28 3026   3.122   1.036   9.666 -0.1824 -0.2389  0.1087
   23SAPC   H8R 3027   3.216   1.089   9.685  1.0085 -2.6369  1.3725
   23SAPC   C29 3028   3.101   1.001   9.542 -0.3552 -0.6323  0.4049
   23SAPC   H9R 3029   3.179   1.028   9.469  0.1131 -0.9583  0.7788
   23SAPC  C210 3030   2.997   0.925   9.467  0.1634  0.1008  0.3647
   23SAPC  H10R 3031   2.908   0.908   9.531 -2.2006 -0.6597 -2.8648
   23SAPC  H10S 3032   3.028   0.820   9.451 -1.2104 -0.3241  0.4270
   23SAPC  C211 3033   2.947   0.984   9.343 -0.4020  0.3868  0.2902
   23SAPC  H11R 3034   2.855   1.043   9.355  0.0153  1.1272 -0.0849
   23SAPC  C212 3035   3.009   0.984   9.225  0.1464  0.0774  0.2189
   23SAPC  H12R 3036   2.943   1.015   9.143  1.2878  0.9740 -0.3918
   23SAPC  C213 3037   3.146   0.917   9.190  0.4678  0.2877  0.2624
   23SAPC  H13R 3038   3.146   0.807   9.209 -1.8578  0.2348  0.1818
   23SAPC  H13S 3039   3.217   0.957   9.265 -1.0780 -0.1839  2.0599
   23SAPC  C214 3040   3.175   0.942   9.047  0.3382 -0.2006 -0.4732
   23SAPC  H14R 3041   3.211   1.043   9.024  0.2082  0.6833  2.7798
   23SAPC  C215 3042   3.165   0.862   8.944  0.6201  0.3727  0.5493
   23SAPC  H15R 3043   3.173   0.901   8.842  1.0904 -1.7632 -0.2933
   23SAPC  C216 3044   3.104   0.719   8.955 -0.3485  0.0531 -0.4121
   23SAPC  H16R 3045   3.013   0.703   9.018  1.0834  0.4675  1.8940
   23SAPC  H16S 3046   3.184   0.664   9.009  0.9401  1.4905 -0.7882
   23SAPC  C217 3047   3.083   0.637   8.824 -0.5856 -0.2518 -0.5766
   23SAPC  H17R 3048   3.159   0.677   8.754 -0.2135 -1.0456 -0.6368
   23SAPC  H17S 3049   2.982   0.658   8.783 -0.4760  1.1275 -0.1918
   23SAPC  C218 3050   3.092   0.485   8.850  0.0920 -0.0024  0.2680
   23SAPC  H18R 3051   3.080   0.456   8.957  1.0894  1.3761  0.7829
   23SAPC  H18S 3052   3.187   0.439   8.817  0.2358 -0.0071  0.6791
   23SAPC  C219 3053   2.983   0.399   8.764  0.9605  0.0433  0.1157
   23SAPC  H19R 3054   2.970   0.451   8.667 -2.0867 -1.2689 -0.3252
   23SAPC  H19S 3055   2.879   0.407   8.802  0.8704  0.5369 -0.2290
   23SAPC  C220 3056   3.015   0.247   8.726 -0.0205 -0.1561 -0.1282
   23SAPC  H20R 3057   3.126   0.240   8.716  0.7099  1.2319  4.4882
   23SAPC  H20S 3058   2.962   0.216   8.634  0.1832 -1.8200  0.2826
   23SAPC  H20T 3059   2.980   0.183   8.810  2.5182 -1.0544  0.3416
   23SAPC   C33 3060   3.480   1.096  10.104  0.1044  0.0739  0.0221
   23SAPC   H3X 3061   3.538   1.145  10.185 -2.3769  1.4620  1.0979
   23SAPC   H3Y 3062   3.394   1.163  10.085 -0.4439 -0.2606  1.2077
   23SAPC   C34 3063   3.565   1.086   9.975 -0.1010  0.1795  0.2361
   23SAPC   H4X 3064   3.652   1.020   9.994 -0.0658  0.1453 -0.0499
   23SAPC   H4Y 3065   3.616   1.184   9.963 -1.5917  1.1958  1.7225
   23SAPC   C35 3066   3.497   1.061   9.844  0.9062  0.1220  0.8210
   23SAPC   H5X 3067   3.414   1.133   9.832  2.4128  1.9069  0.5320
   23SAPC   H5Y 3068   3.456   0.959   9.854 -0.1453  0.6938  2.8098
   23SAPC   C36 3069   3.589   1.076   9.714  1.1255 -0.1997 -0.2774
   23SAPC   H6X 3070   3.681   1.017   9.736  0.7379 -0.7617 -0.1332
   23SAPC   H6Y 3071   3.612   1.184   9.702 -0.6637  0.4685  1.6654
   23SAPC   C37 3072   3.528   1.015   9.592 -0.3373  0.3579 -0.6839
   23SAPC   H7X 3073   3.423   1.052   9.582 -1.3050 -1.9520  0.3032
   23SAPC   H7Y 3074   3.507   0.909   9.616 -2.4862  0.4764 -1.7896
   23SAPC   C38 3075   3.622   1.021   9.472  0.2042 -0.3169  0.3029
   23SAPC   H8X 3076   3.721   0.984   9.506  0.9572  0.7235 -0.6644
   23SAPC   H8Y 3077   3.635   1.129   9.448  1.9658 -0.2995  1.1933
   23SAPC   C39 3078   3.572   0.943   9.354  0.1115 -0.2970 -0.8163
   23SAPC   H9X 3079   3.471   0.987   9.344  0.2397 -0.2166 -1.8409
   23SAPC   H9Y 3080   3.561   0.838   9.388 -1.5576 -0.5488 -2.0234
   23SAPC  C310 3081   3.646   0.959   9.221 -0.0280 -0.1213 -0.0064
   23SAPC  H10X 3082   3.753   0.932   9.231  0.1714  1.1876  1.8409
   23SAPC  H10Y 3083   3.624   1.065   9.193 -1.3624 -0.7198 -1.3304
   23SAPC  C311 3084   3.591   0.881   9.099  0.1798 -0.2262 -0.1474
   23SAPC  H11X 3085   3.480   0.882   9.098  0.1136  0.7468 -3.5795
   23SAPC  H11Y 3086   3.633   0.779   9.111 -0.0326 -0.5200 -1.7299
   23SAPC  C312 3087   3.644   0.931   8.957  0.3451 -0.0742 -0.6281
   23SAPC  H12X 3088   3.753   0.955   8.958 -0.5254  5.0609  0.1124
   23SAPC  H12Y 3089   3.600   1.033   8.944  1.0963  0.2937 -0.3725
   23SAPC  C313 3090   3.605   0.832   8.847 -0.6196  0.4693 -0.3464
   23SAPC  H13X 3091   3.497   0.808   8.855 -0.5209 -0.3763 -1.2658
   23SAPC  H13Y 3092   3.663   0.740   8.870  0.2174  1.1951  0.5635
   23SAPC  C314 3093   3.639   0.889   8.712 -0.5233 -0.6150  0.2098
   23SAPC  H14X 3094   3.747   0.914   8.722 -0.6693  0.7122 -1.2287
   23SAPC  H14Y 3095   3.581   0.983   8.700 -1.1492 -1.0711 -0.3907
   23SAPC  C315 3096   3.617   0.788   8.596 -0.5203  0.2157  0.2180
   23SAPC  H15X 3097   3.695   0.712   8.615 -1.5925 -1.3613 -1.3882
   23SAPC  H15Y 3098   3.631   0.841   8.500 -2.0311  1.9844  0.8852
   23SAPC  C316 3099   3.488   0.708   8.582  0.0810  0.0054  0.7473
   23SAPC  H16X 3100   3.398   0.773   8.580 -1.0579 -1.3836 -3.1909
   23SAPC  H16Y 3101   3.479   0.635   8.665  0.5881 -2.3111 -1.1257
   23SAPC  C317 3102   3.491   0.632   8.447  0.8909  0.1575 -0.2388
   23SAPC  H17X 3103   3.590   0.583   8.445  0.8720 -0.0046  1.4035
   23SAPC  H17Y 3104   3.493   0.704   8.362  1.4008  1.0194  0.4833
   23SAPC  C318 3105   3.389   0.512   8.442  0.1394 -0.4726 -0.0740
   23SAPC  H18X 3106   3.284   0.550   8.437  0.3153  0.1430  0.6348
   23SAPC  H18Y 3107   3.397   0.437   8.524  0.8540 -0.6636 -0.3157
   23SAPC  H18Z 3108   3.409   0.453   8.350  0.8815 -0.9857  0.4017
   24SAPC     N 3109   3.583   6.715  10.970  0.1408  0.3704  0.0008
   24SAPC   C12 3110   3.651   6.846  10.962  0.3428  0.0153  0.3896
   24SAPC  H12A 3111   3.604   6.883  10.872 -0.9834 -1.8844  0.2423
   24SAPC  H12B 3112   3.755   6.826  10.939 -0.0542 -1.7183 -0.0614
   24SAPC   C13 3113   3.622   6.645  11.096  0.0733  0.2832 -0.1354
   24SAPC  H13A 3114   3.728   6.660  11.111 -0.0315  0.0117  0.9770
   24SAPC  H13B 3115   3.562   6.673  11.181  0.5035  2.9283 -0.6036
   24SAPC  H13C 3116   3.608   6.539  11.081 -0.8698  0.5538 -1.2934
   24SAPC   C14 3117   3.434   6.729  10.978 -0.5579  0.0854  0.8543
   24SAPC  H14A 3118   3.404   6.779  10.887  1.2912 -1.5954 -0.7836
   24SAPC  H14B 3119   3.387   6.632  10.981 -1.7335  0.4876 -1.6666
   24SAPC  H14C 3120   3.405   6.789  11.063  0.7543  1.0970  0.6180
   24SAPC   C15 3121   3.624   6.622  10.862  0.0836  0.9347  0.1641
   24SAPC  H15A 3122   3.567   6.531  10.867  0.5210  0.7125  2.3439
   24SAPC  H15B 3123   3.604   6.666  10.766  0.5310  1.0329  0.1115
   24SAPC  H15C 3124   3.730   6.598  10.866 -0.3684 -1.0689  1.7829
   24SAPC   C11 3125   3.658   6.951  11.079  0.2687 -0.4645 -0.0010
   24SAPC  H11A 3126   3.718   7.035  11.039 -0.8353  0.6822  0.6626
   24SAPC  H11B 3127   3.711   6.906  11.166 -0.5322  3.1523  2.5925
   24SAPC     P 3128   3.444   7.084  11.015 -0.3627  0.2541  0.3014
   24SAPC   O13 3129   3.313   7.020  10.975 -0.7290  0.6419  0.2842
   24SAPC   O14 3130   3.438   7.219  11.078  0.3245  0.2152 -0.3859
   24SAPC   O12 3131   3.529   6.986  11.111 -0.2353 -0.1815 -0.1694
   24SAPC   O11 3132   3.536   7.105  10.885  0.4683  0.0394 -0.3410
   24SAPC    C1 3133   3.508   7.211  10.794  0.1745  0.7784 -0.1669
   24SAPC    HA 3134   3.410   7.193  10.745  1.2710 -1.7802 -1.5996
   24SAPC    HB 3135   3.495   7.308  10.846 -2.8587  1.1975 -1.4647
   24SAPC    C2 3136   3.612   7.227  10.682 -0.4118 -0.2198 -0.3436
   24SAPC    HS 3137   3.625   7.333  10.653 -2.5966  0.4035  0.7477
   24SAPC   O21 3138   3.573   7.136  10.568  0.0390 -0.6126  0.1577
   24SAPC   C21 3139   3.466   7.168  10.496  0.5093  0.2501 -0.4983
   24SAPC   O22 3140   3.395   7.267  10.511 -0.7481  0.0275  0.2178
   24SAPC   C22 3141   3.430   7.061  10.392  0.0035  0.2908  0.1191
   24SAPC   H2R 3142   3.492   6.972  10.415  0.4194  0.1286 -1.5052
   24SAPC   H2S 3143   3.323   7.035  10.409  0.0378  0.4288  0.5705
   24SAPC    C3 3144   3.757   7.191  10.739  0.0860  0.0663 -0.6918
   24SAPC    HX 3145   3.754   7.096  10.795  1.0653 -1.5331 -3.1715
   24SAPC    HY 3146   3.780   7.269  10.815  1.6021 -0.1239 -0.9231
   24SAPC   O31 3147   3.864   7.202  10.647  0.2718  0.2146  0.5563
   24SAPC   C31 3148   3.875   7.091  10.580  0.0643  0.4217  0.0073
   24SAPC   O32 3149   3.819   6.984  10.608  0.2832 -1.1030  0.6286
   24SAPC   C32 3150   3.979   7.110  10.463  0.3552  0.2869 -0.6427
   24SAPC   H2X 3151   4.028   7.011  10.458 -2.2144 -1.2030  1.3595
   24SAPC   H2Y 3152   4.057   7.172  10.511 -0.8294  0.6785  0.8724
   24SAPC   C23 3153   3.447   7.113  10.248 -0.2998 -0.1693  0.0692
   24SAPC   H3R 3154   3.466   7.223  10.244 -1.8399  0.1692  1.2164
   24SAPC   H3S 3155   3.354   7.090  10.192 -0.0358  1.4278 -1.0940
   24SAPC   C24 3156   3.551   7.020  10.181 -0.0781 -0.6089  0.9453
   24SAPC   H4R 3157   3.530   6.913  10.203 -0.1961 -0.2983  2.5156
   24SAPC   H4S 3158   3.651   7.031  10.228  0.6646  4.3288 -1.1458
   24SAPC   C25 3159   3.565   7.054  10.033 -0.0767 -0.0959  0.5487
   24SAPC   H5R 3160   3.619   7.148  10.011  1.9943 -1.2779  0.2990
   24SAPC   C26 3161   3.503   7.000   9.924  0.4190 -0.0136  0.4491
   24SAPC   H6R 3162   3.527   7.043   9.826  2.9364  0.7011  1.3207
   24SAPC   C27 3163   3.400   6.889   9.938 -0.4447 -0.5317  0.1687
   24SAPC   H7R 3164   3.295   6.924   9.944 -0.0182  1.2434 -1.5832
   24SAPC   H7S 3165   3.418   6.830  10.030  1.8106 -0.2786 -0.0619
   24SAPC   C28 3166   3.397   6.786   9.820  0.1917 -0.9150  0.1066
   24SAPC   H8R 3167   3.430   6.685   9.847 -0.9622 -1.6330 -1.0437
   24SAPC   C29 3168   3.344   6.804   9.696  0.7993 -0.5533  0.4569
   24SAPC   H9R 3169   3.345   6.724   9.621 -1.3179  0.2435 -0.5130
   24SAPC  C210 3170   3.281   6.939   9.648 -0.0436  0.1592  1.0664
   24SAPC  H10R 3171   3.356   6.977   9.575  1.3681 -0.5885  2.0816
   24SAPC  H10S 3172   3.291   7.007   9.735 -1.9716  0.3612  1.1692
   24SAPC  C211 3173   3.143   6.929   9.603 -0.8560  0.8296  0.3510
   24SAPC  H11R 3174   3.067   6.913   9.681 -2.6947 -0.3651 -1.5729
   24SAPC  C212 3175   3.107   6.917   9.473 -0.5165 -0.6561  0.0333
   24SAPC  H12R 3176   3.002   6.900   9.444 -0.1564 -0.8189 -1.2301
   24SAPC  C213 3177   3.209   6.911   9.355  0.0559  0.1347 -0.0548
   24SAPC  H13R 3178   3.295   6.842   9.366 -0.9523 -1.5703 -2.2414
   24SAPC  H13S 3179   3.252   7.013   9.341  0.3178 -0.1512 -1.4109
   24SAPC  C214 3180   3.144   6.861   9.228  0.0305 -0.1316  0.0434
   24SAPC  H14R 3181   3.057   6.793   9.237  0.2665 -0.3985  0.3359
   24SAPC  C215 3182   3.190   6.878   9.102  0.2733 -0.2417  0.4226
   24SAPC  H15R 3183   3.146   6.819   9.020 -1.5816 -1.7575  2.3821
   24SAPC  C216 3184   3.306   6.951   9.056 -0.0917  0.5443 -0.2314
   24SAPC  H16R 3185   3.344   7.008   9.143 -0.1224 -2.9287  2.2697
   24SAPC  H16S 3186   3.262   7.022   8.982  0.1714  0.2750 -0.6507
   24SAPC  C217 3187   3.415   6.864   8.999  0.5668  0.8732  0.9832
   24SAPC  H17R 3188   3.392   6.859   8.891 -1.8131  2.5937  1.3433
   24SAPC  H17S 3189   3.425   6.763   9.044  1.5362  0.0143 -1.0185
   24SAPC  C218 3190   3.552   6.931   9.023 -0.1942 -0.4858  0.4550
   24SAPC  H18R 3191   3.579   6.950   9.129  1.4776 -0.1830  0.0108
   24SAPC  H18S 3192   3.542   7.027   8.967 -1.7830 -2.3542 -2.7594
   24SAPC  C219 3193   3.663   6.838   8.961  0.0709 -0.4935 -0.0875
   24SAPC  H19R 3194   3.642   6.824   8.852  1.3059  0.3122 -0.4520
   24SAPC  H19S 3195   3.657   6.737   9.007  2.9291 -1.3572 -1.3553
   24SAPC  C220 3196   3.799   6.895   8.996  0.5013 -0.0646  0.2319
   24SAPC  H20R 3197   3.804   6.915   9.105  1.4128 -0.0587  0.1998
   24SAPC  H20S 3198   3.823   6.989   8.942  0.6790 -0.5736 -0.5947
   24SAPC  H20T 3199   3.873   6.815   8.971 -1.0597 -0.9308 -1.9342
   24SAPC   C33 3200   3.927   7.156  10.331 -0.2484  0.2851 -0.4373
   24SAPC   H3X 3201   3.859   7.241  10.349 -2.5847 -1.7611  0.9790
   24SAPC   H3Y 3202   3.858   7.081  10.288  0.3110  0.4015 -1.5855
   24SAPC   C34 3203   4.042   7.172  10.230 -0.2255 -0.9353  0.5281
   24SAPC   H4X 3204   4.011   7.149  10.126  1.3505 -0.8433  0.0121
   24SAPC   H4Y 3205   4.110   7.086  10.252  0.4307 -0.2460  1.2282
   24SAPC   C35 3206   4.125   7.301  10.233 -0.0383 -0.1540  0.8211
   24SAPC   H5X 3207   4.165   7.335  10.331 -1.7602 -0.6017  1.7174
   24SAPC   H5Y 3208   4.057   7.385  10.208  0.3404 -0.2067 -0.4495
   24SAPC   C36 3209   4.229   7.303  10.117 -0.2772 -0.5405 -0.2169
   24SAPC   H6X 3210   4.254   7.410  10.102  0.3193 -0.5240  0.7831
   24SAPC   H6Y 3211   4.174   7.280  10.024 -0.0547  1.1381 -0.7874
   24SAPC   C37 3212   4.351   7.217  10.122  0.7575  0.1034  0.4932
   24SAPC   H7X 3213   4.326   7.118  10.165  2.0495  0.1265  1.3513
   24SAPC   H7Y 3214   4.428   7.263  10.188 -1.1078  1.0300  2.1450
   24SAPC   C38 3215   4.402   7.203   9.984 -0.9367 -0.0318  0.2207
   24SAPC   H8X 3216   4.381   7.296   9.927 -3.2500 -1.9246 -2.3437
   24SAPC   H8Y 3217   4.349   7.127   9.922  2.1628 -3.2200  1.1229
   24SAPC   C39 3218   4.552   7.177   9.985 -0.2236  0.0499  0.2388
   24SAPC   H9X 3219   4.568   7.069  10.006  0.4594  0.2468  0.7328
   24SAPC   H9Y 3220   4.619   7.244  10.042 -1.1451 -1.1411  2.9090
   24SAPC  C310 3221   4.613   7.193   9.842  0.5723 -0.2748 -0.3001
   24SAPC  H10X 3222   4.724   7.183   9.852  0.4749 -0.9291  0.1483
   24SAPC  H10Y 3223   4.584   7.292   9.800  0.4776 -0.2757 -0.2339
   24SAPC  C311 3224   4.583   7.074   9.746  0.2282 -0.1903  0.1736
   24SAPC  H11X 3225   4.474   7.060   9.734 -0.0328  3.1785 -3.2730
   24SAPC  H11Y 3226   4.630   6.975   9.767 -3.0894 -2.4037 -1.9063
   24SAPC  C312 3227   4.629   7.098   9.603  0.2613  0.2278 -0.2662
   24SAPC  H12X 3228   4.739   7.098   9.593  0.4548  0.3153  1.5486
   24SAPC  H12Y 3229   4.586   7.191   9.560  0.3688 -0.1549 -1.2188
   24SAPC  C313 3230   4.562   6.993   9.513  0.1981  0.3065  0.7630
   24SAPC  H13X 3231   4.560   6.901   9.575  1.6240 -0.7654 -0.7059
   24SAPC  H13Y 3232   4.626   6.970   9.425 -0.8454 -0.6279  0.2269
   24SAPC  C314 3233   4.422   7.036   9.466 -0.0902 -1.3703 -0.4619
   24SAPC  H14X 3234   4.427   7.126   9.401  2.0712 -0.9471  0.2291
   24SAPC  H14Y 3235   4.361   7.071   9.553 -1.4476  0.3282 -2.0022
   24SAPC  C315 3236   4.327   6.928   9.418 -0.4060  0.9707 -0.2145
   24SAPC  H15X 3237   4.287   6.864   9.500 -0.4473 -1.4095 -1.9980
   24SAPC  H15Y 3238   4.387   6.862   9.353 -1.2512 -1.2471  1.1317
   24SAPC  C316 3239   4.209   6.974   9.333 -0.2298  0.1553 -0.5150
   24SAPC  H16X 3240   4.145   7.037   9.399 -1.1020 -0.0174 -1.1772
   24SAPC  H16Y 3241   4.152   6.881   9.313 -3.5803  2.2887 -1.8027
   24SAPC  C317 3242   4.243   7.036   9.200  0.4212  0.1795  0.2902
   24SAPC  H17X 3243   4.310   7.122   9.219 -0.1670  0.8085 -0.4240
   24SAPC  H17Y 3244   4.154   7.079   9.150  0.4570 -1.0630 -0.9193
   24SAPC  C318 3245   4.317   6.931   9.117 -1.3174 -0.4413  0.5160
   24SAPC  H18X 3246   4.427   6.943   9.128 -1.2699 -2.0092  2.1439
   24SAPC  H18Y 3247   4.298   6.952   9.010  0.0328  0.0583  0.3531
   24SAPC  H18Z 3248   4.293   6.826   9.141 -0.1471 -0.5042  1.5511
   25SAPC     N 3249   1.863   5.619   6.073 -0.0202  0.0307 -0.0085
   25SAPC   C12 3250   1.740   5.619   6.166  0.1115  0.3252 -0.3407
   25SAPC  H12A 3251   1.773   5.580   6.261 -0.9317  0.9815  0.3187
   25SAPC  H12B 3252   1.667   5.548   6.130  0.2950  0.0686 -0.2077
   25SAPC   C13 3253   1.983   5.691   6.129  0.4939  0.3731  0.0060
   25SAPC  H13A 3254   2.014   5.669   6.230  0.7387  1.0903  0.0911
   25SAPC  H13B 3255   2.070   5.672   6.068  0.9371  1.6289  0.2240
   25SAPC  H13C 3256   1.975   5.799   6.123 -0.8195  0.2230 -1.6108
   25SAPC   C14 3257   1.924   5.473   6.063 -0.1692  0.0526  0.4630
   25SAPC  H14A 3258   1.913   5.419   6.156  0.8218  0.3860  0.7822
   25SAPC  H14B 3259   1.868   5.415   5.991  1.3739 -3.6861  2.0442
   25SAPC  H14C 3260   2.026   5.489   6.034  0.0662  1.4644  1.9322
   25SAPC   C15 3261   1.831   5.676   5.939  0.3880 -0.0310  0.2752
   25SAPC  H15A 3262   1.809   5.778   5.967  1.2759  0.0842  0.5872
   25SAPC  H15B 3263   1.915   5.663   5.873  0.5825  2.3027  0.0070
   25SAPC  H15C 3264   1.746   5.629   5.890  0.7539 -0.1208 -0.2863
   25SAPC   C11 3265   1.674   5.757   6.192  0.8924  0.0652  0.3458
   25SAPC  H11A 3266   1.749   5.825   6.238  0.8665 -2.4230  4.6285
   25SAPC  H11B 3267   1.607   5.751   6.281 -2.4263 -0.1785 -1.9687
   25SAPC     P 3268   1.478   5.759   6.001  0.0603 -0.4206  0.1173
   25SAPC   O13 3269   1.389   5.871   5.958 -0.1169 -0.4327 -0.5241
   25SAPC   O14 3270   1.518   5.673   5.883  0.2620  0.6219  0.3266
   25SAPC   O12 3271   1.611   5.811   6.080  0.4911 -0.6919  0.5325
   25SAPC   O11 3272   1.412   5.667   6.102  0.0784  0.2214 -0.0120
   25SAPC    C1 3273   1.283   5.708   6.158  0.4093  0.4956 -0.9211
   25SAPC    HA 3274   1.234   5.793   6.106  3.5347  1.9089 -1.8097
   25SAPC    HB 3275   1.208   5.626   6.158 -0.7896  1.5351 -0.1083
   25SAPC    C2 3276   1.294   5.735   6.310 -0.3752 -0.5568 -0.2663
   25SAPC    HS 3277   1.201   5.730   6.371 -0.6614 -0.7120 -0.7144
   25SAPC   O21 3278   1.377   5.845   6.336 -0.1246 -0.0827  0.0309
   25SAPC   C21 3279   1.321   5.962   6.334 -0.5386 -0.6839  0.0212
   25SAPC   O22 3280   1.201   5.987   6.322  0.2160  0.2936  0.1454
   25SAPC   C22 3281   1.419   6.072   6.358  0.4902  0.4611 -0.7390
   25SAPC   H2R 3282   1.425   6.091   6.467 -1.4597 -1.1589 -0.3022
   25SAPC   H2S 3283   1.525   6.041   6.344 -0.0082 -1.5352 -0.3925
   25SAPC    C3 3284   1.372   5.608   6.371  0.2987  0.1371  0.8641
   25SAPC    HX 3285   1.470   5.589   6.322 -0.6758  0.5917 -1.3258
   25SAPC    HY 3286   1.309   5.522   6.342  0.8477  0.5565 -1.8119
   25SAPC   O31 3287   1.397   5.628   6.512  0.5606 -0.2174  0.5284
   25SAPC   C31 3288   1.518   5.637   6.562 -0.0226 -0.9951 -0.3110
   25SAPC   O32 3289   1.624   5.640   6.501  0.2807  0.3747 -0.7646
   25SAPC   C32 3290   1.521   5.644   6.715 -0.0029  0.3073  0.2751
   25SAPC   H2X 3291   1.460   5.555   6.741  1.8139 -1.1834 -0.3187
   25SAPC   H2Y 3292   1.463   5.733   6.748 -0.3253  0.9582 -1.8625
   25SAPC   C23 3293   1.399   6.207   6.290 -0.4242  0.0122 -0.1822
   25SAPC   H3R 3294   1.293   6.231   6.312 -0.4603 -1.7991  2.0147
   25SAPC   H3S 3295   1.401   6.190   6.181 -1.5957  0.2250 -0.2570
   25SAPC   C24 3296   1.480   6.323   6.342 -0.5500  0.3756 -0.8896
   25SAPC   H4R 3297   1.481   6.318   6.453  1.0683  0.4357 -0.8830
   25SAPC   H4S 3298   1.431   6.420   6.319 -1.0517  0.2767 -0.2626
   25SAPC   C25 3299   1.627   6.342   6.300 -0.1923 -0.0335  0.6436
   25SAPC   H5R 3300   1.655   6.330   6.194 -0.2659  1.5228  0.4258
   25SAPC   C26 3301   1.731   6.372   6.375 -0.4220  0.0474  0.0853
   25SAPC   H6R 3302   1.829   6.398   6.332  0.0742  1.5401  1.9572
   25SAPC   C27 3303   1.728   6.384   6.532 -0.3351 -0.3328  0.0611
   25SAPC   H7R 3304   1.828   6.378   6.581 -0.7920  0.1307  1.0744
   25SAPC   H7S 3305   1.663   6.317   6.593 -2.3829  3.1672  2.0446
   25SAPC   C28 3306   1.669   6.506   6.578  0.8199 -0.4744 -0.3654
   25SAPC   H8R 3307   1.618   6.560   6.497  0.0929  0.5961  0.7648
   25SAPC   C29 3308   1.655   6.552   6.708 -0.2298 -0.2481  0.3739
   25SAPC   H9R 3309   1.599   6.644   6.727 -1.5217 -0.9952  0.3099
   25SAPC  C210 3310   1.697   6.483   6.834 -0.7892  0.2743  0.6257
   25SAPC  H10R 3311   1.800   6.441   6.837 -1.1166 -0.5257  2.6719
   25SAPC  H10S 3312   1.643   6.386   6.836  1.1818 -0.8548  1.3666
   25SAPC  C211 3313   1.680   6.557   6.962 -0.3552  0.2082 -0.0677
   25SAPC  H11R 3314   1.716   6.661   6.960  0.1072  0.0660 -2.9150
   25SAPC  C212 3315   1.643   6.496   7.075  0.1610  0.0088 -0.5804
   25SAPC  H12R 3316   1.639   6.552   7.170 -0.0926 -1.4439  0.3133
   25SAPC  C213 3317   1.609   6.348   7.098 -0.7467 -0.4163 -0.0941
   25SAPC  H13R 3318   1.524   6.325   7.030  1.2239  0.2197 -2.9275
   25SAPC  H13S 3319   1.593   6.334   7.207  1.6892  0.9528  0.5151
   25SAPC  C214 3320   1.725   6.254   7.053  0.4331  0.9196  0.7023
   25SAPC  H14R 3321   1.826   6.281   7.086  0.2764  0.8400  1.2449
   25SAPC  C215 3322   1.716   6.135   6.987 -0.2337 -0.4126  0.3347
   25SAPC  H15R 3323   1.810   6.079   6.972  0.5577  1.6863 -4.0921
   25SAPC  C216 3324   1.596   6.059   6.934  0.9040 -0.2604  0.3442
   25SAPC  H16R 3325   1.498   6.101   6.967  1.2841  1.5518 -0.6833
   25SAPC  H16S 3326   1.602   5.953   6.968 -0.9664 -0.9986 -1.4406
   25SAPC  C217 3327   1.581   6.069   6.782  0.3006  0.0329  0.3717
   25SAPC  H17R 3328   1.564   6.173   6.747  0.2115 -1.0436 -3.1199
   25SAPC  H17S 3329   1.486   6.013   6.766 -0.6887  2.1795 -1.8190
   25SAPC  C218 3330   1.698   6.001   6.710 -0.4572  0.2004  0.7100
   25SAPC  H18R 3331   1.726   5.903   6.754  2.3682  1.5305  2.1803
   25SAPC  H18S 3332   1.783   6.073   6.711 -1.0948  1.1973 -2.8100
   25SAPC  C219 3333   1.681   5.989   6.558  0.2869 -0.3481  0.0842
   25SAPC  H19R 3334   1.672   6.094   6.522 -1.4132 -0.3043  0.5561
   25SAPC  H19S 3335   1.593   5.933   6.518 -0.6861  1.2284 -0.1098
   25SAPC  C220 3336   1.813   5.936   6.499 -0.6420 -0.4564  0.0654
   25SAPC  H20R 3337   1.801   5.931   6.389 -1.9442  0.0699  0.1702
   25SAPC  H20S 3338   1.846   5.835   6.533  1.0033 -0.1734 -0.6151
   25SAPC  H20T 3339   1.888   6.011   6.531 -2.0275  0.5121  1.1266
   25SAPC   C33 3340   1.660   5.623   6.775  0.4898 -0.5996  0.1786
   25SAPC   H3X 3341   1.737   5.694   6.738  0.2667 -1.3677 -1.8854
   25SAPC   H3Y 3342   1.688   5.524   6.733  2.3236  0.7200 -1.9796
   25SAPC   C34 3343   1.653   5.607   6.928  0.3130 -0.2289 -0.4797
   25SAPC   H4X 3344   1.604   5.512   6.957  2.2432 -0.9266  0.6887
   25SAPC   H4Y 3345   1.603   5.696   6.971 -0.0843  0.2517 -1.8610
   25SAPC   C35 3346   1.794   5.580   6.989 -0.4374 -0.2357  0.4486
   25SAPC   H5X 3347   1.857   5.668   7.013 -1.3417 -0.0121  2.1296
   25SAPC   H5Y 3348   1.856   5.505   6.934 -3.0065 -2.2648  0.1046
   25SAPC   C36 3349   1.781   5.508   7.123  0.3905 -0.3636 -0.7091
   25SAPC   H6X 3350   1.716   5.422   7.096 -2.2313  1.5776 -1.0094
   25SAPC   H6Y 3351   1.723   5.578   7.187 -0.7024 -1.3268 -0.6071
   25SAPC   C37 3352   1.913   5.479   7.186 -0.1473 -0.3823  0.5049
   25SAPC   H7X 3353   1.981   5.564   7.166 -1.4594  0.5238 -0.2318
   25SAPC   H7Y 3354   1.961   5.402   7.121 -0.9461  0.4687 -1.1541
   25SAPC   C38 3355   1.906   5.441   7.333 -0.1640 -0.3276 -0.2331
   25SAPC   H8X 3356   2.002   5.395   7.365 -1.7533 -2.4307  1.8775
   25SAPC   H8Y 3357   1.819   5.374   7.351 -0.8855  0.6592  0.0427
   25SAPC   C39 3358   1.896   5.561   7.428  0.1310 -0.2830 -0.1976
   25SAPC   H9X 3359   1.791   5.595   7.427 -0.2860 -1.3299  2.0040
   25SAPC   H9Y 3360   1.958   5.648   7.398 -0.6252  0.3850  0.1413
   25SAPC  C310 3361   1.927   5.524   7.572  0.2916  0.3489  0.0672
   25SAPC  H10X 3362   2.030   5.491   7.597  0.2084  1.2779  1.8399
   25SAPC  H10Y 3363   1.868   5.431   7.586 -1.0199  1.0838 -0.3364
   25SAPC  C311 3364   1.876   5.618   7.683 -0.5788  0.6060  0.3630
   25SAPC  H11X 3365   1.769   5.641   7.665 -0.7918  1.3892  2.4255
   25SAPC  H11Y 3366   1.926   5.717   7.683 -0.8312  0.7629  1.9778
   25SAPC  C312 3367   1.881   5.558   7.825 -1.0722  1.0079 -0.5603
   25SAPC  H12X 3368   1.987   5.555   7.857 -1.8453 -1.3486  2.3608
   25SAPC  H12Y 3369   1.844   5.453   7.826 -0.2281  0.5951 -3.6073
   25SAPC  C313 3370   1.796   5.631   7.929  0.6605  0.3219 -0.2342
   25SAPC  H13X 3371   1.689   5.611   7.904  1.3352 -3.7322 -0.5237
   25SAPC  H13Y 3372   1.800   5.741   7.921 -0.5343  0.4804  1.0432
   25SAPC  C314 3373   1.826   5.580   8.065 -0.1202  0.4841  0.6522
   25SAPC  H14X 3374   1.933   5.593   8.094 -0.2851  1.6680  0.7813
   25SAPC  H14Y 3375   1.807   5.470   8.062  0.6235  0.3673 -0.6026
   25SAPC  C315 3376   1.744   5.658   8.166 -0.5092  0.4064  0.3409
   25SAPC  H15X 3377   1.640   5.618   8.156 -0.3104  0.0621 -0.4124
   25SAPC  H15Y 3378   1.758   5.766   8.148  0.1271  0.6105  1.9055
   25SAPC  C316 3379   1.791   5.647   8.311 -0.6199 -0.4815 -0.4786
   25SAPC  H16X 3380   1.902   5.648   8.321 -0.6017 -0.7433 -0.6385
   25SAPC  H16Y 3381   1.753   5.554   8.358 -1.6640  0.5976  0.8906
   25SAPC  C317 3382   1.733   5.748   8.412 -0.7746  0.3705  0.4364
   25SAPC  H17X 3383   1.745   5.713   8.517  1.5191 -0.7769 -0.1259
   25SAPC  H17Y 3384   1.626   5.758   8.384 -0.9604  0.2545  1.0939
   25SAPC  C318 3385   1.804   5.881   8.399 -0.3971  0.4564 -0.2908
   25SAPC  H18X 3386   1.820   5.908   8.293  0.1019  1.1446 -0.0504
   25SAPC  H18Y 3387   1.909   5.874   8.435 -0.5493  1.7995  0.4930
   25SAPC  H18Z 3388   1.759   5.965   8.455  2.4334  1.2595  0.9657
   26SAPC     N 3389   0.869   1.793   6.322  0.2564  0.0549  0.0785
   26SAPC   C12 3390   0.965   1.741   6.430  0.1935 -0.0928  0.4699
   26SAPC  H12A 3391   0.983   1.813   6.509 -2.4427 -1.9204  2.9747
   26SAPC  H12B 3392   1.058   1.714   6.383  2.0738  2.8397  2.1889
   26SAPC   C13 3393   0.729   1.834   6.372 -0.1761 -0.2810  0.4255
   26SAPC  H13A 3394   0.661   1.860   6.292  1.3643 -1.3649 -1.3004
   26SAPC  H13B 3395   0.684   1.753   6.428  0.5079  0.1739  1.6763
   26SAPC  H13C 3396   0.735   1.919   6.439  1.1444  1.1484 -1.4305
   26SAPC   C14 3397   0.916   1.920   6.260 -0.8403  0.5041 -0.1399
   26SAPC  H14A 3398   0.892   2.004   6.323 -2.3223 -0.2333  0.3169
   26SAPC  H14B 3399   1.019   1.908   6.228 -1.0462  2.2684 -1.6162
   26SAPC  H14C 3400   0.868   1.934   6.164  0.3144  0.2645 -0.7763
   26SAPC   C15 3401   0.838   1.681   6.229  0.0163  0.0015 -0.2295
   26SAPC  H15A 3402   0.925   1.636   6.184  0.1400  0.8401 -0.8524
   26SAPC  H15B 3403   0.785   1.604   6.282 -0.3934  2.3345  3.0594
   26SAPC  H15C 3404   0.775   1.714   6.147  2.0620 -0.7832 -2.2143
   26SAPC   C11 3405   0.917   1.617   6.512 -0.1161 -0.4795  0.6725
   26SAPC  H11A 3406   0.818   1.637   6.556 -0.4928 -2.5097  0.8388
   26SAPC  H11B 3407   0.986   1.612   6.599 -0.2849  0.3001  0.8617
   26SAPC     P 3408   1.051   1.422   6.409 -0.4117  0.6594 -0.2580
   26SAPC   O13 3409   1.020   1.314   6.308 -0.1690 -0.3591 -0.5499
   26SAPC   O14 3410   1.164   1.506   6.377 -0.2807 -0.2840  0.1946
   26SAPC   O12 3411   0.912   1.498   6.437 -0.8936  0.5608  0.1346
   26SAPC   O11 3412   1.083   1.342   6.543  0.0792 -0.2042  0.1576
   26SAPC    C1 3413   1.177   1.393   6.643  0.2330 -0.2569 -0.3884
   26SAPC    HA 3414   1.273   1.336   6.635 -1.3628 -3.0425 -0.9801
   26SAPC    HB 3415   1.207   1.497   6.620 -0.7773  0.1534  0.1469
   26SAPC    C2 3416   1.120   1.389   6.787 -0.1862 -1.0342 -0.1456
   26SAPC    HS 3417   1.103   1.281   6.808 -1.0218 -0.7867  0.4904
   26SAPC   O21 3418   0.998   1.467   6.790 -0.0716  0.5806  0.7273
   26SAPC   C21 3419   0.906   1.423   6.865 -0.7364 -0.9565 -0.0352
   26SAPC   O22 3420   0.919   1.332   6.944  0.4935  0.4443 -0.2549
   26SAPC   C22 3421   0.772   1.503   6.835 -0.1539 -0.1689  0.8218
   26SAPC   H2R 3422   0.796   1.611   6.819  0.9544 -0.8343 -3.2710
   26SAPC   H2S 3423   0.742   1.462   6.736 -0.2108 -3.8226  2.2075
   26SAPC    C3 3424   1.219   1.446   6.885  0.1257 -0.0497 -0.1514
   26SAPC    HX 3425   1.229   1.556   6.879  1.9038 -0.2208 -0.9303
   26SAPC    HY 3426   1.315   1.400   6.853 -1.3179 -1.6167 -2.5198
   26SAPC   O31 3427   1.177   1.417   7.017  0.4480 -0.0668 -0.2997
   26SAPC   C31 3428   1.217   1.298   7.061  0.2961  0.3276  0.2154
   26SAPC   O32 3429   1.294   1.226   6.998  0.3154 -0.3191  0.4092
   26SAPC   C32 3430   1.154   1.269   7.194  0.1322 -0.4874 -0.1931
   26SAPC   H2X 3431   1.067   1.202   7.178  0.5722 -1.3553  0.9697
   26SAPC   H2Y 3432   1.113   1.359   7.244 -0.2813  0.7396 -2.5663
   26SAPC   C23 3433   0.659   1.472   6.934 -0.4315 -0.8381  0.5337
   26SAPC   H3R 3434   0.663   1.363   6.955 -0.8016 -0.7445  1.1173
   26SAPC   H3S 3435   0.564   1.484   6.878  0.4460  0.8335 -0.6753
   26SAPC   C24 3436   0.660   1.563   7.061 -0.8220  0.4842  0.0660
   26SAPC   H4R 3437   0.653   1.672   7.041  0.8271  0.9190  1.6113
   26SAPC   H4S 3438   0.757   1.551   7.115 -1.5598  0.2771  1.3765
   26SAPC   C25 3439   0.550   1.525   7.158 -0.1503  0.1636  0.9240
   26SAPC   H5R 3440   0.448   1.505   7.119  0.8808  0.5754 -2.2470
   26SAPC   C26 3441   0.564   1.494   7.287 -0.1416 -0.3660 -0.2237
   26SAPC   H6R 3442   0.471   1.451   7.329 -0.9946  0.7516 -0.8965
   26SAPC   C27 3443   0.681   1.507   7.382 -0.0770 -0.1063  0.0717
   26SAPC   H7R 3444   0.649   1.544   7.482  2.0088 -2.1678  1.6114
   26SAPC   H7S 3445   0.745   1.593   7.352  1.2411  0.2303  3.3901
   26SAPC   C28 3446   0.776   1.383   7.390  0.1049  0.3213  0.2434
   26SAPC   H8R 3447   0.779   1.323   7.297  1.1441 -0.7949  0.9609
   26SAPC   C29 3448   0.835   1.349   7.515 -0.1515  0.1071  0.1064
   26SAPC   H9R 3449   0.890   1.253   7.516 -2.6600 -1.4208  0.9471
   26SAPC  C210 3450   0.823   1.417   7.650 -0.3304 -0.5002  0.7819
   26SAPC  H10R 3451   0.726   1.382   7.692 -0.3905  0.4365  1.4653
   26SAPC  H10S 3452   0.811   1.527   7.634  0.6196 -0.5409 -0.2715
   26SAPC  C211 3453   0.941   1.386   7.739 -0.2019  0.1436 -0.5091
   26SAPC  H11R 3454   1.041   1.393   7.693  0.6928 -1.9466  1.0158
   26SAPC  C212 3455   0.944   1.339   7.862 -0.1506  1.4676  0.2211
   26SAPC  H12R 3456   1.044   1.327   7.906 -1.0211 -0.6750  1.7761
   26SAPC  C213 3457   0.819   1.304   7.946 -0.0981 -0.3602  0.3162
   26SAPC  H13R 3458   0.746   1.247   7.885 -0.3724 -1.1421  1.3291
   26SAPC  H13S 3459   0.768   1.397   7.981 -0.8778 -0.2871 -0.9457
   26SAPC  C214 3460   0.850   1.210   8.056  0.0642  0.4830 -0.3028
   26SAPC  H14R 3461   0.952   1.169   8.064 -0.5659 -1.2094 -0.5357
   26SAPC  C215 3462   0.764   1.164   8.151  0.7745  0.1097 -0.9122
   26SAPC  H15R 3463   0.796   1.108   8.240  0.8728  0.1154 -0.9447
   26SAPC  C216 3464   0.625   1.214   8.165  0.5239 -0.2752  0.3426
   26SAPC  H16R 3465   0.545   1.139   8.181  0.1427  0.1228  0.3246
   26SAPC  H16S 3466   0.583   1.254   8.070  0.6037  0.6941  0.7033
   26SAPC  C217 3467   0.617   1.317   8.277  0.3559 -0.8462 -0.0836
   26SAPC  H17R 3468   0.707   1.383   8.279 -0.8935  0.9220  0.0795
   26SAPC  H17S 3469   0.608   1.277   8.380 -0.3120  1.3110  0.7452
   26SAPC  C218 3470   0.485   1.400   8.270 -0.5376  0.4875 -0.2657
   26SAPC  H18R 3471   0.477   1.469   8.183 -1.1537 -0.2942 -0.8333
   26SAPC  H18S 3472   0.483   1.469   8.358 -0.4731  1.8705 -1.3093
   26SAPC  C219 3473   0.351   1.318   8.277 -0.1482  0.2107 -0.5138
   26SAPC  H19R 3474   0.356   1.274   8.175 -0.2532  0.8160 -0.7866
   26SAPC  H19S 3475   0.267   1.389   8.292 -2.2642 -2.0516 -0.9012
   26SAPC  C220 3476   0.342   1.210   8.388 -0.4114 -0.2139 -0.2240
   26SAPC  H20R 3477   0.262   1.134   8.377 -1.8296  0.9737  1.4036
   26SAPC  H20S 3478   0.327   1.263   8.484 -1.9496  2.1383 -1.6751
   26SAPC  H20T 3479   0.443   1.165   8.403 -0.9142 -1.1423  0.4760
   26SAPC   C33 3480   1.240   1.194   7.304  0.0660 -0.4001  0.0883
   26SAPC   H3X 3481   1.337   1.245   7.321 -0.3017  0.1084  0.6985
   26SAPC   H3Y 3482   1.276   1.092   7.277  1.5517  0.1094  0.0219
   26SAPC   C34 3483   1.167   1.186   7.435  0.3615  0.4679  0.4963
   26SAPC   H4X 3484   1.069   1.140   7.410  1.2235  0.8166 -4.5244
   26SAPC   H4Y 3485   1.150   1.283   7.487 -0.3884 -0.4829  2.0885
   26SAPC   C35 3486   1.225   1.085   7.536 -0.8746 -0.0534 -0.1396
   26SAPC   H5X 3487   1.228   0.980   7.500  0.7053 -0.1473  0.1902
   26SAPC   H5Y 3488   1.158   1.089   7.624 -0.5683 -0.9391  0.1440
   26SAPC   C36 3489   1.365   1.114   7.588  0.2770  0.0486  0.4891
   26SAPC   H6X 3490   1.435   1.098   7.503  1.4658 -2.5989  1.8611
   26SAPC   H6Y 3491   1.384   1.034   7.662  0.0757 -0.1527  0.3247
   26SAPC   C37 3492   1.381   1.256   7.641  0.3062  0.2101  0.1997
   26SAPC   H7X 3493   1.343   1.315   7.556  0.4037 -0.7114 -0.5004
   26SAPC   H7Y 3494   1.488   1.285   7.650  0.3023  0.1681  0.3870
   26SAPC   C38 3495   1.311   1.279   7.773  0.1615 -0.7876 -0.2416
   26SAPC   H8X 3496   1.207   1.240   7.770 -0.7498  1.1596  2.5897
   26SAPC   H8Y 3497   1.312   1.390   7.774 -2.3118 -0.6738 -1.5217
   26SAPC   C39 3498   1.387   1.216   7.885  0.2897 -0.7129 -0.2317
   26SAPC   H9X 3499   1.489   1.258   7.884  0.1494 -0.2083  1.8194
   26SAPC   H9Y 3500   1.393   1.105   7.880 -2.4378 -0.9030 -0.8096
   26SAPC  C310 3501   1.336   1.265   8.023 -0.6006  0.0858 -0.1436
   26SAPC  H10X 3502   1.228   1.244   8.034 -0.5771 -0.5494 -0.9592
   26SAPC  H10Y 3503   1.331   1.375   8.027  0.3959  0.1602 -0.5627
   26SAPC  C311 3504   1.422   1.201   8.131  0.5872 -0.3016  0.0857
   26SAPC  H11X 3505   1.488   1.280   8.172  1.2738 -1.9124  2.3146
   26SAPC  H11Y 3506   1.495   1.128   8.090  3.1335  1.4756  1.1606
   26SAPC  C312 3507   1.337   1.141   8.245  0.1244 -0.1621 -0.0929
   26SAPC  H12X 3508   1.409   1.082   8.305  2.0698  1.1792 -0.9876
   26SAPC  H12Y 3509   1.257   1.070   8.216  0.1103  0.8905 -2.9875
   26SAPC  C313 3510   1.278   1.255   8.327 -0.2659  0.3736 -0.2799
   26SAPC  H13X 3511   1.209   1.330   8.281  1.0244  2.3119  0.7659
   26SAPC  H13Y 3512   1.360   1.318   8.369  0.5331 -1.0419  0.3279
   26SAPC  C314 3513   1.204   1.193   8.447  0.5380 -0.2723 -0.1193
   26SAPC  H14X 3514   1.271   1.134   8.513 -0.4615 -1.7799 -0.4097
   26SAPC  H14Y 3515   1.124   1.122   8.417 -0.2079  0.8273 -0.7827
   26SAPC  C315 3516   1.147   1.310   8.536  0.2442  0.1773  0.0039
   26SAPC  H15X 3517   1.065   1.359   8.479 -0.2038 -1.2401 -0.6333
   26SAPC  H15Y 3518   1.229   1.375   8.571 -0.8115  1.2014  0.6730
   26SAPC  C316 3519   1.098   1.249   8.667  0.2122 -0.0626 -0.1979
   26SAPC  H16X 3520   1.184   1.190   8.706 -0.7039  0.1874  2.3614
   26SAPC  H16Y 3521   1.010   1.184   8.648  0.9758 -1.6301  1.3325
   26SAPC  C317 3522   1.058   1.353   8.774 -0.4824 -0.1174 -0.0410
   26SAPC  H17X 3523   0.977   1.413   8.727 -0.4638  0.8304  1.0917
   26SAPC  H17Y 3524   1.148   1.416   8.789  0.6980 -1.7823  0.2024
   26SAPC  C318 3525   1.015   1.298   8.910 -0.3081  0.6692  0.2939
   26SAPC  H18X 3526   1.100   1.242   8.954 -2.0412 -3.6457 -1.2766
   26SAPC  H18Y 3527   0.935   1.227   8.879  0.5252  0.5913 -1.7947
   26SAPC  H18Z 3528   0.980   1.379   8.978 -2.3479 -0.8327  1.1440
   27SAPC     N 3529   5.355   0.214   6.436 -0.3914 -0.2342  0.0847
   27SAPC   C12 3530   5.414   0.080   6.482  0.4278 -0.2553  0.2413
   27SAPC  H12A 3531   5.506   0.063   6.429  0.8898 -0.1688  0.9948
   27SAPC  H12B 3532   5.343   0.006   6.447 -2.0377  2.6671 -1.5253
   27SAPC   C13 3533   5.347   0.218   6.288  0.5302 -0.6152 -0.0542
   27SAPC  H13A 3534   5.305   0.133   6.236  0.1274  1.1522 -2.8384
   27SAPC  H13B 3535   5.301   0.309   6.254 -0.0099 -0.4129  1.1788
   27SAPC  H13C 3536   5.449   0.222   6.252 -0.6682  1.2314 -3.6925
   27SAPC   C14 3537   5.218   0.240   6.498  0.3513  0.7653  0.3871
   27SAPC  H14A 3538   5.144   0.165   6.476 -0.2933  2.0423 -2.2155
   27SAPC  H14B 3539   5.227   0.260   6.604 -0.0988  2.4507  0.1286
   27SAPC  H14C 3540   5.180   0.329   6.450 -0.6111  0.1438 -0.0269
   27SAPC   C15 3541   5.441   0.326   6.478 -0.0232 -0.2149  0.0248
   27SAPC  H15A 3542   5.477   0.305   6.577 -1.6698  0.2141  0.7517
   27SAPC  H15B 3543   5.528   0.331   6.414  0.2121  0.1700  0.3683
   27SAPC  H15C 3544   5.385   0.418   6.467  1.0891  0.2754 -2.2260
   27SAPC   C11 3545   5.442   0.048   6.632 -0.3460 -0.5474  0.2965
   27SAPC  H11A 3546   5.459  -0.061   6.640 -0.4634 -0.6799 -0.9985
   27SAPC  H11B 3547   5.344   0.063   6.683 -0.2215  1.3962  0.0452
   27SAPC     P 3548   5.687   0.132   6.636 -0.2539  0.2375  0.4124
   27SAPC   O13 3549   5.683   0.052   6.509  0.6138  0.1925 -0.5516
   27SAPC   O14 3550   5.743   0.270   6.639  0.2449  0.1576  0.0438
   27SAPC   O12 3551   5.538   0.140   6.687  0.3776 -0.5481  0.2842
   27SAPC   O11 3552   5.757   0.046   6.747  0.1309  0.3074 -0.1644
   27SAPC    C1 3553   5.741   0.071   6.888 -0.7680 -0.2086  0.6575
   27SAPC    HA 3554   5.643   0.122   6.903 -0.6454  0.2677 -0.0756
   27SAPC    HB 3555   5.735  -0.030   6.932  2.4039 -0.5719  0.5138
   27SAPC    C2 3556   5.860   0.159   6.951  0.5920 -0.0701  0.2658
   27SAPC    HS 3557   5.874   0.243   6.879  0.7087  0.9033  1.3820
   27SAPC   O21 3558   5.975   0.076   6.961 -0.4587  0.4061 -0.0670
   27SAPC   C21 3559   6.093   0.119   6.913  0.5570 -0.4329 -0.4225
   27SAPC   O22 3560   6.105   0.232   6.866 -0.1417  0.2576  0.1427
   27SAPC   C22 3561   6.214   0.018   6.925  0.8113 -0.0340 -0.1568
   27SAPC   H2R 3562   6.170  -0.082   6.946  2.2462 -0.9169 -1.1825
   27SAPC   H2S 3563   6.253   0.009   6.822  0.1660  2.8434 -0.7464
   27SAPC    C3 3564   5.826   0.235   7.085 -0.6722 -0.0118  0.4787
   27SAPC    HX 3565   5.734   0.295   7.068 -2.2737 -2.5598 -0.3785
   27SAPC    HY 3566   5.909   0.309   7.091 -1.1183  0.4004  2.2939
   27SAPC   O31 3567   5.821   0.148   7.197 -0.2010 -0.3617 -0.3553
   27SAPC   C31 3568   5.707   0.087   7.226  0.3815  0.3306  0.2313
   27SAPC   O32 3569   5.600   0.093   7.164 -0.2702  0.3692 -0.4327
   27SAPC   C32 3570   5.727   0.010   7.355 -0.4622  0.4614 -0.0064
   27SAPC   H2X 3571   5.757   0.088   7.428  2.0964 -0.4607  0.0203
   27SAPC   H2Y 3572   5.810  -0.063   7.345 -0.7446  0.2175 -0.6569
   27SAPC   C23 3573   6.323   0.066   7.020  0.7733 -0.1110 -0.5844
   27SAPC   H3R 3574   6.380   0.152   6.979 -0.6780  0.6037 -1.1634
   27SAPC   H3S 3575   6.408  -0.006   7.028 -0.0061 -0.9399  0.5069
   27SAPC   C24 3576   6.278   0.102   7.162  0.2796 -0.1456  0.7498
   27SAPC   H4R 3577   6.215   0.194   7.163 -0.9686 -0.9528 -0.4291
   27SAPC   H4S 3578   6.375   0.128   7.210 -0.0121  0.1924  1.1705
   27SAPC   C25 3579   6.212  -0.015   7.231 -0.1480 -0.0284 -0.8961
   27SAPC   H5R 3580   6.109  -0.030   7.195  0.3735 -1.4496 -1.8792
   27SAPC   C26 3581   6.260  -0.085   7.331 -0.2943  0.1373 -0.4452
   27SAPC   H6R 3582   6.190  -0.157   7.375  0.4453 -1.0229 -1.1296
   27SAPC   C27 3583   6.393  -0.068   7.395  0.1372  0.4783 -1.2123
   27SAPC   H7R 3584   6.435   0.035   7.388  1.9153 -0.2958 -2.7772
   27SAPC   H7S 3585   6.470  -0.130   7.344  1.6405  1.3673 -0.1317
   27SAPC   C28 3586   6.380  -0.112   7.538  0.0502  0.2466 -0.1879
   27SAPC   H8R 3587   6.380  -0.222   7.551 -0.0720 -0.0941 -2.6401
   27SAPC   C29 3588   6.383  -0.034   7.651 -0.0928  0.1033 -0.0234
   27SAPC   H9R 3589   6.367  -0.090   7.744 -0.3995  0.0252 -0.1210
   27SAPC  C210 3590   6.418   0.120   7.652  0.0503  0.1966  0.1418
   27SAPC  H10R 3591   6.486   0.136   7.565 -0.8017 -0.8406 -0.7396
   27SAPC  H10S 3592   6.476   0.142   7.744 -1.5272 -0.4987  1.3459
   27SAPC  C211 3593   6.281   0.194   7.645  0.6417 -0.3032 -0.4563
   27SAPC  H11R 3594   6.222   0.158   7.560  0.9694 -0.2710 -0.6963
   27SAPC  C212 3595   6.231   0.292   7.732 -0.2343 -0.3169 -0.3970
   27SAPC  H12R 3596   6.128   0.330   7.721 -0.5414 -0.7715  0.7189
   27SAPC  C213 3597   6.292   0.361   7.857  1.2384 -0.3723  0.1062
   27SAPC  H13R 3598   6.270   0.469   7.854 -0.3181 -0.6698 -0.0719
   27SAPC  H13S 3599   6.403   0.365   7.849  1.0986  2.8305 -2.1208
   27SAPC  C214 3600   6.241   0.310   7.986 -0.6228 -0.2024 -0.5747
   27SAPC  H14R 3601   6.146   0.357   8.014  0.2145  1.0060  0.3112
   27SAPC  C215 3602   6.292   0.215   8.066  0.3859  0.0304  0.5745
   27SAPC  H15R 3603   6.239   0.195   8.160  0.4256 -0.1935  0.5517
   27SAPC  C216 3604   6.422   0.135   8.034 -1.2203  0.3282 -0.6653
   27SAPC  H16R 3605   6.475   0.168   7.943 -0.8098  0.3933 -0.4057
   27SAPC  H16S 3606   6.403   0.026   8.018  3.9779 -0.8092 -0.8288
   27SAPC  C217 3607   6.517   0.132   8.151 -0.0356 -0.3698  0.3868
   27SAPC  H17R 3608   6.561   0.231   8.175 -0.5824  0.1579 -0.7074
   27SAPC  H17S 3609   6.610   0.079   8.119  0.6977  0.2227  1.4613
   27SAPC  C218 3610   6.478   0.056   8.279 -0.1528  0.4122  0.1861
   27SAPC  H18R 3611   6.432  -0.044   8.261  2.7066 -1.5638  2.8788
   27SAPC  H18S 3612   6.397   0.118   8.324 -0.4396  0.6298 -0.6093
   27SAPC  C219 3613   6.590   0.049   8.389  0.1118 -0.0865  0.1046
   27SAPC  H19R 3614   6.554   0.075   8.491  2.6272  1.8456  0.5967
   27SAPC  H19S 3615   6.659   0.129   8.357  1.0130 -0.0054  2.1313
   27SAPC  C220 3616   6.667  -0.080   8.383  0.7113  0.6686 -0.1788
   27SAPC  H20R 3617   6.611  -0.153   8.444  2.2839  0.9330  1.6895
   27SAPC  H20S 3618   6.760  -0.067   8.442 -1.3800  1.7791  3.1576
   27SAPC  H20T 3619   6.700  -0.115   8.282 -0.0868 -2.6084  0.5881
   27SAPC   C33 3620   5.596  -0.060   7.401  0.4630  0.1508 -0.7088
   27SAPC   H3X 3621   5.587  -0.165   7.367  1.6285 -0.3826  0.5666
   27SAPC   H3Y 3622   5.510   0.000   7.363  1.6934  2.3298 -0.1920
   27SAPC   C34 3623   5.593  -0.077   7.555  0.1243  0.4096  0.0975
   27SAPC   H4X 3624   5.688  -0.120   7.592  0.0848  0.2233 -0.0176
   27SAPC   H4Y 3625   5.513  -0.152   7.576  1.6606 -1.2654  0.2122
   27SAPC   C35 3626   5.563   0.048   7.629 -1.0947  0.3973  0.6791
   27SAPC   H5X 3627   5.460   0.081   7.603 -0.5452  1.7257  0.0808
   27SAPC   H5Y 3628   5.630   0.125   7.585 -1.1990 -0.1356 -0.4597
   27SAPC   C36 3629   5.576   0.038   7.781 -0.0368 -0.3930 -0.6412
   27SAPC   H6X 3630   5.591   0.140   7.824 -0.0557 -1.2549  1.5614
   27SAPC   H6Y 3631   5.666  -0.018   7.817 -0.7672 -1.8095 -0.9571
   27SAPC   C37 3632   5.449  -0.017   7.841  0.0629 -0.4903 -0.8161
   27SAPC   H7X 3633   5.430  -0.109   7.781  0.2269 -0.3855 -1.0292
   27SAPC   H7Y 3634   5.376   0.066   7.833  0.6436  0.0939 -0.2140
   27SAPC   C38 3635   5.448  -0.067   7.990  0.0852  0.5270  0.1180
   27SAPC   H8X 3636   5.523  -0.149   7.997  0.0201  0.3289 -1.2332
   27SAPC   H8Y 3637   5.355  -0.127   8.002  1.1734 -1.2898 -0.1447
   27SAPC   C39 3638   5.491   0.032   8.097  0.1963  0.2071  0.5835
   27SAPC   H9X 3639   5.577   0.085   8.051 -1.8674  1.0791 -2.5347
   27SAPC   H9Y 3640   5.526  -0.023   8.188 -0.8542  1.7654  1.9674
   27SAPC  C310 3641   5.382   0.140   8.120  0.3587  0.7115 -0.3463
   27SAPC  H10X 3642   5.325   0.165   8.028 -1.3928  0.2251  0.5753
   27SAPC  H10Y 3643   5.437   0.232   8.150 -1.0216  2.1050 -1.8499
   27SAPC  C311 3644   5.277   0.091   8.223  0.0472 -0.0237  0.8720
   27SAPC  H11X 3645   5.223  -0.002   8.194 -1.0796  0.0605  2.5377
   27SAPC  H11Y 3646   5.211   0.179   8.243 -0.2941 -0.1980  0.5216
   27SAPC  C312 3647   5.329   0.048   8.366 -0.4540 -0.8257 -0.4278
   27SAPC  H12X 3648   5.408   0.124   8.386 -0.5486  0.0222 -2.9037
   27SAPC  H12Y 3649   5.393  -0.042   8.353  0.1721 -0.3030 -1.1408
   27SAPC  C313 3650   5.206   0.049   8.460 -0.6839 -0.4647  0.5002
   27SAPC  H13X 3651   5.140  -0.031   8.419 -0.9327  1.7311 -3.9790
   27SAPC  H13Y 3652   5.157   0.148   8.466 -0.9222 -0.5681  0.2893
   27SAPC  C314 3653   5.242   0.012   8.610  0.4396  0.3116  0.0275
   27SAPC  H14X 3654   5.271  -0.095   8.613  1.0706  0.4897  1.9061
   27SAPC  H14Y 3655   5.145   0.025   8.663  1.2148  0.9031  1.3679
   27SAPC  C315 3656   5.345   0.109   8.674  0.2512 -0.1098 -0.1006
   27SAPC  H15X 3657   5.311   0.215   8.663  0.6324  0.5878  3.8473
   27SAPC  H15Y 3658   5.440   0.081   8.624  1.3938 -1.9107  2.8163
   27SAPC  C316 3659   5.381   0.096   8.825  0.4381 -0.1630  0.3651
   27SAPC  H16X 3660   5.468   0.164   8.834  0.0146  0.1876  2.2917
   27SAPC  H16Y 3661   5.416  -0.006   8.849  0.2186 -1.0585 -2.6472
   27SAPC  C317 3662   5.278   0.135   8.931 -0.1893 -0.1507 -0.3300
   27SAPC  H17X 3663   5.218   0.212   8.878 -0.2520  0.4511  0.5825
   27SAPC  H17Y 3664   5.335   0.178   9.016 -0.8310  2.6082 -1.1712
   27SAPC  C318 3665   5.197   0.022   8.988 -0.6587  0.0588 -0.1283
   27SAPC  H18X 3666   5.164  -0.041   8.903  1.2154 -1.3914  0.1616
   27SAPC  H18Y 3667   5.118   0.064   9.054  0.6348  0.3090  1.3192
   27SAPC  H18Z 3668   5.258  -0.039   9.058  0.3839  0.5764 -0.5555
   28SAPC     N 3669   5.101   3.662   6.096  0.3579 -0.0452 -0.3038
   28SAPC   C12 3670   5.085   3.575   6.220 -0.5347 -0.2998 -0.3739
   28SAPC  H12A 3671   5.175   3.523   6.247  0.3520  1.6166  0.6299
   28SAPC  H12B 3672   5.025   3.492   6.187  0.6271 -1.2138 -0.2347
   28SAPC   C13 3673   4.969   3.675   6.044 -0.1096  0.4379 -0.3994
   28SAPC  H13A 3674   4.927   3.590   5.992 -1.8787  0.6112  0.6490
   28SAPC  H13B 3675   4.900   3.693   6.125  0.0528 -1.2261  0.1427
   28SAPC  H13C 3676   4.959   3.753   5.969  1.0535 -1.0642 -2.2085
   28SAPC   C14 3677   5.155   3.800   6.134 -0.4202  0.1752  0.5831
   28SAPC  H14A 3678   5.169   3.875   6.058 -2.3262 -1.3519 -1.4164
   28SAPC  H14B 3679   5.077   3.848   6.191 -0.4046  0.7374  0.1386
   28SAPC  H14C 3680   5.240   3.786   6.198 -0.3158 -0.5179  0.3022
   28SAPC   C15 3681   5.186   3.588   5.995  0.4512 -0.2221 -0.0749
   28SAPC  H15A 3682   5.217   3.659   5.919 -2.1730  0.2141 -0.8394
   28SAPC  H15B 3683   5.281   3.549   6.029  0.5157 -0.1549 -0.1743
   28SAPC  H15C 3684   5.140   3.509   5.938 -1.4676  1.6325 -1.2556
   28SAPC   C11 3685   5.016   3.640   6.343 -0.0934  0.3848 -0.5121
   28SAPC  H11A 3686   5.062   3.737   6.370  0.7307  0.1186 -0.9198
   28SAPC  H11B 3687   5.031   3.569   6.427  3.9734  1.0517 -0.4545
   28SAPC     P 3688   4.768   3.564   6.335  0.9711  0.1504 -0.2756
   28SAPC   O13 3689   4.630   3.622   6.334 -0.2365  0.0182 -0.6175
   28SAPC   O14 3690   4.792   3.466   6.226  0.3471  0.8972 -0.1120
   28SAPC   O12 3691   4.876   3.666   6.315 -0.2887 -0.2247 -0.1352
   28SAPC   O11 3692   4.793   3.497   6.472  0.5089  0.2789 -0.4939
   28SAPC    C1 3693   4.728   3.552   6.584  0.5275 -0.8383 -0.5408
   28SAPC    HA 3694   4.737   3.662   6.584  0.1696 -0.7913  0.6724
   28SAPC    HB 3695   4.622   3.521   6.572  0.3438 -0.9334  1.0807
   28SAPC    C2 3696   4.788   3.502   6.727  0.5841 -0.2993  0.1203
   28SAPC    HS 3697   4.733   3.558   6.806  2.5169  0.8393  0.7623
   28SAPC   O21 3698   4.929   3.529   6.728  0.7633 -0.1908 -0.0166
   28SAPC   C21 3699   4.966   3.650   6.767 -0.2222  0.3549  0.4737
   28SAPC   O22 3700   4.891   3.729   6.821 -0.4521 -0.7245  0.1785
   28SAPC   C22 3701   5.119   3.666   6.728  0.2390  0.0375  0.0187
   28SAPC   H2R 3702   5.159   3.575   6.678 -1.5514 -1.3228  0.9396
   28SAPC   H2S 3703   5.127   3.740   6.646 -0.7361 -0.0728 -0.1960
   28SAPC    C3 3704   4.771   3.347   6.746 -0.5603 -1.0483 -0.2278
   28SAPC    HX 3705   4.831   3.311   6.659  0.9659 -0.1797  0.4398
   28SAPC    HY 3706   4.664   3.317   6.742 -0.6378 -0.6822 -1.8275
   28SAPC   O31 3707   4.826   3.290   6.866 -0.2221  0.0732 -0.2910
   28SAPC   C31 3708   4.853   3.164   6.850 -0.0682 -0.2526 -0.2709
   28SAPC   O32 3709   4.864   3.103   6.741  0.0035  0.1356 -1.0225
   28SAPC   C32 3710   4.894   3.100   6.988 -0.0933 -0.4172  0.3393
   28SAPC   H2X 3711   4.904   2.993   6.961  0.5906  0.0408 -1.3267
   28SAPC   H2Y 3712   4.800   3.104   7.048 -0.1926  1.0002  0.1127
   28SAPC   C23 3713   5.206   3.727   6.844 -0.4643 -0.1712  0.7548
   28SAPC   H3R 3714   5.153   3.807   6.900 -0.4919  0.3671 -0.0199
   28SAPC   H3S 3715   5.290   3.780   6.794  0.0617  0.3176  2.1063
   28SAPC   C24 3716   5.279   3.622   6.933  0.1818 -0.3392  0.3231
   28SAPC   H4R 3717   5.330   3.567   6.851 -0.1418 -1.3140  0.7587
   28SAPC   H4S 3718   5.354   3.680   6.991  1.6152 -1.4661 -0.3406
   28SAPC   C25 3719   5.194   3.528   7.017 -0.1995  0.4111  0.1727
   28SAPC   H5R 3720   5.157   3.449   6.950  1.8854  0.3508 -0.9910
   28SAPC   C26 3721   5.164   3.532   7.152  0.4200 -0.2741 -0.3921
   28SAPC   H6R 3722   5.082   3.465   7.184  0.1936 -1.2160 -2.7244
   28SAPC   C27 3723   5.206   3.643   7.241 -0.1280 -0.0105  0.1258
   28SAPC   H7R 3724   5.244   3.727   7.179  2.5354 -0.7249  0.6916
   28SAPC   H7S 3725   5.304   3.613   7.284 -0.3915  0.2597  0.9330
   28SAPC   C28 3726   5.104   3.668   7.347 -0.2042 -0.4247 -0.5020
   28SAPC   H8R 3727   5.027   3.740   7.317 -0.3391 -0.5739 -0.5148
   28SAPC   C29 3728   5.100   3.603   7.470  0.0064 -0.3251  0.1848
   28SAPC   H9R 3729   5.010   3.627   7.529  0.0041  0.6637 -0.1989
   28SAPC  C210 3730   5.205   3.507   7.525 -0.2062 -0.2284  0.1813
   28SAPC  H10R 3731   5.223   3.423   7.454 -1.1047 -1.8079  1.7493
   28SAPC  H10S 3732   5.152   3.455   7.607 -1.2911  0.8312  0.1672
   28SAPC  C211 3733   5.328   3.556   7.587 -0.6284 -0.6099 -0.0769
   28SAPC  H11R 3734   5.422   3.510   7.553 -0.9603 -0.2128 -1.6281
   28SAPC  C212 3735   5.330   3.634   7.696 -0.0049 -0.4802  0.1996
   28SAPC  H12R 3736   5.426   3.677   7.727 -0.1342 -0.9190  1.2412
   28SAPC  C213 3737   5.208   3.691   7.768 -0.1798 -0.1639  0.6724
   28SAPC  H13R 3738   5.112   3.645   7.735 -1.2970  1.7156  1.1365
   28SAPC  H13S 3739   5.218   3.800   7.749  1.8275 -0.7193 -2.1790
   28SAPC  C214 3740   5.213   3.661   7.911 -0.5655 -0.7093 -0.3176
   28SAPC  H14R 3741   5.188   3.557   7.939 -0.2970 -0.6993 -0.0346
   28SAPC  C215 3742   5.230   3.750   8.011  0.3371  0.9195 -0.1842
   28SAPC  H15R 3743   5.245   3.707   8.111  0.8035  1.4954 -0.0027
   28SAPC  C216 3744   5.262   3.899   8.002 -0.1386  0.4564  0.1005
   28SAPC  H16R 3745   5.195   3.944   7.925  1.3606  2.4071 -0.1334
   28SAPC  H16S 3746   5.362   3.920   7.960 -1.2547  1.9802 -2.0159
   28SAPC  C217 3747   5.258   3.943   8.149  0.3657 -0.0016 -0.1165
   28SAPC  H17R 3748   5.327   3.881   8.208  2.5939  0.8276 -1.7134
   28SAPC  H17S 3749   5.154   3.925   8.185  0.4678 -1.5975 -0.5664
   28SAPC  C218 3750   5.285   4.091   8.169  0.1328  0.0320  0.0889
   28SAPC  H18R 3751   5.204   4.145   8.114  0.8838 -0.3650 -1.4515
   28SAPC  H18S 3752   5.384   4.115   8.125 -0.4551  1.0733 -0.7388
   28SAPC  C219 3753   5.281   4.130   8.313 -0.2303 -0.1361 -0.2806
   28SAPC  H19R 3754   5.223   4.049   8.362 -0.9189  0.5109  0.0037
   28SAPC  H19S 3755   5.226   4.227   8.326 -0.6550 -0.3331 -0.5775
   28SAPC  C220 3756   5.417   4.163   8.372 -0.3480 -0.2403  0.0859
   28SAPC  H20R 3757   5.414   4.163   8.483 -1.1645  1.0659  0.0898
   28SAPC  H20S 3758   5.458   4.262   8.341  1.2466 -0.6540  0.7764
   28SAPC  H20T 3759   5.493   4.088   8.341 -1.2647 -1.0694 -0.2246
   28SAPC   C33 3760   5.016   3.169   7.057  0.1283 -0.4969 -0.3832
   28SAPC   H3X 3761   5.001   3.279   7.055  0.3375 -0.4307  0.8228
   28SAPC   H3Y 3762   5.107   3.140   7.001  0.0157  1.0826 -1.4340
   28SAPC   C34 3763   5.025   3.146   7.209  0.0500  0.0265  0.1760
   28SAPC   H4X 3764   5.105   3.214   7.246  0.2034  1.1128 -1.9916
   28SAPC   H4Y 3765   5.076   3.051   7.236  0.6531  1.0195  2.8042
   28SAPC   C35 3766   4.891   3.164   7.285  0.5328  0.0034  0.2583
   28SAPC   H5X 3767   4.835   3.068   7.291 -0.5000  0.5402 -0.5077
   28SAPC   H5Y 3768   4.823   3.229   7.227  0.7170  1.0240  1.1654
   28SAPC   C36 3769   4.915   3.218   7.426 -0.4149 -0.0208  0.0700
   28SAPC   H6X 3770   4.820   3.264   7.460 -1.4140 -2.7386  1.2258
   28SAPC   H6Y 3771   4.982   3.305   7.412  0.5908 -0.8234 -0.2099
   28SAPC   C37 3772   4.961   3.110   7.523  0.1596 -0.2453 -0.0074
   28SAPC   H7X 3773   5.057   3.066   7.488  0.2920  0.5958 -0.7598
   28SAPC   H7Y 3774   4.880   3.035   7.513  0.2508 -0.4197  0.5305
   28SAPC   C38 3775   4.984   3.170   7.661 -0.5166  0.7790 -0.0600
   28SAPC   H8X 3776   4.894   3.232   7.678 -0.9964  0.0326  0.2037
   28SAPC   H8Y 3777   5.075   3.233   7.664 -1.8306  2.8130 -0.9012
   28SAPC   C39 3778   5.003   3.058   7.767 -0.1596 -0.0303  0.3968
   28SAPC   H9X 3779   5.087   2.993   7.736 -0.3222  0.4712 -1.1789
   28SAPC   H9Y 3780   4.912   2.993   7.768  0.1636 -0.4978 -0.0758
   28SAPC  C310 3781   5.015   3.099   7.914 -0.5581  0.3308  0.4607
   28SAPC  H10X 3782   5.082   3.187   7.927  0.0120 -0.0439  0.1059
   28SAPC  H10Y 3783   5.054   3.011   7.970  0.7711  1.7506  1.8530
   28SAPC  C311 3784   4.889   3.124   7.988  0.3909 -0.4259  0.7420
   28SAPC  H11X 3785   4.837   3.026   7.992 -0.2667 -0.1172  0.0312
   28SAPC  H11Y 3786   4.830   3.203   7.937  0.3012  0.3734  2.0393
   28SAPC  C312 3787   4.902   3.178   8.131 -0.0507 -0.2413 -0.0988
   28SAPC  H12X 3788   4.808   3.220   8.173 -2.4354 -1.2881 -3.9306
   28SAPC  H12Y 3789   4.975   3.262   8.129  2.9549 -2.6415  0.0377
   28SAPC  C313 3790   4.959   3.075   8.227  0.1349 -0.3788  0.2471
   28SAPC  H13X 3791   5.039   3.017   8.177 -0.5141 -1.3900  0.3515
   28SAPC  H13Y 3792   4.878   3.012   8.270 -1.0842  0.1949 -1.1023
   28SAPC  C314 3793   5.038   3.134   8.350 -0.3997 -0.2962 -0.3971
   28SAPC  H14X 3794   4.963   3.186   8.412  2.9414  1.5525  2.4786
   28SAPC  H14Y 3795   5.117   3.205   8.319 -1.2446  0.8404 -0.0024
   28SAPC  C315 3796   5.110   3.028   8.446  0.6362  0.1401  0.0434
   28SAPC  H15X 3797   5.160   3.085   8.527 -1.5460  2.1533  0.1109
   28SAPC  H15Y 3798   5.191   2.979   8.388 -0.4815  0.8666 -2.2627
   28SAPC  C316 3799   5.006   2.923   8.506 -0.1797 -0.1819  0.0799
   28SAPC  H16X 3800   4.936   2.878   8.431 -2.0537  0.6912  1.2320
   28SAPC  H16Y 3801   4.934   2.980   8.568  1.5160  1.2717  0.7765
   28SAPC  C317 3802   5.080   2.822   8.596  0.2635  0.0062  0.1012
   28SAPC  H17X 3803   5.135   2.751   8.530  1.0188 -0.3247  1.0632
   28SAPC  H17Y 3804   4.996   2.765   8.642 -0.2891  1.5867  1.1415
   28SAPC  C318 3805   5.182   2.880   8.688  0.7582 -0.0944  0.0214
   28SAPC  H18X 3806   5.263   2.930   8.631  0.7036 -0.1577 -0.1132
   28SAPC  H18Y 3807   5.223   2.796   8.748  2.4772 -0.8605 -2.0743
   28SAPC  H18Z 3808   5.144   2.949   8.766  1.2340 -0.9493  1.0199
   29SAPC     N 3809   6.074   0.552   6.558 -0.3899  0.4332  0.2772
   29SAPC   C12 3810   6.116   0.504   6.414 -0.0160 -1.0725  0.6630
   29SAPC  H12A 3811   6.026   0.481   6.359  0.5807 -0.7095 -0.4842
   29SAPC  H12B 3812   6.178   0.416   6.421  0.8405 -0.3811  2.5124
   29SAPC   C13 3813   5.975   0.661   6.575 -0.2247  0.8868  0.3017
   29SAPC  H13A 3814   5.948   0.671   6.679 -2.0790  0.4004 -0.0939
   29SAPC  H13B 3815   6.021   0.755   6.548  0.2273 -0.0941 -2.6909
   29SAPC  H13C 3816   5.878   0.648   6.528  0.0667 -2.1512  0.3278
   29SAPC   C14 3817   6.026   0.429   6.627 -0.5975  0.1832 -0.2989
   29SAPC  H14A 3818   6.072   0.339   6.587 -1.3939  1.2079 -3.7765
   29SAPC  H14B 3819   6.032   0.432   6.735 -1.3104 -0.5269 -0.2326
   29SAPC  H14C 3820   5.921   0.431   6.604 -0.3274  1.7183 -1.5449
   29SAPC   C15 3821   6.196   0.603   6.630  0.2643 -0.2285  0.9113
   29SAPC  H15A 3822   6.246   0.681   6.574 -0.7330 -1.3567 -1.6642
   29SAPC  H15B 3823   6.160   0.665   6.711 -3.0542 -1.4089  0.4755
   29SAPC  H15C 3824   6.271   0.535   6.669 -0.7877 -0.6744  2.2292
   29SAPC   C11 3825   6.205   0.599   6.328 -0.1478 -0.0287  0.0962
   29SAPC  H11A 3826   6.141   0.687   6.307  0.8382  0.4582 -1.0173
   29SAPC  H11B 3827   6.219   0.534   6.239 -0.9352 -2.9470  1.9474
   29SAPC     P 3828   6.459   0.559   6.377  0.4513  0.1505  0.2788
   29SAPC   O13 3829   6.420   0.422   6.350 -0.0330  0.4368  0.2001
   29SAPC   O14 3830   6.539   0.623   6.275 -0.2617  0.6736 -0.4017
   29SAPC   O12 3831   6.331   0.635   6.390 -0.2772  0.4603 -0.2181
   29SAPC   O11 3832   6.529   0.563   6.517  0.3121 -0.4514 -0.2232
   29SAPC    C1 3833   6.666   0.526   6.543  0.3963  0.0826 -0.3264
   29SAPC    HA 3834   6.714   0.491   6.450  0.2040  0.6631 -0.6476
   29SAPC    HB 3835   6.720   0.611   6.590 -2.3174  0.6913  1.9478
   29SAPC    C2 3836   6.674   0.406   6.648 -0.7167 -0.0174 -0.2763
   29SAPC    HS 3837   6.620   0.320   6.602 -2.7808  0.5058  1.0364
   29SAPC   O21 3838   6.621   0.452   6.773  0.1569 -0.2867 -0.0059
   29SAPC   C21 3839   6.497   0.421   6.798 -0.0722 -0.2395 -0.7592
   29SAPC   O22 3840   6.422   0.347   6.737  0.0794 -0.6533  0.2124
   29SAPC   C22 3841   6.451   0.501   6.916 -0.2969  0.0612  0.3547
   29SAPC   H2R 3842   6.531   0.498   6.993  0.2952  0.9475 -0.2027
   29SAPC   H2S 3843   6.451   0.602   6.870 -0.6581 -1.3685 -3.1639
   29SAPC    C3 3844   6.827   0.377   6.678  0.0653  0.3286 -0.9401
   29SAPC    HX 3845   6.871   0.472   6.715 -0.9597  0.8703 -1.0858
   29SAPC    HY 3846   6.880   0.359   6.582  1.2278  1.1324 -0.4754
   29SAPC   O31 3847   6.842   0.276   6.773 -0.0470  0.7104  0.1380
   29SAPC   C31 3848   6.856   0.161   6.724 -0.3782 -0.1819  0.1503
   29SAPC   O32 3849   6.869   0.130   6.604 -0.2935  0.5813 -0.4759
   29SAPC   C32 3850   6.850   0.065   6.848  0.4799 -0.7601 -0.7760
   29SAPC   H2X 3851   6.916   0.096   6.931 -1.5583  0.1206  0.5915
   29SAPC   H2Y 3852   6.886  -0.033   6.809  1.9607 -0.0310 -1.2970
   29SAPC   C23 3853   6.314   0.468   6.963  0.3064 -0.2628  0.5673
   29SAPC   H3R 3854   6.313   0.365   7.005 -0.7943 -0.5186 -0.0375
   29SAPC   H3S 3855   6.243   0.475   6.878  0.4727 -2.7270  0.1654
   29SAPC   C24 3856   6.254   0.562   7.073  0.5019 -1.1493  0.4104
   29SAPC   H4R 3857   6.148   0.582   7.049  1.3126  2.5435 -0.7664
   29SAPC   H4S 3858   6.293   0.663   7.050 -3.5651  0.7359  0.9360
   29SAPC   C25 3859   6.281   0.519   7.217 -0.5159 -0.6510 -0.3064
   29SAPC   H5R 3860   6.383   0.538   7.254 -1.2656  0.2663  1.4203
   29SAPC   C26 3861   6.190   0.472   7.305  0.1102 -0.0454 -0.0318
   29SAPC   H6R 3862   6.215   0.450   7.410  0.5518  0.7282  0.0381
   29SAPC   C27 3863   6.041   0.457   7.280 -0.4039 -0.5180 -0.2134
   29SAPC   H7R 3864   6.020   0.354   7.316 -0.7398  0.5985  3.1654
   29SAPC   H7S 3865   6.025   0.450   7.171 -0.8427  1.3721 -0.3020
   29SAPC   C28 3866   5.941   0.553   7.344 -0.1747  0.5931 -0.8217
   29SAPC   H8R 3867   5.915   0.646   7.291 -1.7844  1.1828  0.9045
   29SAPC   C29 3868   5.881   0.531   7.461 -0.2633 -0.5449  0.1219
   29SAPC   H9R 3869   5.817   0.613   7.498 -0.7419 -0.0390 -1.7463
   29SAPC  C210 3870   5.892   0.419   7.554 -0.3291  0.3266 -0.0547
   29SAPC  H10R 3871   5.954   0.436   7.644 -1.4473 -1.9324  1.2344
   29SAPC  H10S 3872   5.940   0.334   7.501  0.9613  1.8337 -1.4053
   29SAPC  C211 3873   5.753   0.396   7.614 -0.5076  0.9046  0.7416
   29SAPC  H11R 3874   5.684   0.341   7.548 -1.1725  1.1839  1.1815
   29SAPC  C212 3875   5.708   0.413   7.741  0.5275 -0.0413 -0.8345
   29SAPC  H12R 3876   5.602   0.390   7.755  0.2157  2.4133  1.6829
   29SAPC  C213 3877   5.783   0.453   7.867  0.1259 -0.0964  1.4039
   29SAPC  H13R 3878   5.721   0.531   7.917 -0.8492 -0.0665  0.1968
   29SAPC  H13S 3879   5.881   0.492   7.833 -0.2185 -1.4995 -1.5165
   29SAPC  C214 3880   5.799   0.327   7.957  1.0661 -0.5412 -0.1590
   29SAPC  H14R 3881   5.815   0.232   7.904 -0.1986 -0.2889 -1.0351
   29SAPC  C215 3882   5.786   0.314   8.091 -0.1206 -0.5513  0.2151
   29SAPC  H15R 3883   5.803   0.216   8.137  0.2643 -0.6319 -0.1007
   29SAPC  C216 3884   5.761   0.421   8.191 -0.2812 -0.6216  0.8889
   29SAPC  H16R 3885   5.738   0.388   8.294  0.0790  0.4600  1.3301
   29SAPC  H16S 3886   5.674   0.477   8.152 -0.7740  1.0759  4.0911
   29SAPC  C217 3887   5.880   0.529   8.200  0.5420  0.1814 -0.0663
   29SAPC  H17R 3888   5.890   0.575   8.099 -0.9846 -2.1024 -1.3478
   29SAPC  H17S 3889   5.977   0.478   8.220  0.6779  0.1989 -0.6424
   29SAPC  C218 3890   5.849   0.625   8.307  0.3727  0.1122 -0.7327
   29SAPC  H18R 3891   5.925   0.704   8.317  1.9965 -1.5741  1.1734
   29SAPC  H18S 3892   5.864   0.573   8.404  2.7115 -0.4550 -1.3333
   29SAPC  C219 3893   5.705   0.691   8.303  0.1827 -0.4256 -0.0304
   29SAPC  H19R 3894   5.622   0.617   8.312 -0.9366  0.8387  0.4248
   29SAPC  H19S 3895   5.682   0.739   8.206 -0.8354  2.8553  1.6853
   29SAPC  C220 3896   5.673   0.808   8.398 -0.0367 -0.0828 -0.6317
   29SAPC  H20R 3897   5.566   0.838   8.392 -0.1081  0.4132  1.9478
   29SAPC  H20S 3898   5.734   0.899   8.380  3.1172 -2.3024 -2.0659
   29SAPC  H20T 3899   5.688   0.779   8.504 -0.2195  3.4036  0.4554
   29SAPC   C33 3900   6.707   0.028   6.901  0.3751 -0.0091 -0.5207
   29SAPC   H3X 3901   6.660  -0.016   6.811  1.4104 -1.2641 -0.4834
   29SAPC   H3Y 3902   6.643   0.113   6.931  0.9443  0.3526 -0.3076
   29SAPC   C34 3903   6.699  -0.084   7.003 -0.1524  0.3026  0.3108
   29SAPC   H4X 3904   6.791  -0.146   6.999 -0.8870 -0.7561 -1.0974
   29SAPC   H4Y 3905   6.620  -0.161   6.988  0.2781 -0.0701 -0.0924
   29SAPC   C35 3906   6.692  -0.027   7.152 -1.0657 -0.0553  0.4709
   29SAPC   H5X 3907   6.586  -0.036   7.182 -0.1696  0.0701  4.1427
   29SAPC   H5Y 3908   6.714   0.082   7.143  2.3099 -0.5961  0.6363
   29SAPC   C36 3909   6.796  -0.096   7.252 -0.5111 -0.2895 -0.3680
   29SAPC   H6X 3910   6.899  -0.061   7.234 -0.9953  1.9628  0.7975
   29SAPC   H6Y 3911   6.793  -0.206   7.239 -2.9537 -0.2793 -0.3736
   29SAPC   C37 3912   6.758  -0.072   7.398 -0.6354 -0.1350  0.2600
   29SAPC   H7X 3913   6.663  -0.124   7.424 -0.4512 -0.4603  0.2772
   29SAPC   H7Y 3914   6.746   0.036   7.422 -0.5985 -0.4871  2.0048
   29SAPC   C38 3915   6.864  -0.127   7.496 -0.6005 -0.4601  0.3012
   29SAPC   H8X 3916   6.968  -0.096   7.474 -0.7812 -1.8165 -2.9729
   29SAPC   H8Y 3917   6.864  -0.238   7.496  1.8455 -0.5093  0.8270
   29SAPC   C39 3918   6.828  -0.084   7.637 -0.3108  0.2273 -1.3123
   29SAPC   H9X 3919   6.732  -0.130   7.668  0.8759 -0.2802  2.0990
   29SAPC   H9Y 3920   6.812   0.026   7.638 -0.2323  0.2385 -1.0643
   29SAPC  C310 3921   6.935  -0.112   7.737 -0.6713 -0.4562  0.3949
   29SAPC  H10X 3922   6.920  -0.073   7.840  1.9759  0.5457  0.4875
   29SAPC  H10Y 3923   7.034  -0.070   7.709 -0.2696  0.2248  2.5735
   29SAPC  C311 3924   6.956  -0.266   7.758 -0.1223  0.2641  0.8025
   29SAPC  H11X 3925   7.012  -0.309   7.672 -1.6562 -3.6457  1.5471
   29SAPC  H11Y 3926   6.859  -0.315   7.780 -1.6789  3.3450  1.4592
   29SAPC  C312 3927   7.045  -0.287   7.878 -0.5902  0.0272  0.0984
   29SAPC  H12X 3928   7.134  -0.220   7.888  0.9792 -2.1167  1.2180
   29SAPC  H12Y 3929   7.081  -0.391   7.866  0.8779  0.5081  0.1405
   29SAPC  C313 3930   6.969  -0.292   8.014  0.3939 -0.2792 -0.0227
   29SAPC  H13X 3931   6.891  -0.369   7.995  1.8326 -1.6029 -0.8406
   29SAPC  H13Y 3932   6.922  -0.194   8.035  0.0411 -0.3304 -0.5499
   29SAPC  C314 3933   7.053  -0.329   8.126 -1.3797 -0.3018 -0.1242
   29SAPC  H14X 3934   7.129  -0.249   8.144 -0.7720 -1.2079  1.5199
   29SAPC  H14Y 3935   7.112  -0.420   8.104  0.3582  1.3807 -3.2390
   29SAPC  C315 3936   6.971  -0.327   8.254  0.5338  0.1079  0.0018
   29SAPC  H15X 3937   6.879  -0.383   8.230  1.1290 -0.7592 -0.3109
   29SAPC  H15Y 3938   6.939  -0.222   8.270 -0.4115  0.3933 -3.1012
   29SAPC  C316 3939   7.058  -0.375   8.368 -0.3333 -0.3024  0.3922
   29SAPC  H16X 3940   7.139  -0.303   8.394 -0.0959 -0.5149  0.2483
   29SAPC  H16Y 3941   7.113  -0.469   8.347  2.4772  0.4949  3.3515
   29SAPC  C317 3942   6.978  -0.398   8.500 -0.0171 -0.2081 -0.5385
   29SAPC  H17X 3943   6.960  -0.297   8.542  0.2268 -0.1551 -0.5585
   29SAPC  H17Y 3944   7.049  -0.456   8.564  0.9752  0.0689 -1.3528
   29SAPC  C318 3945   6.852  -0.480   8.487 -0.0049  0.2386 -0.3423
   29SAPC  H18X 3946   6.772  -0.414   8.448 -0.6238 -0.6237 -0.5714
   29SAPC  H18Y 3947   6.814  -0.498   8.590 -0.8350  0.0124 -0.6811
   29SAPC  H18Z 3948   6.861  -0.582   8.442 -0.6288  0.3515 -0.7236
   30SAPC     N 3949   2.332   1.483   6.188  0.1132 -0.8448 -0.3375
   30SAPC   C12 3950   2.402   1.615   6.165 -0.3713 -0.2774  0.9031
   30SAPC  H12A 3951   2.345   1.660   6.085 -1.5349 -2.5012  0.4085
   30SAPC  H12B 3952   2.505   1.595   6.139 -0.4210 -1.3389  1.4480
   30SAPC   C13 3953   2.180   1.508   6.204 -0.8430  0.4128 -0.0148
   30SAPC  H13A 3954   2.134   1.412   6.216 -0.2222  0.1237  0.0967
   30SAPC  H13B 3955   2.160   1.569   6.291 -0.5070 -0.5190  0.7427
   30SAPC  H13C 3956   2.140   1.567   6.123 -1.2186  2.7744  1.7765
   30SAPC   C14 3957   2.343   1.388   6.075 -0.2294  0.0920  0.3867
   30SAPC  H14A 3958   2.280   1.300   6.084 -0.0170 -0.4811 -2.6395
   30SAPC  H14B 3959   2.311   1.434   5.982 -0.1262  0.8221  0.7087
   30SAPC  H14C 3960   2.441   1.343   6.070 -0.9961 -1.6284 -0.0095
   30SAPC   C15 3961   2.377   1.421   6.316 -0.7208  0.0536  0.1283
   30SAPC  H15A 3962   2.482   1.395   6.315 -1.1255 -2.0824  2.4664
   30SAPC  H15B 3963   2.356   1.473   6.408 -3.0957 -0.0560 -0.2874
   30SAPC  H15C 3964   2.334   1.325   6.340  0.5099 -0.1179  1.7492
   30SAPC   C11 3965   2.388   1.712   6.280  0.0481  0.0905  0.9579
   30SAPC  H11A 3966   2.417   1.664   6.376  0.8111 -1.0155  0.2006
   30SAPC  H11B 3967   2.282   1.741   6.295 -0.4969 -1.4576  0.3275
   30SAPC     P 3968   2.595   1.863   6.317  0.2278  0.4614  0.0899
   30SAPC   O13 3969   2.675   1.741   6.357  0.0796 -0.0175 -0.0224
   30SAPC   O14 3970   2.658   1.965   6.227  1.2386 -0.0137 -0.8930
   30SAPC   O12 3971   2.466   1.822   6.239 -0.0730  0.3473 -0.5428
   30SAPC   O11 3972   2.532   1.919   6.451  0.1446  0.2784  0.0001
   30SAPC    C1 3973   2.468   2.052   6.448 -0.2366 -0.0340  0.1687
   30SAPC    HA 3974   2.538   2.137   6.461  1.0835 -1.0824  0.1291
   30SAPC    HB 3975   2.407   2.059   6.355 -0.4852 -0.8356  0.2626
   30SAPC    C2 3976   2.365   2.073   6.559 -0.1063  0.2548  0.0234
   30SAPC    HS 3977   2.316   2.173   6.553 -1.0367 -0.2217 -0.5358
   30SAPC   O21 3978   2.418   2.041   6.689  0.5910  0.4510  0.5962
   30SAPC   C21 3979   2.416   2.136   6.776 -0.5756  0.2253 -0.1461
   30SAPC   O22 3980   2.390   2.251   6.760  0.2223 -0.9475  0.2810
   30SAPC   C22 3981   2.447   2.067   6.908 -0.0160  0.1341  0.4017
   30SAPC   H2R 3982   2.355   2.023   6.951 -0.1770 -0.8234 -0.8761
   30SAPC   H2S 3983   2.522   1.988   6.885 -1.7084 -1.0203 -1.4236
   30SAPC    C3 3984   2.248   1.974   6.538 -0.1318 -0.2313 -1.1107
   30SAPC    HX 3985   2.279   1.867   6.540 -2.0795 -0.9390  3.2448
   30SAPC    HY 3986   2.212   1.988   6.434 -0.2031  0.7343 -0.9657
   30SAPC   O31 3987   2.154   1.981   6.646 -0.5987  0.1292  0.2253
   30SAPC   C31 3988   2.066   2.074   6.635 -0.0176 -0.8877 -0.5249
   30SAPC   O32 3989   2.052   2.149   6.537  0.0806 -0.1694  0.5492
   30SAPC   C32 3990   1.981   2.078   6.763 -0.0793  0.3911  0.2095
   30SAPC   H2X 3991   1.920   1.985   6.770  1.2017 -0.8183 -2.7877
   30SAPC   H2Y 3992   1.912   2.165   6.755 -0.9157 -0.3049 -0.3907
   30SAPC   C23 3993   2.508   2.171   7.007  0.4271  0.1773 -0.1837
   30SAPC   H3R 3994   2.437   2.244   7.052  0.0639  0.2070 -0.7971
   30SAPC   H3S 3995   2.576   2.234   6.947  1.9936 -2.6480 -1.5981
   30SAPC   C24 3996   2.583   2.108   7.124 -0.5679 -0.0231 -0.3912
   30SAPC   H4R 3997   2.645   2.187   7.171  1.2859 -0.4795 -1.9316
   30SAPC   H4S 3998   2.656   2.039   7.077  0.6670  0.5768  0.5902
   30SAPC   C25 3999   2.488   2.034   7.218  0.2008 -0.5116  0.4078
   30SAPC   H5R 4000   2.405   1.980   7.170 -1.5297  0.9953  1.5644
   30SAPC   C26 4001   2.481   2.045   7.354  0.2987 -0.2910 -0.0526
   30SAPC   H6R 4002   2.418   1.970   7.405 -0.2407  0.4681  0.4130
   30SAPC   C27 4003   2.588   2.109   7.450 -0.7253 -0.2441 -0.0831
   30SAPC   H7R 4004   2.660   2.161   7.384 -1.2828  1.1117  0.3446
   30SAPC   H7S 4005   2.642   2.029   7.505 -0.1550  0.8488  0.9799
   30SAPC   C28 4006   2.528   2.212   7.546  0.3112 -0.1673 -0.1916
   30SAPC   H8R 4007   2.461   2.287   7.500  0.8646  0.6218  0.2721
   30SAPC   C29 4008   2.539   2.207   7.681  0.1407 -0.2023 -0.5067
   30SAPC   H9R 4009   2.510   2.291   7.745  2.7671 -0.0196  0.5411
   30SAPC  C210 4010   2.610   2.101   7.768  0.8266 -0.3885 -0.3381
   30SAPC  H10R 4011   2.706   2.138   7.811  0.8032  1.1443 -1.5030
   30SAPC  H10S 4012   2.646   2.013   7.709 -1.5115 -0.8544 -1.1721
   30SAPC  C211 4013   2.522   2.026   7.860  0.5031 -0.9872 -0.4616
   30SAPC  H11R 4014   2.449   1.964   7.806 -1.3722  0.0785  0.7506
   30SAPC  C212 4015   2.531   2.036   7.998 -0.4025  0.0337 -0.3020
   30SAPC  H12R 4016   2.475   1.965   8.061 -0.3989  0.9389  0.7573
   30SAPC  C213 4017   2.627   2.128   8.075  0.1240 -1.0057  0.1087
   30SAPC  H13R 4018   2.661   2.214   8.012  0.2966 -0.0906  1.4030
   30SAPC  H13S 4019   2.716   2.064   8.096 -0.8578 -2.5751 -0.3578
   30SAPC  C214 4020   2.584   2.177   8.210  0.6412 -0.0942  0.7116
   30SAPC  H14R 4021   2.559   2.093   8.277 -1.7430  1.1474  1.4963
   30SAPC  C215 4022   2.565   2.303   8.250  0.0223  0.9581 -0.0760
   30SAPC  H15R 4023   2.525   2.315   8.351 -0.6473 -3.1244  0.3425
   30SAPC  C216 4024   2.589   2.410   8.160  0.2988  0.1292 -0.8081
   30SAPC  H16R 4025   2.501   2.412   8.092 -0.4979 -2.0062  0.0956
   30SAPC  H16S 4026   2.687   2.406   8.109  0.6045 -0.3448 -0.1933
   30SAPC  C217 4027   2.589   2.537   8.244 -0.2014 -0.1567 -0.0174
   30SAPC  H17R 4028   2.671   2.540   8.319 -2.5932  1.1975  2.7706
   30SAPC  H17S 4029   2.489   2.549   8.290  0.2148  4.0581  0.1729
   30SAPC  C218 4030   2.597   2.654   8.143 -0.0103 -0.0197 -0.0534
   30SAPC  H18R 4031   2.544   2.623   8.050  1.0658  1.4406 -1.2045
   30SAPC  H18S 4032   2.699   2.660   8.100 -1.1506 -1.7225 -3.3204
   30SAPC  C219 4033   2.537   2.779   8.201 -0.2931 -0.1304  0.1475
   30SAPC  H19R 4034   2.441   2.756   8.252 -0.6104  2.1488  0.6989
   30SAPC  H19S 4035   2.525   2.858   8.123 -0.6278  0.3357  0.6691
   30SAPC  C220 4036   2.632   2.847   8.306  0.0137  0.9997  0.4677
   30SAPC  H20R 4037   2.732   2.856   8.259  0.4042  0.7229  1.2377
   30SAPC  H20S 4038   2.652   2.765   8.379 -0.7714 -0.4985 -0.9397
   30SAPC  H20T 4039   2.604   2.942   8.357  0.0799 -0.5033  3.5393
   30SAPC   C33 4040   2.070   2.087   6.893  0.2536 -0.2942 -0.2071
   30SAPC   H3X 4041   2.139   2.171   6.868  0.4449 -0.7101 -1.0902
   30SAPC   H3Y 4042   2.128   1.993   6.896  2.0987  0.7839 -0.0226
   30SAPC   C34 4043   2.008   2.115   7.025  0.7996 -0.2732 -0.2008
   30SAPC   H4X 4044   1.924   2.043   7.040  0.5564  0.1771  0.7153
   30SAPC   H4Y 4045   1.967   2.218   7.032 -0.4879 -0.8315  0.9855
   30SAPC   C35 4046   2.108   2.104   7.132 -0.2597 -0.0899  0.0704
   30SAPC   H5X 4047   2.184   2.184   7.115 -0.1477 -0.8098 -3.6945
   30SAPC   H5Y 4048   2.164   2.008   7.129 -0.2469 -0.0848 -2.9865
   30SAPC   C36 4049   2.045   2.123   7.267  0.5503  0.0789 -0.1096
   30SAPC   H6X 4050   1.980   2.038   7.299  0.0457  1.3373  2.4550
   30SAPC   H6Y 4051   1.985   2.216   7.260  0.5882  0.2752  1.7632
   30SAPC   C37 4052   2.142   2.147   7.383 -0.1625 -0.6321  0.4338
   30SAPC   H7X 4053   2.218   2.221   7.350 -0.3158 -0.1707  1.0928
   30SAPC   H7Y 4054   2.188   2.049   7.407  0.1392 -0.1667  1.8170
   30SAPC   C38 4055   2.069   2.204   7.505  0.5740 -0.0336  0.1782
   30SAPC   H8X 4056   1.974   2.152   7.530  0.7401 -0.3395  0.1741
   30SAPC   H8Y 4057   2.049   2.312   7.488  1.0831  0.0028 -0.2141
   30SAPC   C39 4058   2.155   2.192   7.634  0.1561  0.2567  0.1862
   30SAPC   H9X 4059   2.247   2.252   7.617 -0.1743  0.4017 -1.1700
   30SAPC   H9Y 4060   2.162   2.088   7.675 -1.6152  0.8356  2.1588
   30SAPC  C310 4061   2.086   2.260   7.751  0.1875 -0.4405 -0.0415
   30SAPC  H10X 4062   1.994   2.200   7.770  0.1260  0.1769  1.8209
   30SAPC  H10Y 4063   2.045   2.359   7.720 -0.1999 -0.3149  0.8440
   30SAPC  C311 4064   2.163   2.249   7.889 -0.0819 -0.3438  0.3753
   30SAPC  H11X 4065   2.261   2.301   7.880  1.1248 -2.1040  2.4591
   30SAPC  H11Y 4066   2.190   2.142   7.905 -1.1933 -0.1787  4.1633
   30SAPC  C312 4067   2.095   2.313   8.007  0.1544 -0.2816 -0.6492
   30SAPC  H12X 4068   2.000   2.262   8.035 -0.3701  0.7912 -0.4248
   30SAPC  H12Y 4069   2.067   2.413   7.967 -2.1024 -1.1349 -1.3536
   30SAPC  C313 4070   2.179   2.330   8.138  0.0728 -0.2119 -0.1518
   30SAPC  H13X 4071   2.268   2.390   8.107 -0.5606  1.2219  0.7160
   30SAPC  H13Y 4072   2.220   2.233   8.171  3.6922  0.7805 -1.2316
   30SAPC  C314 4073   2.113   2.414   8.243  0.3874 -0.7025  0.2512
   30SAPC  H14X 4074   2.146   2.382   8.343 -2.1512 -0.6336  1.1987
   30SAPC  H14Y 4075   2.004   2.390   8.242  0.1109  0.4633 -0.3552
   30SAPC  C315 4076   2.132   2.562   8.231  0.3175 -0.0684 -0.5253
   30SAPC  H15X 4077   2.082   2.596   8.137  0.2356  0.6038 -0.2380
   30SAPC  H15Y 4078   2.242   2.570   8.214  0.5779 -1.9512 -0.0000
   30SAPC  C316 4079   2.073   2.636   8.355 -0.1760  0.4414 -0.6207
   30SAPC  H16X 4080   2.121   2.613   8.453 -3.1904  2.4354  1.5409
   30SAPC  H16Y 4081   1.968   2.601   8.368  0.3870 -0.6753  1.3890
   30SAPC  C317 4082   2.079   2.788   8.325  1.0446  0.0242  0.2576
   30SAPC  H17X 4083   2.039   2.809   8.224 -1.6930 -0.2465  1.2003
   30SAPC  H17Y 4084   2.182   2.829   8.333  0.6142  0.7356  2.7427
   30SAPC  C318 4085   1.991   2.880   8.415 -0.5468 -0.4729 -0.6305
   30SAPC  H18X 4086   1.883   2.867   8.394 -0.9476 -1.0952  1.6163
   30SAPC  H18Y 4087   2.019   2.987   8.401  0.3653 -0.4937  0.8891
   30SAPC  H18Z 4088   1.991   2.848   8.521  1.9689 -2.3739 -1.1067
   31SAPC     N 4089   2.000   2.476   6.282  0.0291 -0.9338 -0.2182
   31SAPC   C12 4090   2.098   2.535   6.381  0.9733  0.1985  1.0577
   31SAPC  H12A 4091   2.187   2.474   6.375  2.2162  2.0612 -1.1763
   31SAPC  H12B 4092   2.052   2.527   6.478 -1.1008 -1.7359  0.0208
   31SAPC   C13 4093   1.875   2.559   6.279  0.3942  0.3589 -0.6199
   31SAPC  H13A 4094   1.804   2.511   6.212  0.9905  0.5100 -1.3764
   31SAPC  H13B 4095   1.831   2.567   6.377  0.6370  0.1579 -0.4955
   31SAPC  H13C 4096   1.900   2.655   6.236 -0.9337  0.4742 -1.1847
   31SAPC   C14 4097   2.044   2.469   6.139 -0.1017  0.2728 -0.0026
   31SAPC  H14A 4098   1.971   2.442   6.064  0.6675  1.4684 -1.2495
   31SAPC  H14B 4099   2.097   2.560   6.116 -0.7912  0.3673 -1.3331
   31SAPC  H14C 4100   2.116   2.390   6.129 -0.3968 -0.2266  1.5587
   31SAPC   C15 4101   1.957   2.343   6.331 -0.1407  0.8855 -0.4093
   31SAPC  H15A 4102   1.916   2.344   6.431 -0.1345 -0.1085 -0.3867
   31SAPC  H15B 4103   1.869   2.316   6.274 -0.0898 -1.2302  0.4320
   31SAPC  H15C 4104   2.028   2.265   6.311  1.0495  2.3423 -2.1347
   31SAPC   C11 4105   2.134   2.677   6.362  0.0726  0.3512  0.4251
   31SAPC  H11A 4106   2.192   2.706   6.453  2.2001 -0.7391 -0.5190
   31SAPC  H11B 4107   2.050   2.751   6.364 -0.2124  0.0204  0.9508
   31SAPC     P 4108   2.372   2.695   6.238  0.3088  0.3419  0.0432
   31SAPC   O13 4109   2.420   2.647   6.104  0.4507 -0.2906  0.5520
   31SAPC   O14 4110   2.425   2.819   6.297  0.1752 -0.8759  0.0828
   31SAPC   O12 4111   2.218   2.702   6.243  0.1633 -0.0314  0.2323
   31SAPC   O11 4112   2.392   2.575   6.338 -0.4813  0.2051 -0.7805
   31SAPC    C1 4113   2.517   2.525   6.382 -0.0580 -0.3695 -0.3143
   31SAPC    HA 4114   2.497   2.417   6.399 -3.6298 -0.1667 -2.3093
   31SAPC    HB 4115   2.599   2.540   6.308  0.3748  0.8347  0.3795
   31SAPC    C2 4116   2.565   2.592   6.512 -0.1723  0.4420  0.4764
   31SAPC    HS 4117   2.577   2.701   6.499 -2.0105  0.7761  1.3066
   31SAPC   O21 4118   2.691   2.532   6.550  0.1311  0.3880 -0.7401
   31SAPC   C21 4119   2.775   2.617   6.616 -0.2828  0.3912 -0.1144
   31SAPC   O22 4120   2.742   2.738   6.634 -0.1091  0.1108 -0.3941
   31SAPC   C22 4121   2.904   2.555   6.662 -0.7720 -0.3217  0.4798
   31SAPC   H2R 4122   2.897   2.446   6.643  0.2830 -0.1224 -1.2146
   31SAPC   H2S 4123   2.986   2.584   6.593 -0.9747  1.1756  0.8299
   31SAPC    C3 4124   2.462   2.587   6.625  0.4500  0.4338  0.1691
   31SAPC    HX 4125   2.437   2.478   6.626  1.1552  0.2629  1.0710
   31SAPC    HY 4126   2.371   2.642   6.593  0.5324 -0.5931 -1.9667
   31SAPC   O31 4127   2.504   2.639   6.754  0.2889 -0.5828 -0.4119
   31SAPC   C31 4128   2.424   2.592   6.861  0.1677 -0.1613 -0.7508
   31SAPC   O32 4129   2.340   2.507   6.850  0.0242  0.1047 -1.0282
   31SAPC   C32 4130   2.462   2.661   6.991 -0.1985  0.0247  0.5445
   31SAPC   H2X 4131   2.402   2.755   6.995 -2.6105 -1.4891  1.7914
   31SAPC   H2Y 4132   2.570   2.689   6.989 -0.6849  2.4588  2.4294
   31SAPC   C23 4133   2.956   2.614   6.800 -0.2141  0.2515  1.0270
   31SAPC   H3R 4134   2.976   2.722   6.789  0.7119  0.3559  3.2252
   31SAPC   H3S 4135   3.052   2.561   6.815 -0.3116  0.2095  1.5367
   31SAPC   C24 4136   2.868   2.591   6.924  0.2062  0.6285  0.0339
   31SAPC   H4R 4137   2.772   2.646   6.911 -0.1729  0.4221  1.7227
   31SAPC   H4S 4138   2.917   2.646   7.007  3.4781  0.4052 -1.5956
   31SAPC   C25 4139   2.851   2.448   6.969  0.0307  0.0580  0.1635
   31SAPC   H5R 4140   2.808   2.385   6.889 -0.5231  1.1961 -0.4606
   31SAPC   C26 4141   2.860   2.392   7.091  0.0578  0.2595  0.2668
   31SAPC   H6R 4142   2.814   2.292   7.098 -1.0949  0.6791 -0.9400
   31SAPC   C27 4143   2.900   2.445   7.220 -0.4155  0.2134  0.3164
   31SAPC   H7R 4144   2.951   2.541   7.196  0.9440 -0.6497 -0.3116
   31SAPC   H7S 4145   2.975   2.374   7.261  1.1973  0.7629 -1.5520
   31SAPC   C28 4146   2.773   2.466   7.308 -0.0912  0.6523  0.0694
   31SAPC   H8R 4147   2.686   2.497   7.249  1.3990  2.9384 -1.0649
   31SAPC   C29 4148   2.767   2.433   7.441  0.6279  0.0512  0.9994
   31SAPC   H9R 4149   2.667   2.455   7.484 -0.1651  1.9865 -1.5898
   31SAPC  C210 4150   2.874   2.375   7.528 -0.6686  0.2208  0.2211
   31SAPC  H10R 4151   2.957   2.338   7.465 -0.8673 -1.2921  0.7842
   31SAPC  H10S 4152   2.856   2.278   7.580 -2.3095 -0.4517 -1.4796
   31SAPC  C211 4153   2.931   2.479   7.619  0.1521 -0.2658  0.5718
   31SAPC  H11R 4154   2.980   2.555   7.556 -0.8506 -1.4908 -1.8573
   31SAPC  C212 4155   2.926   2.492   7.750  0.2673 -0.3472  0.7316
   31SAPC  H12R 4156   2.976   2.578   7.797  1.4802 -0.0338 -1.0212
   31SAPC  C213 4157   2.864   2.407   7.855 -0.3430 -0.1401 -0.3148
   31SAPC  H13R 4158   2.784   2.340   7.817 -0.4567 -0.0733 -0.1947
   31SAPC  H13S 4159   2.804   2.466   7.928 -2.2334 -2.0076 -0.2416
   31SAPC  C214 4160   2.966   2.323   7.933  0.7221 -0.4692  0.3271
   31SAPC  H14R 4161   2.987   2.219   7.905 -0.0387 -0.5256 -0.0759
   31SAPC  C215 4162   3.023   2.362   8.046  0.7941 -0.6800 -0.0961
   31SAPC  H15R 4163   3.095   2.295   8.095  0.4030  1.4170  3.6895
   31SAPC  C216 4164   3.005   2.492   8.120  0.0017  0.3865  0.5089
   31SAPC  H16R 4165   2.938   2.464   8.204  0.0134 -1.1123  0.0479
   31SAPC  H16S 4166   2.952   2.571   8.063  0.2098  1.1570  1.3569
   31SAPC  C217 4167   3.147   2.552   8.154 -0.9356 -0.4127 -0.3666
   31SAPC  H17R 4168   3.212   2.480   8.208  0.3870  0.0122 -1.3178
   31SAPC  H17S 4169   3.132   2.636   8.224  1.3968  2.2054 -2.6980
   31SAPC  C218 4170   3.227   2.592   8.029  0.1133 -0.2849  0.2523
   31SAPC  H18R 4171   3.157   2.614   7.946 -4.1574 -2.4154  2.9194
   31SAPC  H18S 4172   3.284   2.502   7.998  2.4675  1.2552 -0.1316
   31SAPC  C219 4173   3.324   2.711   8.055 -0.6019 -0.8019  0.1536
   31SAPC  H19R 4174   3.371   2.693   8.154  2.2241  0.0397 -0.9268
   31SAPC  H19S 4175   3.269   2.807   8.065 -0.8502 -1.1102  2.2135
   31SAPC  C220 4176   3.446   2.724   7.956 -0.0120  0.0820  0.7275
   31SAPC  H20R 4177   3.498   2.817   7.988 -0.4296 -0.6389  3.7252
   31SAPC  H20S 4178   3.411   2.740   7.852 -0.8711  3.0582  1.3956
   31SAPC  H20T 4179   3.519   2.642   7.940  0.5703  1.1584 -3.1178
   31SAPC   C33 4180   2.430   2.583   7.122  0.1450 -0.9264  0.2752
   31SAPC   H3X 4181   2.508   2.504   7.125  1.8663  0.6646 -0.7221
   31SAPC   H3Y 4182   2.329   2.537   7.116 -1.2918  1.8232  1.3857
   31SAPC   C34 4183   2.442   2.662   7.253 -0.2103  0.4318 -0.1232
   31SAPC   H4X 4184   2.393   2.762   7.245 -0.0460  0.5405  0.2263
   31SAPC   H4Y 4185   2.547   2.682   7.281 -0.8324 -1.2363  4.1021
   31SAPC   C35 4186   2.393   2.585   7.380  0.0592  0.6027 -0.2915
   31SAPC   H5X 4187   2.437   2.484   7.392  1.7493  1.4578  1.0744
   31SAPC   H5Y 4188   2.290   2.549   7.359  0.8841 -2.8507  0.8520
   31SAPC   C36 4189   2.412   2.653   7.515  0.2475 -0.0704  0.3051
   31SAPC   H6X 4190   2.336   2.734   7.525  0.7150  0.2603  1.2428
   31SAPC   H6Y 4191   2.515   2.694   7.526 -0.0121  1.9083 -2.9635
   31SAPC   C37 4192   2.414   2.554   7.637 -0.0211  0.0210 -0.1282
   31SAPC   H7X 4193   2.510   2.503   7.614  1.3690  1.9646  0.9891
   31SAPC   H7Y 4194   2.335   2.477   7.631  0.9282 -0.9540 -0.4078
   31SAPC   C38 4195   2.416   2.626   7.775  0.4199  0.5219 -0.3728
   31SAPC   H8X 4196   2.495   2.704   7.775 -0.6521  1.6986  1.3167
   31SAPC   H8Y 4197   2.439   2.552   7.854 -1.0766 -0.1197 -0.5002
   31SAPC   C39 4198   2.299   2.710   7.806  0.0539  0.3773 -0.5148
   31SAPC   H9X 4199   2.208   2.646   7.809  0.7243 -0.5622  0.3199
   31SAPC   H9Y 4200   2.289   2.796   7.735  0.4703  0.2861 -0.6868
   31SAPC  C310 4201   2.307   2.762   7.950  0.3714  0.0929  0.5228
   31SAPC  H10X 4202   2.410   2.802   7.956  0.5049 -0.1163 -0.2642
   31SAPC  H10Y 4203   2.289   2.671   8.011 -0.8991 -0.5172 -0.6886
   31SAPC  C311 4204   2.198   2.863   7.976 -0.1283  0.5155 -0.3958
   31SAPC  H11X 4205   2.180   2.881   8.084  0.6555  1.9071 -0.4653
   31SAPC  H11Y 4206   2.103   2.825   7.935 -0.1163  0.1859 -0.1241
   31SAPC  C312 4207   2.218   3.003   7.914  0.1087  0.5688  0.3144
   31SAPC  H12X 4208   2.251   3.001   7.808 -1.5478 -0.4538 -0.2349
   31SAPC  H12Y 4209   2.295   3.055   7.974  0.4569 -0.0319  0.3962
   31SAPC  C313 4210   2.090   3.091   7.928  0.2724  0.4267  0.5077
   31SAPC  H13X 4211   2.012   3.056   7.857  0.7108  0.1410  0.1531
   31SAPC  H13Y 4212   2.124   3.193   7.900  1.2261 -0.2950 -1.1193
   31SAPC  C314 4213   2.038   3.093   8.080 -0.8131  0.3521  0.5821
   31SAPC  H14X 4214   2.125   3.115   8.146  0.0620 -1.7816  0.2177
   31SAPC  H14Y 4215   1.999   2.994   8.112 -0.9183  0.2785  0.2309
   31SAPC  C315 4216   1.932   3.206   8.092 -0.3085 -0.2025  0.4743
   31SAPC  H15X 4217   1.858   3.177   8.015  0.0654 -2.7351  1.0009
   31SAPC  H15Y 4218   1.971   3.310   8.080 -1.6012  0.2373 -0.0218
   31SAPC  C316 4219   1.851   3.201   8.228  0.6428 -0.2171  0.6138
   31SAPC  H16X 4220   1.920   3.215   8.314 -0.4893  0.8717  1.3766
   31SAPC  H16Y 4221   1.809   3.099   8.236 -1.0223  0.1640 -2.1729
   31SAPC  C317 4222   1.763   3.323   8.230  0.2960  0.9266 -0.2235
   31SAPC  H17X 4223   1.692   3.314   8.144  0.4079 -0.0337 -0.2264
   31SAPC  H17Y 4224   1.811   3.421   8.209  0.5284  0.9946  0.6039
   31SAPC  C318 4225   1.683   3.330   8.357 -0.5088 -0.3075 -0.0577
   31SAPC  H18X 4226   1.755   3.353   8.439  0.1961  1.6976 -1.1818
   31SAPC  H18Y 4227   1.621   3.244   8.391 -0.5947  0.6365  2.4532
   31SAPC  H18Z 4228   1.608   3.412   8.344 -0.6697  0.0041  2.3694
   32SAPC     N 4229   4.596   3.164   6.096  0.1136 -0.3005  0.9917
   32SAPC   C12 4230   4.571   3.295   6.160  0.1488  0.6715  0.0700
   32SAPC  H12A 4231   4.667   3.344   6.158  1.5567 -1.9250 -0.1947
   32SAPC  H12B 4232   4.548   3.283   6.265  2.1657  0.2304  0.4888
   32SAPC   C13 4233   4.465   3.088   6.081 -0.5044 -0.1680  0.4098
   32SAPC  H13A 4234   4.466   3.001   6.018  0.1327 -0.5253  0.9030
   32SAPC  H13B 4235   4.443   3.055   6.181 -1.3995 -2.2810 -0.4346
   32SAPC  H13C 4236   4.388   3.160   6.058  0.6383  0.5214 -1.5384
   32SAPC   C14 4237   4.666   3.170   5.962 -0.4770 -0.6567 -0.1686
   32SAPC  H14A 4238   4.708   3.074   5.934  2.0181  0.0127  0.9611
   32SAPC  H14B 4239   4.611   3.207   5.876  1.4913  1.4501 -0.6392
   32SAPC  H14C 4240   4.759   3.225   5.971 -0.7163 -0.4261  0.9302
   32SAPC   C15 4241   4.686   3.086   6.180 -0.1720  0.3053 -0.2638
   32SAPC  H15A 4242   4.780   3.138   6.181 -0.2192  0.4360 -1.5246
   32SAPC  H15B 4243   4.644   3.067   6.278 -0.9812 -0.0053 -0.6633
   32SAPC  H15C 4244   4.683   2.988   6.134  0.4599  0.0494  0.2143
   32SAPC   C11 4245   4.454   3.385   6.121  0.1837 -0.4718 -1.0310
   32SAPC  H11A 4246   4.451   3.386   6.010  0.5355 -1.3437 -1.0591
   32SAPC  H11B 4247   4.479   3.484   6.163  0.7942 -0.9261 -0.3099
   32SAPC     P 4248   4.270   3.333   6.312 -0.3285  0.3213 -0.1042
   32SAPC   O13 4249   4.236   3.475   6.350  0.5673 -0.3358  0.5105
   32SAPC   O14 4250   4.163   3.238   6.320  0.4523  0.3242 -0.3918
   32SAPC   O12 4251   4.324   3.338   6.169 -0.0831 -0.1366 -0.2364
   32SAPC   O11 4252   4.391   3.281   6.390 -1.0297 -0.1184  0.2435
   32SAPC    C1 4253   4.400   3.162   6.472  0.2212  0.3529 -0.5790
   32SAPC    HA 4254   4.378   3.070   6.414 -0.7974  0.5132 -0.4603
   32SAPC    HB 4255   4.504   3.150   6.511 -0.5908 -3.0571  0.9877
   32SAPC    C2 4256   4.310   3.164   6.601 -0.0824 -0.7223 -0.0668
   32SAPC    HS 4257   4.208   3.197   6.572  0.2295  0.9764  0.6496
   32SAPC   O21 4258   4.372   3.264   6.687  0.1707  0.2365  0.0582
   32SAPC   C21 4259   4.289   3.333   6.769 -0.3409  0.1412  0.9235
   32SAPC   O22 4260   4.171   3.310   6.769  0.2524  0.3344 -0.0682
   32SAPC   C22 4261   4.364   3.442   6.840 -1.0768 -0.7264  0.0206
   32SAPC   H2R 4262   4.447   3.395   6.896 -0.6049  0.6864  0.5638
   32SAPC   H2S 4263   4.393   3.517   6.763 -2.2755  0.5626  0.7707
   32SAPC    C3 4264   4.306   3.021   6.675 -0.1507 -0.0063  0.1195
   32SAPC    HX 4265   4.416   3.012   6.683 -0.2059 -1.4992 -0.5350
   32SAPC    HY 4266   4.280   2.931   6.615 -1.0159 -0.5855  1.2901
   32SAPC   O31 4267   4.238   3.020   6.808 -0.0904  0.6032 -0.4790
   32SAPC   C31 4268   4.108   2.984   6.800 -0.4510  0.7582  0.0957
   32SAPC   O32 4269   4.053   2.940   6.701 -0.6814 -0.3024  0.0348
   32SAPC   C32 4270   4.051   3.000   6.934 -0.3195 -0.0891  0.1594
   32SAPC   H2X 4271   3.957   3.059   6.925 -0.5282 -0.5870 -1.1429
   32SAPC   H2Y 4272   4.122   3.058   6.998  1.1289 -0.6327 -0.9142
   32SAPC   C23 4273   4.277   3.518   6.952 -0.1774  0.3996  0.2807
   32SAPC   H3R 4274   4.171   3.529   6.921 -0.5272 -1.3647  0.7227
   32SAPC   H3S 4275   4.315   3.622   6.954 -0.7274  0.6147 -0.1502
   32SAPC   C24 4276   4.289   3.459   7.090  0.6473 -0.4870 -0.3786
   32SAPC   H4R 4277   4.258   3.537   7.163 -0.2606 -1.1540 -0.0412
   32SAPC   H4S 4278   4.397   3.439   7.103  1.1451  0.1245 -2.9748
   32SAPC   C25 4279   4.214   3.326   7.102 -0.4134 -0.1381 -0.5619
   32SAPC   H5R 4280   4.222   3.254   7.020 -1.3924 -2.6985  1.4607
   32SAPC   C26 4281   4.163   3.279   7.219  0.3071  0.0766 -0.3980
   32SAPC   H6R 4282   4.097   3.190   7.217  0.9679 -0.4250 -0.0594
   32SAPC   C27 4283   4.153   3.357   7.346 -0.4758 -0.7368 -0.4675
   32SAPC   H7R 4284   4.094   3.450   7.329 -0.3326 -0.7626 -1.1527
   32SAPC   H7S 4285   4.258   3.390   7.363 -0.3364 -2.1602  1.7447
   32SAPC   C28 4286   4.109   3.276   7.463 -0.2173 -0.4751  0.0385
   32SAPC   H8R 4287   4.055   3.184   7.437 -1.1327  0.0889 -0.1268
   32SAPC   C29 4288   4.152   3.299   7.592 -0.2292 -0.6571  0.0652
   32SAPC   H9R 4289   4.117   3.228   7.668 -0.3265 -0.7269 -0.0446
   32SAPC  C210 4290   4.240   3.408   7.650  0.4532 -0.0039  0.6584
   32SAPC  H10R 4291   4.346   3.399   7.618  1.1661  0.1329  2.8234
   32SAPC  H10S 4292   4.250   3.383   7.757 -0.4787  2.3974  1.3843
   32SAPC  C211 4293   4.191   3.554   7.647 -0.2053  0.6129 -0.3232
   32SAPC  H11R 4294   4.233   3.619   7.568 -0.8131  1.8073  0.2975
   32SAPC  C212 4295   4.116   3.615   7.739  1.1130  0.0101 -0.7220
   32SAPC  H12R 4296   4.074   3.714   7.715 -2.0286 -0.9199  0.3448
   32SAPC  C213 4297   4.060   3.550   7.873  0.2630 -0.9893  0.4948
   32SAPC  H13R 4298   4.113   3.453   7.884  1.7975 -0.2319  0.0502
   32SAPC  H13S 4299   3.956   3.521   7.846 -0.9880  2.5413  0.9672
   32SAPC  C214 4300   4.037   3.640   7.998 -0.6542  0.6554  0.5201
   32SAPC  H14R 4301   3.934   3.663   8.027 -0.3895  2.4366  0.1646
   32SAPC  C215 4302   4.143   3.694   8.073 -0.1596 -0.7294  0.1919
   32SAPC  H15R 4303   4.116   3.747   8.166 -4.4972 -2.3799  0.1090
   32SAPC  C216 4304   4.292   3.691   8.046  0.0232  0.6396 -0.2734
   32SAPC  H16R 4305   4.322   3.798   8.040 -1.7959  1.1453 -1.0687
   32SAPC  H16S 4306   4.321   3.637   7.953 -0.4381  0.0811 -0.0977
   32SAPC  C217 4307   4.365   3.633   8.165 -0.2388  0.4279 -0.4638
   32SAPC  H17R 4308   4.415   3.713   8.224  0.8091 -1.3317  1.1523
   32SAPC  H17S 4309   4.436   3.555   8.130 -1.8549 -0.9948 -0.7474
   32SAPC  C218 4310   4.286   3.545   8.264  0.4613  0.2670 -0.6214
   32SAPC  H18R 4311   4.229   3.460   8.222 -0.2213  0.2924  0.2394
   32SAPC  H18S 4312   4.217   3.610   8.322 -0.9817 -0.4439 -1.4840
   32SAPC  C219 4313   4.378   3.479   8.366 -0.5827 -0.5216  0.3235
   32SAPC  H19R 4314   4.442   3.564   8.398  1.8204 -2.6277  1.4307
   32SAPC  H19S 4315   4.438   3.412   8.301  0.1579  0.4916 -0.0739
   32SAPC  C220 4316   4.320   3.398   8.484 -0.4474  0.2863  0.6732
   32SAPC  H20R 4317   4.248   3.328   8.436 -0.2851  1.2127 -0.9937
   32SAPC  H20S 4318   4.270   3.462   8.559 -0.3804 -0.3545  1.2735
   32SAPC  H20T 4319   4.403   3.350   8.540  1.8482  1.8793 -1.1488
   32SAPC   C33 4320   4.019   2.863   7.008  0.0572 -1.0354 -0.1308
   32SAPC   H3X 4321   4.088   2.779   6.984  1.3739 -0.1290  0.3072
   32SAPC   H3Y 4322   3.917   2.836   6.974  0.3347 -0.1900 -1.7313
   32SAPC   C34 4323   4.022   2.882   7.163  0.2709 -0.9126  0.6020
   32SAPC   H4X 4324   4.121   2.922   7.195  0.9183 -1.8402 -0.1693
   32SAPC   H4Y 4325   4.030   2.782   7.212  0.5116 -1.2226 -0.0639
   32SAPC   C35 4326   3.897   2.967   7.208 -0.1588 -0.1827  0.0499
   32SAPC   H5X 4327   3.809   2.946   7.143  1.4115 -0.3844 -2.1302
   32SAPC   H5Y 4328   3.925   3.071   7.179  0.7387 -1.3392 -3.6880
   32SAPC   C36 4329   3.857   2.965   7.358  0.3850  0.0406  0.1285
   32SAPC   H6X 4330   3.793   3.054   7.379  0.0206 -0.5310  1.5107
   32SAPC   H6Y 4331   3.944   2.967   7.426  1.4538  0.8296 -1.1914
   32SAPC   C37 4332   3.770   2.839   7.382 -0.0626  0.7772 -0.1975
   32SAPC   H7X 4333   3.810   2.742   7.346 -1.9471  0.5602 -1.9123
   32SAPC   H7Y 4334   3.684   2.838   7.311 -0.2584  2.5165 -0.0217
   32SAPC   C38 4335   3.725   2.817   7.525  0.6085 -0.4003  0.3613
   32SAPC   H8X 4336   3.643   2.743   7.531  0.7215 -0.3822  3.0972
   32SAPC   H8Y 4337   3.681   2.912   7.561  0.1957 -0.9530  1.3437
   32SAPC   C39 4338   3.829   2.782   7.626  0.1072  0.6902  1.1220
   32SAPC   H9X 4339   3.897   2.870   7.634 -0.8127  1.6998 -1.2184
   32SAPC   H9Y 4340   3.890   2.700   7.583 -0.6392 -0.5258  2.2899
   32SAPC  C310 4341   3.777   2.741   7.763  0.3111  0.4670  0.2574
   32SAPC  H10X 4342   3.684   2.686   7.739  0.3594 -0.1800  1.4612
   32SAPC  H10Y 4343   3.755   2.833   7.822  0.4072 -0.4213  1.7436
   32SAPC  C311 4344   3.875   2.655   7.860  0.1970  0.3353 -0.7520
   32SAPC  H11X 4345   3.872   2.551   7.821  1.1582 -0.2103  0.5578
   32SAPC  H11Y 4346   3.821   2.639   7.956  1.6464 -1.3066 -0.1635
   32SAPC  C312 4347   4.017   2.709   7.876  0.4224  0.3366  0.1291
   32SAPC  H12X 4348   4.016   2.793   7.949 -0.5530 -0.0794  0.6099
   32SAPC  H12Y 4349   4.072   2.739   7.784 -0.0540  0.7716 -0.0189
   32SAPC  C313 4350   4.105   2.600   7.947  0.0671  0.4324  0.6151
   32SAPC  H13X 4351   4.214   2.618   7.934 -0.1589  0.6239 -1.5124
   32SAPC  H13Y 4352   4.108   2.514   7.876  3.4600  1.0000 -0.1533
   32SAPC  C314 4353   4.058   2.579   8.084  0.5085 -0.5201  0.4400
   32SAPC  H14X 4354   3.967   2.515   8.078  0.2527 -0.0636 -0.6709
   32SAPC  H14Y 4355   4.019   2.672   8.130  1.5641 -0.0507  0.4074
   32SAPC  C315 4356   4.155   2.524   8.191 -0.2306 -0.9871  0.7490
   32SAPC  H15X 4357   4.249   2.583   8.186 -1.8484  1.6847 -0.8369
   32SAPC  H15Y 4358   4.187   2.421   8.162 -1.0854 -1.3763  1.1563
   32SAPC  C316 4359   4.092   2.530   8.327 -0.4291 -0.4840  0.0822
   32SAPC  H16X 4360   4.007   2.459   8.334  0.9410 -2.1465  0.6793
   32SAPC  H16Y 4361   4.050   2.631   8.342 -0.2187 -0.2508 -0.8486
   32SAPC  C317 4362   4.174   2.488   8.451 -0.6131  0.1040  0.2207
   32SAPC  H17X 4363   4.274   2.536   8.440 -1.1839  0.8057 -2.7478
   32SAPC  H17Y 4364   4.200   2.381   8.469  0.5485  0.8164  3.7488
   32SAPC  C318 4365   4.109   2.526   8.582 -0.7858 -0.0499  0.0040
   32SAPC  H18X 4366   4.017   2.467   8.603 -0.6723 -0.8829 -1.6336
   32SAPC  H18Y 4367   4.093   2.635   8.592  3.3833  0.5279  2.9795
   32SAPC  H18Z 4368   4.177   2.500   8.665 -0.2894  1.4547  0.0935
   33POPC     N 4369   2.952   3.537  10.467  0.1806  0.2615 -0.3277
   33POPC   C12 4370   3.006   3.407  10.409  0.0796 -0.3474 -0.0978
   33POPC  H12A 4371   2.985   3.336  10.487  0.4415  0.5003  0.7882
   33POPC  H12B 4372   3.113   3.411  10.403  0.0018  1.6112 -1.3547
   33POPC   C13 4373   3.053   3.596  10.571 -0.5763  0.6232 -0.2438
   33POPC  H13A 4374   2.996   3.680  10.609 -1.8426 -0.3991  0.2062
   33POPC  H13B 4375   3.076   3.523  10.646 -2.1812  1.4971  1.1727
   33POPC  H13C 4376   3.137   3.635  10.515  1.5201  1.0286  2.9741
   33POPC   C14 4377   2.921   3.640  10.365  0.0337  0.4514 -0.6272
   33POPC  H14A 4378   2.906   3.738  10.408 -0.2465  1.3123 -2.5649
   33POPC  H14B 4379   3.014   3.657  10.312  0.2004  1.5950 -0.0057
   33POPC  H14C 4380   2.839   3.610  10.303 -0.0514  2.2589 -1.4617
   33POPC   C15 4381   2.819   3.509  10.530 -0.3472 -0.6123 -0.4217
   33POPC  H15A 4382   2.770   3.592  10.579 -0.4682 -1.0943  0.2801
   33POPC  H15B 4383   2.829   3.438  10.610  0.3289  0.0909  0.1409
   33POPC  H15C 4384   2.753   3.467  10.456 -1.1233  1.6210 -1.0993
   33POPC   C11 4385   2.959   3.359  10.271 -0.2735  0.0571  0.1707
   33POPC  H11A 4386   3.019   3.266  10.265  1.6762  1.2577 -0.0213
   33POPC  H11B 4387   2.993   3.423  10.187  1.3658 -0.3494  0.4954
   33POPC     P 4388   2.765   3.201  10.329 -0.1686  0.3261  0.4172
   33POPC   O13 4389   2.629   3.178  10.278  0.0618  0.4866 -0.2094
   33POPC   O14 4390   2.781   3.205  10.474  1.0765 -0.2621  0.3608
   33POPC   O12 4391   2.823   3.333  10.267 -0.0809  0.1100 -0.9353
   33POPC   O11 4392   2.850   3.085  10.280 -0.2407 -0.3292  0.1179
   33POPC    C1 4393   2.805   2.949  10.288  0.0217 -0.5376 -0.0053
   33POPC    HA 4394   2.788   2.919  10.393  5.2015 -2.6447  0.5569
   33POPC    HB 4395   2.713   2.945  10.226  0.6745  0.0554 -1.0498
   33POPC    C2 4396   2.908   2.843  10.233 -0.0670  0.7222 -0.0148
   33POPC    HS 4397   2.992   2.844  10.306  0.3845  0.5538 -0.5322
   33POPC   O21 4398   2.949   2.892  10.105  0.6179 -0.3039 -0.1848
   33POPC   C21 4399   3.066   2.854  10.060 -0.1467 -0.3814 -0.1644
   33POPC   O22 4400   3.138   2.775  10.120 -0.3062 -0.5133  0.4269
   33POPC   C22 4401   3.083   2.909   9.921 -0.3032 -0.6916 -0.1313
   33POPC   H2R 4402   3.133   3.007   9.938  1.5118 -1.2978 -1.6016
   33POPC   H2S 4403   2.983   2.915   9.873  0.4033  1.4879 -1.4899
   33POPC    C3 4404   2.840   2.703  10.221  0.0536  0.3749 -0.4475
   33POPC    HX 4405   2.820   2.659  10.322 -1.7149  0.8159 -0.5754
   33POPC    HY 4406   2.909   2.636  10.164  1.6550  1.3982  0.1999
   33POPC   O31 4407   2.712   2.716  10.150  0.1736  0.5313 -0.3318
   33POPC   C31 4408   2.716   2.716  10.021  0.3809 -0.1305 -0.1985
   33POPC   O32 4409   2.806   2.680   9.953  0.3305 -0.6167  0.2545
   33POPC   C32 4410   2.587   2.764   9.973  0.0469 -0.7947 -0.1386
   33POPC   H2X 4411   2.596   2.868  10.012 -2.3404 -1.5475  2.8501
   33POPC   H2Y 4412   2.496   2.720  10.020 -0.0875 -0.4062 -0.0274
   33POPC   C23 4413   3.174   2.834   9.827 -0.2938 -0.6231  0.1038
   33POPC   H3R 4414   3.148   2.726   9.818 -2.4116 -0.0927 -0.6657
   33POPC   H3S 4415   3.277   2.843   9.867  0.2828  0.4248 -1.5498
   33POPC   C24 4416   3.185   2.898   9.687 -0.4575 -0.6878  0.6292
   33POPC   H4R 4417   3.237   2.995   9.701 -2.5356  1.2209 -3.3564
   33POPC   H4S 4418   3.087   2.924   9.643  0.2459  0.3027 -0.4101
   33POPC   C25 4419   3.268   2.821   9.580  0.1664  0.0015  0.3309
   33POPC   H5R 4420   3.233   2.717   9.568  1.5288 -0.9746  3.5694
   33POPC   H5S 4421   3.368   2.818   9.629 -0.1623 -1.6196  0.9411
   33POPC   C26 4422   3.273   2.898   9.442 -0.6134  0.2024  0.1324
   33POPC   H6R 4423   3.382   2.903   9.421 -1.2245 -2.0134 -4.9358
   33POPC   H6S 4424   3.225   2.996   9.459 -2.3001 -0.4968 -0.3577
   33POPC   C27 4425   3.204   2.817   9.334 -0.0163  0.0165  0.3309
   33POPC   H7R 4426   3.098   2.848   9.343  0.0050  0.6036 -1.1745
   33POPC   H7S 4427   3.224   2.710   9.354  1.1510  0.4068  1.3917
   33POPC   C28 4428   3.254   2.853   9.196 -0.1911 -0.5421  0.2545
   33POPC   H8R 4429   3.364   2.868   9.188  0.1465 -2.6481  0.5185
   33POPC   H8S 4430   3.201   2.948   9.171 -1.8842 -1.5244 -0.0207
   33POPC   C29 4431   3.207   2.753   9.089 -0.9265 -0.1867  0.1472
   33POPC   H91 4432   3.286   2.679   9.068 -0.5623 -0.1578  1.3726
   33POPC  C210 4433   3.091   2.753   9.014  0.4019  0.6626 -0.0289
   33POPC  H101 4434   3.076   2.667   8.947  0.8134  0.2150  0.4298
   33POPC  C211 4435   2.967   2.844   9.030 -0.8462 -0.3217 -0.6790
   33POPC  H11R 4436   2.966   2.926   8.956 -0.1887 -0.8057 -1.2271
   33POPC  H11S 4437   2.973   2.888   9.132 -0.9928 -1.7232 -0.0324
   33POPC  C212 4438   2.847   2.756   9.003  0.1045 -0.1455  0.0319
   33POPC  H12R 4439   2.860   2.654   9.045  1.3691  0.2962  0.7540
   33POPC  H12S 4440   2.837   2.756   8.892  0.2907 -1.0565  0.0084
   33POPC  C213 4441   2.710   2.804   9.048  0.3210 -0.1980  0.1211
   33POPC  H13R 4442   2.640   2.776   8.966 -0.2238  0.6629  0.2879
   33POPC  H13S 4443   2.705   2.915   9.046  0.8982 -0.1766 -0.5761
   33POPC  C214 4444   2.654   2.738   9.173 -0.2317 -0.0725 -0.5204
   33POPC  H14R 4445   2.660   2.628   9.157  2.5241 -1.0561  5.1013
   33POPC  H14S 4446   2.548   2.756   9.201 -0.0462 -1.5197  1.2499
   33POPC  C215 4447   2.736   2.756   9.298 -0.2128  0.2646 -0.1182
   33POPC  H15R 4448   2.727   2.860   9.336 -0.4117  0.2309 -0.0713
   33POPC  H15S 4449   2.839   2.748   9.256 -0.4946 -0.0481 -0.7650
   33POPC  C216 4450   2.722   2.644   9.401  0.1149 -0.4181 -0.7799
   33POPC  H16R 4451   2.745   2.545   9.355  0.9960 -0.5086 -0.1591
   33POPC  H16S 4452   2.614   2.634   9.427 -0.8717 -0.0938 -4.1882
   33POPC  C217 4453   2.813   2.660   9.527 -0.3742 -0.0828  0.5077
   33POPC  H17R 4454   2.790   2.744   9.595 -0.7292 -0.6595  1.1157
   33POPC  H17S 4455   2.916   2.687   9.497 -0.4506  0.1975  0.5024
   33POPC  C218 4456   2.799   2.530   9.604  0.3151 -0.5512  0.9582
   33POPC  H18R 4457   2.871   2.544   9.687 -0.2516 -1.4533  1.6174
   33POPC  H18S 4458   2.821   2.438   9.547 -1.0056 -0.1736 -0.2113
   33POPC  H18T 4459   2.698   2.517   9.647 -1.1118 -0.9483 -2.2241
   33POPC   C33 4460   2.570   2.774   9.812  0.0065  0.4619 -0.1683
   33POPC   H3X 4461   2.601   2.678   9.765 -0.1331  1.0305 -1.4703
   33POPC   H3Y 4462   2.639   2.850   9.771  2.2385 -1.0705  0.5120
   33POPC   C34 4463   2.427   2.813   9.770  0.0743 -0.0055 -0.2234
   33POPC   H4X 4464   2.408   2.913   9.814 -1.1703  0.1873 -1.1517
   33POPC   H4Y 4465   2.360   2.737   9.815 -1.0049  0.7304 -0.5556
   33POPC   C35 4466   2.419   2.804   9.615  0.2874  0.2402 -0.6084
   33POPC   H5X 4467   2.433   2.697   9.590  2.6389  0.4637 -0.4089
   33POPC   H5Y 4468   2.497   2.861   9.560 -0.2521  0.2545 -1.3828
   33POPC   C36 4469   2.285   2.840   9.557 -0.0113 -0.1163  0.1348
   33POPC   H6X 4470   2.255   2.940   9.594 -0.7539 -0.6051  0.8959
   33POPC   H6Y 4471   2.208   2.779   9.610  0.7989  1.1111  2.9055
   33POPC   C37 4472   2.273   2.824   9.406  0.8711  0.2814 -0.4083
   33POPC   H7X 4473   2.372   2.820   9.356  0.0749  2.8289 -2.3842
   33POPC   H7Y 4474   2.231   2.921   9.373  1.4199  0.9931  0.9151
   33POPC   C38 4475   2.181   2.713   9.357 -0.0764 -0.3973 -1.0556
   33POPC   H8X 4476   2.074   2.738   9.367 -0.0580 -0.1204 -1.5827
   33POPC   H8Y 4477   2.202   2.627   9.426 -0.8301  0.5693  0.4414
   33POPC   C39 4478   2.211   2.657   9.217  0.5449  0.1216  0.1655
   33POPC   H9X 4479   2.320   2.636   9.212  1.3108  3.2206  1.1970
   33POPC   H9Y 4480   2.182   2.740   9.149 -3.0870 -1.8556 -1.0098
   33POPC  C310 4481   2.127   2.531   9.176 -0.3222 -0.1501  0.0768
   33POPC  H10X 4482   2.018   2.549   9.187 -0.7325 -1.5677 -1.3826
   33POPC  H10Y 4483   2.157   2.442   9.235 -2.0362  0.8721  2.6578
   33POPC  C311 4484   2.150   2.511   9.022  0.3646  0.3621  0.4541
   33POPC  H11X 4485   2.261   2.512   9.017  0.3093 -0.2588 -2.2775
   33POPC  H11Y 4486   2.101   2.587   8.958 -1.8810 -0.0287  1.5993
   33POPC  C312 4487   2.120   2.373   8.964  0.0776  0.1499 -0.4790
   33POPC  H12X 4488   2.013   2.348   8.979  0.0052  1.8216  2.5453
   33POPC  H12Y 4489   2.169   2.294   9.025 -2.3514  0.4367  2.0650
   33POPC  C313 4490   2.165   2.357   8.815 -0.0961 -0.1141  0.0035
   33POPC  H13X 4491   2.271   2.387   8.812 -0.5682  2.1101  1.9912
   33POPC  H13Y 4492   2.099   2.419   8.751  1.3254  0.1020 -1.2793
   33POPC  C314 4493   2.131   2.214   8.778  0.5647 -0.2173  0.6929
   33POPC  H14X 4494   2.027   2.194   8.810  0.5204  0.5435  1.0484
   33POPC  H14Y 4495   2.192   2.143   8.837 -0.8967 -0.7520  1.6205
   33POPC  C315 4496   2.130   2.177   8.627  0.3235  0.3185  0.7921
   33POPC  H15X 4497   2.057   2.241   8.574  1.5213  2.1798  1.3074
   33POPC  H15Y 4498   2.087   2.075   8.622  1.2613 -0.1167  1.2907
   33POPC  C316 4499   2.255   2.187   8.536 -0.5192  0.2141  0.3656
   33POPC  H16X 4500   2.255   2.290   8.494  2.8236 -0.6931 -2.3829
   33POPC  H16Y 4501   2.241   2.125   8.444  0.4672  0.4839  0.0177
   33POPC  H16Z 4502   2.350   2.156   8.586  0.6550 -1.9844 -2.8916
   34POPC     N 4503   2.121   3.088  10.639  0.0693 -0.7778  0.8760
   34POPC   C12 4504   2.117   3.237  10.587 -0.0671  0.6436  0.0813
   34POPC  H12A 4505   2.221   3.257  10.564 -0.1083 -0.2673 -0.9610
   34POPC  H12B 4506   2.092   3.301  10.670 -0.2802 -1.2702  1.5714
   34POPC   C13 4507   1.999   3.042  10.713  0.0290 -0.2214 -0.0536
   34POPC  H13A 4508   1.913   3.046  10.648  1.7432 -1.4875 -2.5642
   34POPC  H13B 4509   2.011   2.937  10.736  1.2601  0.1057  0.9021
   34POPC  H13C 4510   1.963   3.085  10.806  0.2264 -1.1333  0.4586
   34POPC   C14 4511   2.145   3.006  10.522  0.0099  0.2414 -0.9935
   34POPC  H14A 4512   2.218   3.045  10.452  0.8034 -1.5434 -1.2162
   34POPC  H14B 4513   2.166   2.904  10.553  0.3135  0.6147  0.0885
   34POPC  H14C 4514   2.059   3.000  10.458  0.2096  2.3037 -1.5241
   34POPC   C15 4515   2.219   3.075  10.745  0.4769  0.4702 -0.0830
   34POPC  H15A 4516   2.321   3.094  10.714  1.4601 -0.1779  2.4290
   34POPC  H15B 4517   2.239   2.973  10.774 -4.0827 -0.7996 -0.6756
   34POPC  H15C 4518   2.205   3.134  10.834 -2.6368 -0.1096 -0.0824
   34POPC   C11 4519   2.031   3.280  10.466  0.2922  0.3859  0.2735
   34POPC  H11A 4520   2.062   3.232  10.371 -0.6157  0.0315  0.1523
   34POPC  H11B 4521   2.046   3.388  10.444  1.7745 -0.2765 -2.3731
   34POPC     P 4522   1.814   3.347  10.590 -0.2354 -0.0630  0.2040
   34POPC   O13 4523   1.911   3.442  10.659  1.1027  0.1473 -0.6484
   34POPC   O14 4524   1.741   3.257  10.674  0.3848 -0.4091 -0.5400
   34POPC   O12 4525   1.894   3.257  10.485  0.1569 -0.1250  0.4643
   34POPC   O11 4526   1.704   3.434  10.499 -0.7769 -0.0560  0.4183
   34POPC    C1 4527   1.594   3.372  10.439 -0.0994 -0.1158  0.2266
   34POPC    HA 4528   1.519   3.453  10.420 -0.1515 -0.5760 -1.8108
   34POPC    HB 4529   1.540   3.301  10.504  0.7300  1.1781  2.4256
   34POPC    C2 4530   1.611   3.300  10.300 -0.0406 -0.1896  0.1633
   34POPC    HS 4531   1.645   3.202  10.339 -2.3297 -0.4383  1.7145
   34POPC   O21 4532   1.700   3.379  10.222  0.2735  0.0865 -0.4196
   34POPC   C21 4533   1.769   3.308  10.130 -0.2834  0.8710  0.2942
   34POPC   O22 4534   1.784   3.186  10.127  0.1624 -0.4648 -0.3528
   34POPC   C22 4535   1.830   3.407  10.035 -0.4463  0.5999 -1.0565
   34POPC   H2R 4536   1.928   3.360  10.009 -0.3879  0.2242 -0.1767
   34POPC   H2S 4537   1.871   3.496  10.086  3.1211 -0.6665 -1.4115
   34POPC    C3 4538   1.471   3.283  10.236  0.0447 -0.4835 -0.3689
   34POPC    HX 4539   1.430   3.380  10.201 -0.8653 -1.6141 -2.6872
   34POPC    HY 4540   1.397   3.241  10.307  2.2447 -0.5400  2.0487
   34POPC   O31 4541   1.475   3.207  10.119 -0.2066 -0.4163  0.7871
   34POPC   C31 4542   1.468   3.073  10.131  0.2800 -0.5528 -0.1998
   34POPC   O32 4543   1.461   3.017  10.243  0.0784 -0.5812 -0.2026
   34POPC   C32 4544   1.448   3.015   9.995  0.0152  0.1975  0.4456
   34POPC   H2X 4545   1.481   3.087   9.916  0.3127  0.7374  1.0537
   34POPC   H2Y 4546   1.341   2.994   9.974  0.2406 -2.3392  1.5151
   34POPC   C23 4547   1.745   3.441   9.914 -0.2622 -0.1418  0.5315
   34POPC   H3R 4548   1.646   3.483   9.945  0.7567  3.9548 -1.1384
   34POPC   H3S 4549   1.731   3.343   9.864  1.0499 -0.9090  1.6000
   34POPC   C24 4550   1.818   3.544   9.820  0.4139 -0.3184 -0.6168
   34POPC   H4R 4551   1.923   3.515   9.799  1.2193  1.9620 -0.0679
   34POPC   H4S 4552   1.826   3.640   9.875  0.8516 -0.3015 -0.7037
   34POPC   C25 4553   1.745   3.570   9.694  0.0246 -0.0519  0.5314
   34POPC   H5R 4554   1.650   3.627   9.705 -0.0509  0.1527 -1.0611
   34POPC   H5S 4555   1.726   3.469   9.652  1.1373 -0.3491  0.6904
   34POPC   C26 4556   1.846   3.640   9.596  0.6412 -0.5022 -0.5939
   34POPC   H6R 4557   1.942   3.585   9.591  1.0913  0.3020 -0.9846
   34POPC   H6S 4558   1.865   3.746   9.622 -0.6511  0.0031 -1.5703
   34POPC   C27 4559   1.783   3.632   9.461 -1.1328  0.5088  0.3555
   34POPC   H7R 4560   1.675   3.660   9.457 -1.3082 -0.2017 -2.8252
   34POPC   H7S 4561   1.789   3.527   9.427  2.5562  1.2143 -1.7694
   34POPC   C28 4562   1.859   3.721   9.359  0.8900  0.0966 -0.2260
   34POPC   H8R 4563   1.864   3.821   9.407  1.6538 -0.2230  0.3850
   34POPC   H8S 4564   1.784   3.728   9.277  0.1293  0.8630  0.5161
   34POPC   C29 4565   2.002   3.693   9.321  0.4095 -0.0223  0.0579
   34POPC   H91 4566   2.073   3.664   9.401  0.4041  0.5323  0.2694
   34POPC  C210 4567   2.054   3.696   9.200 -0.3807  0.0079  0.3612
   34POPC  H101 4568   2.162   3.675   9.189 -0.2699  0.5007  0.4559
   34POPC  C211 4569   1.985   3.743   9.077 -0.8081  0.0416 -0.2143
   34POPC  H11R 4570   2.042   3.817   9.017 -0.8441 -0.2586 -0.6271
   34POPC  H11S 4571   1.893   3.795   9.111 -1.3070 -0.8750 -0.1002
   34POPC  C212 4572   1.925   3.631   8.979 -0.1894  0.3317  0.1505
   34POPC  H12R 4573   1.840   3.676   8.922  0.4076 -0.1903 -1.1904
   34POPC  H12S 4574   1.872   3.554   9.039 -1.6662 -0.3227 -1.8548
   34POPC  C213 4575   2.013   3.554   8.885  0.1133  0.6088 -0.1224
   34POPC  H13R 4576   2.079   3.487   8.944  0.4707  1.4386  0.4353
   34POPC  H13S 4577   2.087   3.628   8.849  1.0632 -0.4248 -0.3483
   34POPC  C214 4578   1.957   3.463   8.768 -0.0824 -0.2255  0.1141
   34POPC  H14R 4579   1.876   3.523   8.722  0.9722  0.8274 -0.4383
   34POPC  H14S 4580   1.928   3.366   8.814  1.1009 -0.5598  0.1870
   34POPC  C215 4581   2.063   3.443   8.659  0.0720  0.2940 -0.3384
   34POPC  H15R 4582   2.148   3.381   8.695  0.9220  0.0702 -2.5677
   34POPC  H15S 4583   2.103   3.544   8.637  0.2262 -0.0125 -1.5066
   34POPC  C216 4584   2.002   3.398   8.526  0.2144  0.0690  0.1111
   34POPC  H16R 4585   1.926   3.475   8.499 -0.3386 -0.0751  1.1830
   34POPC  H16S 4586   1.940   3.307   8.539 -0.2735  0.4444  0.4668
   34POPC  C217 4587   2.108   3.380   8.413 -0.3999  0.0727 -0.3508
   34POPC  H17R 4588   2.178   3.466   8.412  1.6291 -1.3335  2.8963
   34POPC  H17S 4589   2.051   3.368   8.319 -1.0451 -1.5190  0.2001
   34POPC  C218 4590   2.204   3.255   8.417  0.0295  0.1357  0.1682
   34POPC  H18R 4591   2.193   3.202   8.514 -0.0787 -1.3486 -0.6351
   34POPC  H18S 4592   2.308   3.287   8.400  0.4654 -1.4559 -0.3262
   34POPC  H18T 4593   2.189   3.186   8.332  1.4177  0.8018 -0.6372
   34POPC   C33 4594   1.542   2.889   9.971 -0.4659 -0.0340 -0.2623
   34POPC   H3X 4595   1.512   2.826  10.057  2.1894  1.3790  1.8859
   34POPC   H3Y 4596   1.644   2.929   9.989 -0.4335  0.6110 -1.7759
   34POPC   C34 4597   1.528   2.806   9.847 -0.1299  0.2608  0.3861
   34POPC   H4X 4598   1.538   2.869   9.756  2.2132 -0.0777  0.3536
   34POPC   H4Y 4599   1.424   2.768   9.842 -0.3574  0.8538  0.5975
   34POPC   C35 4600   1.639   2.702   9.838  0.7757 -1.0894 -0.0263
   34POPC   H5X 4601   1.671   2.678   9.942 -1.6764  0.7641  1.2792
   34POPC   H5Y 4602   1.724   2.756   9.789  1.2099  0.3544  2.1547
   34POPC   C36 4603   1.610   2.578   9.777  0.0690  0.5320 -0.3965
   34POPC   H6X 4604   1.544   2.525   9.848 -2.5268  0.6980 -2.5202
   34POPC   H6Y 4605   1.698   2.510   9.772  0.0914  0.6086 -1.3409
   34POPC   C37 4606   1.556   2.578   9.631  0.2842 -0.3836  0.0683
   34POPC   H7X 4607   1.454   2.619   9.651 -0.2241 -0.7912 -1.5608
   34POPC   H7Y 4608   1.547   2.475   9.591  1.6723 -0.5739  0.1924
   34POPC   C38 4609   1.630   2.669   9.524 -0.4279 -0.9126 -0.2488
   34POPC   H8X 4610   1.741   2.657   9.519 -0.3943 -1.1204  0.7638
   34POPC   H8Y 4611   1.622   2.773   9.560  1.5158 -0.7687 -0.1204
   34POPC   C39 4612   1.582   2.640   9.385 -0.4357 -0.1780  0.9184
   34POPC   H9X 4613   1.474   2.656   9.367 -0.0989  2.7683  0.9864
   34POPC   H9Y 4614   1.617   2.536   9.365  1.8802  0.6559  0.2239
   34POPC  C310 4615   1.647   2.731   9.281 -0.8901  0.7211  0.6867
   34POPC  H10X 4616   1.757   2.732   9.295 -0.7580  3.0176 -0.0622
   34POPC  H10Y 4617   1.605   2.832   9.303 -3.8412 -0.5286  1.2048
   34POPC  C311 4618   1.605   2.695   9.137 -0.2358 -0.0349 -0.1234
   34POPC  H11X 4619   1.610   2.785   9.072  0.0392 -0.5896 -0.8806
   34POPC  H11Y 4620   1.500   2.659   9.127 -0.1953  0.0312 -0.8223
   34POPC  C312 4621   1.685   2.579   9.084  0.2925 -0.8795  0.0570
   34POPC  H12X 4622   1.666   2.488   9.143 -2.7902  0.2157  0.9624
   34POPC  H12Y 4623   1.793   2.606   9.088  0.1455 -0.4104  3.3562
   34POPC  C313 4624   1.651   2.546   8.938  0.7738 -0.9420 -0.3629
   34POPC  H13X 4625   1.578   2.617   8.892  0.5598 -2.7803 -3.1512
   34POPC  H13Y 4626   1.599   2.448   8.934  0.1148 -0.5756 -1.5324
   34POPC  C314 4627   1.784   2.535   8.859  0.0512 -0.0027 -0.0648
   34POPC  H14X 4628   1.842   2.443   8.883  0.3619  0.0434 -0.6179
   34POPC  H14Y 4629   1.861   2.614   8.874  2.0029 -1.5031 -1.5717
   34POPC  C315 4630   1.771   2.535   8.708 -0.0916  0.5353  0.5369
   34POPC  H15X 4631   1.711   2.451   8.666  1.3741  0.9588 -2.7852
   34POPC  H15Y 4632   1.866   2.515   8.652  0.2901 -1.3867  1.7453
   34POPC  C316 4633   1.708   2.663   8.660  0.0082 -0.2801  0.0310
   34POPC  H16X 4634   1.603   2.677   8.693  1.1718  2.0032  3.2393
   34POPC  H16Y 4635   1.730   2.666   8.551  2.7370  0.6780  0.5075
   34POPC  H16Z 4636   1.774   2.746   8.695 -0.5841 -0.2372  1.0539
   35POPC     N 4637   5.788   0.268  11.341  0.3045 -0.0882 -0.5042
   35POPC   C12 4638   5.908   0.215  11.260 -0.0540  0.2762 -0.1445
   35POPC  H12A 4639   5.918   0.110  11.282 -2.7729 -0.4558 -1.9617
   35POPC  H12B 4640   6.001   0.262  11.290  1.5188 -1.4275 -2.0013
   35POPC   C13 4641   5.779   0.419  11.332  0.0433 -0.5650  0.0426
   35POPC  H13A 4642   5.869   0.467  11.369 -1.1140 -0.7525  3.4898
   35POPC  H13B 4643   5.782   0.453  11.230  0.9126  0.3680  0.3453
   35POPC  H13C 4644   5.695   0.456  11.390  0.4192  2.3379 -1.0607
   35POPC   C14 4645   5.657   0.202  11.294  0.0734  0.5045 -0.2736
   35POPC  H14A 4646   5.647   0.099  11.324 -0.3805 -0.2131 -2.6509
   35POPC  H14B 4647   5.575   0.259  11.334  0.9888  2.2284 -0.7328
   35POPC  H14C 4648   5.658   0.209  11.186 -0.1892  0.2256 -0.2941
   35POPC   C15 4649   5.811   0.229  11.484  0.1264  0.7230 -0.5349
   35POPC  H15A 4650   5.717   0.239  11.537  0.4137  0.8766 -0.0444
   35POPC  H15B 4651   5.887   0.286  11.535 -0.6122  1.6364 -0.4382
   35POPC  H15C 4652   5.838   0.124  11.484 -0.1557  0.6487 -0.4518
   35POPC   C11 4653   5.906   0.226  11.105 -0.3311 -0.4291  0.0495
   35POPC  H11A 4654   5.827   0.165  11.057 -0.3888 -0.1712 -0.1827
   35POPC  H11B 4655   5.997   0.174  11.068  0.7099  0.0847  1.7428
   35POPC     P 4656   6.044   0.439  11.054  0.1841  0.4417  0.2595
   35POPC   O13 4657   6.139   0.384  11.156  0.1912  0.0402  0.1126
   35POPC   O14 4658   6.013   0.585  11.069  0.0654 -0.5021  0.1834
   35POPC   O12 4659   5.910   0.361  11.066 -0.1985  0.1885  0.2677
   35POPC   O11 4660   6.091   0.413  10.899  0.1804  0.0000 -0.8308
   35POPC    C1 4661   5.991   0.364  10.805 -0.5371  0.3722  0.2080
   35POPC    HA 4662   5.904   0.432  10.797 -0.3331  0.4339 -2.0915
   35POPC    HB 4663   5.962   0.260  10.834  1.0624 -0.9895 -2.6353
   35POPC    C2 4664   6.051   0.366  10.659 -0.2287  0.2107 -0.0771
   35POPC    HS 4665   5.969   0.338  10.589 -2.7719  2.5348  1.7685
   35POPC   O21 4666   6.170   0.290  10.646  0.1481  0.4683 -0.0834
   35POPC   C21 4667   6.153   0.163  10.652 -0.3299  0.4390 -0.9343
   35POPC   O22 4668   6.055   0.103  10.682 -0.4377  0.1799 -0.4022
   35POPC   C22 4669   6.291   0.096  10.617  0.7681  0.5423 -0.3903
   35POPC   H2R 4670   6.281  -0.013  10.597  3.4348  0.0612  0.4985
   35POPC   H2S 4671   6.344   0.108  10.714 -0.5853 -1.4580  0.6590
   35POPC    C3 4672   6.077   0.513  10.614 -0.3356 -0.7987 -0.1441
   35POPC    HX 4673   6.117   0.580  10.693  2.4437 -0.2772 -1.8562
   35POPC    HY 4674   5.975   0.555  10.598 -0.3178 -1.4333 -2.2195
   35POPC   O31 4675   6.152   0.524  10.488 -0.5177 -0.6531 -0.1532
   35POPC   C31 4676   6.267   0.588  10.484 -0.4016 -0.3324  0.7130
   35POPC   O32 4677   6.324   0.641  10.576 -0.2106 -0.1954  0.2797
   35POPC   C32 4678   6.313   0.599  10.338  0.3756 -0.2103 -1.1481
   35POPC   H2X 4679   6.341   0.494  10.315 -2.8253 -1.1637 -1.1810
   35POPC   H2Y 4680   6.398   0.671  10.347  0.7947 -0.5906 -1.8986
   35POPC   C23 4681   6.376   0.157  10.502  0.6678 -0.0182 -0.2083
   35POPC   H3R 4682   6.477   0.113  10.512  0.5891 -0.1351  0.0854
   35POPC   H3S 4683   6.393   0.266  10.515 -0.2405  0.2872 -1.4248
   35POPC   C24 4684   6.325   0.116  10.365  0.1770 -0.2356  0.6006
   35POPC   H4R 4685   6.219   0.147  10.368  0.2112  0.1874 -1.3802
   35POPC   H4S 4686   6.332   0.008  10.341  0.0442  0.2255 -1.7320
   35POPC   C25 4687   6.415   0.184  10.258  0.7323 -0.0524 -0.5568
   35POPC   H5R 4688   6.500   0.114  10.242  0.3296 -0.7776  0.3793
   35POPC   H5S 4689   6.459   0.274  10.306 -1.9490  0.7421  0.5652
   35POPC   C26 4690   6.347   0.214  10.123 -0.0560 -0.2105  0.3864
   35POPC   H6R 4691   6.300   0.314  10.128  1.1306  0.4631 -1.2155
   35POPC   H6S 4692   6.261   0.149  10.098 -0.3321 -0.0910  0.9933
   35POPC   C27 4693   6.447   0.233  10.004  0.0720  0.1379  0.0848
   35POPC   H7R 4694   6.527   0.303  10.035  2.9209 -1.2079 -3.4118
   35POPC   H7S 4695   6.391   0.287   9.924 -2.0252 -0.8222  0.8218
   35POPC   C28 4696   6.512   0.112   9.939  0.3888  0.0774  0.0816
   35POPC   H8R 4697   6.584   0.070  10.013  1.4742  1.0991 -0.3773
   35POPC   H8S 4698   6.580   0.147   9.859 -0.1417  0.6873 -0.1034
   35POPC   C29 4699   6.409   0.008   9.886 -0.5269  0.2878 -1.2387
   35POPC   H91 4700   6.329  -0.010   9.959  0.7977  0.4589  0.3170
   35POPC  C210 4701   6.425  -0.061   9.768 -0.0210 -0.0897 -0.3015
   35POPC  H101 4702   6.348  -0.135   9.739 -2.0723  0.7697  2.4976
   35POPC  C211 4703   6.542  -0.049   9.667  1.0196 -0.2802 -1.7169
   35POPC  H11R 4704   6.597  -0.144   9.654  0.5317 -1.0048  0.8100
   35POPC  H11S 4705   6.616   0.025   9.706 -0.7644  1.5005 -1.5167
   35POPC  C212 4706   6.489   0.001   9.532 -0.0223 -0.0534  0.3595
   35POPC  H12R 4707   6.399  -0.055   9.498 -1.1077  1.6109  0.3948
   35POPC  H12S 4708   6.565  -0.018   9.453 -0.7556 -3.1523  0.2681
   35POPC  C213 4709   6.437   0.146   9.534  0.2659 -0.2892 -0.0209
   35POPC  H13R 4710   6.507   0.212   9.588  0.2315  0.6120 -1.0408
   35POPC  H13S 4711   6.354   0.164   9.605  2.0136  4.9567  1.1565
   35POPC  C214 4712   6.397   0.186   9.392 -0.3207  0.5757 -0.4611
   35POPC  H14R 4713   6.327   0.272   9.395  0.2088  1.0280 -0.9670
   35POPC  H14S 4714   6.340   0.107   9.338  1.1510  0.2455 -1.5797
   35POPC  C215 4715   6.529   0.207   9.309  0.4743  0.3527 -0.0848
   35POPC  H15R 4716   6.620   0.229   9.368  1.3961  0.2197 -1.4188
   35POPC  H15S 4717   6.507   0.301   9.254 -3.0226 -0.7289 -0.7843
   35POPC  C216 4718   6.543   0.108   9.195  0.5938  0.6016  0.1432
   35POPC  H16R 4719   6.529   0.005   9.233  1.0275  0.5678  0.2260
   35POPC  H16S 4720   6.647   0.126   9.160  1.0266 -2.4262 -0.3492
   35POPC  C217 4721   6.455   0.120   9.062  0.5887  0.5250 -0.0253
   35POPC  H17R 4722   6.454   0.227   9.029  0.8837  0.7262  0.5982
   35POPC  H17S 4723   6.351   0.086   9.078  0.6495  0.6025  0.5775
   35POPC  C218 4724   6.507   0.028   8.951 -0.3120  1.0282  0.0080
   35POPC  H18R 4725   6.461   0.049   8.853 -1.0500  1.5188  0.4499
   35POPC  H18S 4726   6.490  -0.076   8.985  0.8707 -0.3062 -3.1591
   35POPC  H18T 4727   6.617   0.037   8.939 -0.3192  0.4879 -0.5030
   35POPC   C33 4728   6.206   0.632  10.233 -0.9380  0.0510 -0.0511
   35POPC   H3X 4729   6.160   0.724  10.278  0.6935  0.9199 -0.0935
   35POPC   H3Y 4730   6.135   0.547  10.226  1.5917 -2.4089  1.8473
   35POPC   C34 4731   6.263   0.645  10.095  0.1456  0.0778 -0.6749
   35POPC   H4X 4732   6.336   0.564  10.075 -0.8200 -0.6659 -1.3027
   35POPC   H4Y 4733   6.319   0.741  10.090  0.5368 -0.1650 -1.0597
   35POPC   C35 4734   6.155   0.649   9.988  0.7120  0.2264 -0.4936
   35POPC   H5X 4735   6.074   0.721  10.013 -0.0391 -0.2763 -1.4481
   35POPC   H5Y 4736   6.115   0.546   9.977  0.1053  0.4436 -0.3285
   35POPC   C36 4737   6.202   0.691   9.851 -0.1680  0.4472  0.7269
   35POPC   H6X 4738   6.218   0.801   9.843  1.0815  0.1920 -0.6958
   35POPC   H6Y 4739   6.114   0.669   9.787 -0.3257  0.9251  0.7728
   35POPC   C37 4740   6.321   0.601   9.807 -0.9372 -0.0677 -0.1076
   35POPC   H7X 4741   6.307   0.503   9.856 -1.7089  0.5979  1.0801
   35POPC   H7Y 4742   6.417   0.643   9.845 -0.7649  2.0074 -2.5493
   35POPC   C38 4743   6.341   0.579   9.656 -0.6285 -0.5444 -0.0530
   35POPC   H8X 4744   6.259   0.517   9.614 -1.8938  0.2167  1.2180
   35POPC   H8Y 4745   6.442   0.539   9.631 -0.8028  0.3368 -2.3775
   35POPC   C39 4746   6.316   0.714   9.588 -0.3405  0.5284  0.0472
   35POPC   H9X 4747   6.344   0.797   9.656 -0.6874  1.7563 -1.2481
   35POPC   H9Y 4748   6.209   0.740   9.573 -0.2017  0.2161 -1.7105
   35POPC  C310 4749   6.390   0.741   9.462 -0.3096  0.4228  0.6066
   35POPC  H10X 4750   6.498   0.745   9.489  0.2694 -2.2142 -0.9580
   35POPC  H10Y 4751   6.373   0.842   9.418  2.6702  0.7629  0.0203
   35POPC  C311 4752   6.379   0.636   9.356  0.3670 -1.2006 -0.4931
   35POPC  H11X 4753   6.406   0.534   9.392 -0.8217 -1.8196 -1.2925
   35POPC  H11Y 4754   6.442   0.660   9.268  1.6659  0.2830  0.7664
   35POPC  C312 4755   6.238   0.615   9.289  0.2492  0.0715 -0.1097
   35POPC  H12X 4756   6.201   0.717   9.269 -0.3976 -0.3363 -1.0626
   35POPC  H12Y 4757   6.180   0.562   9.368 -1.4818  0.4832 -1.0519
   35POPC  C313 4758   6.238   0.540   9.157  0.9864  0.0566  0.4220
   35POPC  H13X 4759   6.263   0.434   9.177 -0.5783 -0.3186  0.5590
   35POPC  H13Y 4760   6.313   0.586   9.090 -0.4548 -0.4945 -1.6652
   35POPC  C314 4761   6.102   0.540   9.082 -0.9551  0.4689  0.8275
   35POPC  H14X 4762   6.088   0.647   9.056  0.5392  0.1151 -1.7342
   35POPC  H14Y 4763   6.017   0.503   9.143 -1.2205 -2.8320 -1.3226
   35POPC  C315 4764   6.104   0.462   8.948  0.0526  0.1099 -0.3161
   35POPC  H15X 4765   6.190   0.497   8.888  1.7805 -0.4996  1.6545
   35POPC  H15Y 4766   6.010   0.494   8.899 -0.3227 -0.1192  0.2378
   35POPC  C316 4767   6.128   0.306   8.943 -0.0382 -0.3548 -0.1556
   35POPC  H16X 4768   6.231   0.285   8.982  1.1489  2.1105 -1.7165
   35POPC  H16Y 4769   6.125   0.267   8.839 -1.5957 -1.3108  0.2228
   35POPC  H16Z 4770   6.044   0.265   9.002  1.7289 -0.4247  2.5049
   36POPC     N 4771   2.232   0.424  10.900  0.9765 -0.1383  0.2651
   36POPC   C12 4772   2.116   0.420  10.795 -0.3124  0.0872  0.6242
   36POPC  H12A 4773   2.167   0.401  10.702 -0.4202  1.6017  0.2161
   36POPC  H12B 4774   2.071   0.518  10.789  0.6601  0.5168  0.0533
   36POPC   C13 4775   2.273   0.285  10.936  0.4576  0.0812 -0.1036
   36POPC  H13A 4776   2.193   0.251  11.000 -0.6839  0.2065 -1.4273
   36POPC  H13B 4777   2.267   0.214  10.856  0.8019 -0.4541  0.3385
   36POPC  H13C 4778   2.367   0.278  10.989 -0.1062 -2.1439  0.7094
   36POPC   C14 4779   2.351   0.484  10.846  0.6364  0.2176  0.4210
   36POPC  H14A 4780   2.331   0.587  10.819  1.7318  0.2114 -0.4860
   36POPC  H14B 4781   2.439   0.481  10.908  2.4714 -1.3898 -2.0900
   36POPC  H14C 4782   2.371   0.429  10.755 -0.2816 -0.6455  0.7253
   36POPC   C15 4783   2.190   0.491  11.023 -0.5729 -0.2715  0.1100
   36POPC  H15A 4784   2.150   0.419  11.092 -0.7238 -0.0882  0.2138
   36POPC  H15B 4785   2.122   0.570  10.994  0.7717  0.5280 -1.0208
   36POPC  H15C 4786   2.271   0.541  11.074  1.2074 -3.0365  0.2164
   36POPC   C11 4787   2.006   0.322  10.814  0.2241  0.4224  0.3385
   36POPC  H11A 4788   2.044   0.228  10.859  1.5329  0.6706 -0.1855
   36POPC  H11B 4789   1.973   0.300  10.710  0.7207  0.3327  0.1980
   36POPC     P 4790   1.800   0.480  10.841  0.6691  0.0170 -0.0258
   36POPC   O13 4791   1.876   0.578  10.760 -0.0750 -0.4385 -0.3300
   36POPC   O14 4792   1.720   0.523  10.956 -0.1867 -0.0846 -0.3919
   36POPC   O12 4793   1.899   0.371  10.891 -0.4197  0.0199 -0.8835
   36POPC   O11 4794   1.700   0.402  10.751  0.6775  0.3926  0.5191
   36POPC    C1 4795   1.600   0.313  10.802 -0.1935 -0.2455 -0.5545
   36POPC    HA 4796   1.525   0.374  10.857  0.3122  1.1246 -1.3246
   36POPC    HB 4797   1.647   0.240  10.871  1.7322  1.7790  0.3871
   36POPC    C2 4798   1.527   0.242  10.689  0.0967  0.2781 -0.0112
   36POPC    HS 4799   1.447   0.179  10.732 -0.0548  0.5233  0.0705
   36POPC   O21 4800   1.625   0.171  10.607 -0.1216  0.0422  0.2021
   36POPC   C21 4801   1.683   0.066  10.655  0.4126 -0.8526 -0.1360
   36POPC   O22 4802   1.634  -0.005  10.741  0.0047  0.1956  0.0054
   36POPC   C22 4803   1.824   0.047  10.604  0.2277 -0.6234  0.1428
   36POPC   H2R 4804   1.889   0.109  10.669 -1.1398  1.2005 -0.1489
   36POPC   H2S 4805   1.823   0.096  10.504  1.1558 -0.5772  0.1509
   36POPC    C3 4806   1.464   0.346  10.590 -0.0650  0.2696  0.0136
   36POPC    HX 4807   1.538   0.407  10.534 -0.5818  0.8452 -0.0646
   36POPC    HY 4808   1.411   0.417  10.657 -0.0588 -0.5326  0.8909
   36POPC   O31 4809   1.371   0.277  10.506  0.1609  0.5882  0.4749
   36POPC   C31 4810   1.417   0.251  10.383 -0.2640 -0.0442  0.0178
   36POPC   O32 4811   1.527   0.275  10.341 -0.4116 -0.4894  0.2031
   36POPC   C32 4812   1.320   0.174  10.291 -0.6007 -0.0854  0.2668
   36POPC   H2X 4813   1.250   0.245  10.242  0.5207  1.0040  0.2115
   36POPC   H2Y 4814   1.262   0.097  10.347 -4.5512  2.6445  0.3704
   36POPC   C23 4815   1.871  -0.094  10.596  0.3786  0.2702 -0.2547
   36POPC   H3R 4816   1.867  -0.156  10.688  0.1631  0.1161 -0.3664
   36POPC   H3S 4817   1.977  -0.098  10.562 -0.0605  0.2166 -1.6904
   36POPC   C24 4818   1.786  -0.176  10.490  0.4081  0.1990  0.1102
   36POPC   H4R 4819   1.682  -0.198  10.525  0.2492  1.0967  0.2331
   36POPC   H4S 4820   1.836  -0.273  10.471 -1.3462 -1.0572  1.5740
   36POPC   C25 4821   1.770  -0.097  10.356 -0.0272 -0.2086 -0.3105
   36POPC   H5R 4822   1.865  -0.040  10.348  1.4514 -2.4395  0.3043
   36POPC   H5S 4823   1.685  -0.026  10.359 -0.8621 -0.9525 -3.1088
   36POPC   C26 4824   1.746  -0.174  10.221 -0.3441 -0.9643 -0.3688
   36POPC   H6R 4825   1.763  -0.104  10.136  0.1510 -0.8535 -0.1854
   36POPC   H6S 4826   1.637  -0.191  10.235 -0.4525  0.8034  1.3064
   36POPC   C27 4827   1.833  -0.306  10.204  0.1071 -0.0871 -0.6871
   36POPC   H7R 4828   1.816  -0.375  10.289 -0.3603 -1.6770 -2.0245
   36POPC   H7S 4829   1.943  -0.286  10.209  0.2488 -0.7918 -0.9300
   36POPC   C28 4830   1.811  -0.380  10.074 -0.6794  0.0848  1.2423
   36POPC   H8R 4831   1.704  -0.410  10.064 -0.3017 -1.3080  1.1431
   36POPC   H8S 4832   1.868  -0.475  10.077 -0.2326  0.1603 -1.7104
   36POPC   C29 4833   1.874  -0.312   9.948 -0.9450 -0.8152  0.4114
   36POPC   H91 4834   1.953  -0.240   9.976  0.2582 -1.4102 -1.2579
   36POPC  C210 4835   1.856  -0.353   9.821  0.0301 -0.7511  0.3947
   36POPC  H101 4836   1.898  -0.286   9.744  1.1390 -0.1464  1.4897
   36POPC  C211 4837   1.778  -0.470   9.767 -0.7746 -0.5521 -0.1354
   36POPC  H11R 4838   1.760  -0.542   9.850  1.5485  0.6183  1.4765
   36POPC  H11S 4839   1.839  -0.532   9.698 -2.2649 -1.2670 -0.8499
   36POPC  C212 4840   1.653  -0.423   9.691 -0.3802  0.1182  0.9133
   36POPC  H12R 4841   1.606  -0.346   9.756 -3.1543 -0.9516  0.3075
   36POPC  H12S 4842   1.591  -0.515   9.685 -0.5092  0.2026  0.9519
   36POPC  C213 4843   1.677  -0.373   9.543  1.3251 -1.3683 -0.6521
   36POPC  H13R 4844   1.724  -0.274   9.560 -0.1099 -1.0012  1.5144
   36POPC  H13S 4845   1.575  -0.356   9.501  1.8224 -0.1836 -1.4372
   36POPC  C214 4846   1.754  -0.467   9.456 -0.0674 -0.3967 -0.1645
   36POPC  H14R 4847   1.741  -0.574   9.484  1.1528 -1.1698 -2.3158
   36POPC  H14S 4848   1.856  -0.422   9.454 -0.9916  1.8662  0.3519
   36POPC  C215 4849   1.701  -0.468   9.309  0.1244 -0.6599  0.0688
   36POPC  H15R 4850   1.712  -0.366   9.267 -1.5113 -0.8988 -1.0002
   36POPC  H15S 4851   1.593  -0.489   9.299 -0.0803  0.7718 -0.9732
   36POPC  C216 4852   1.779  -0.559   9.209 -0.3193  0.1909 -0.1462
   36POPC  H16R 4853   1.754  -0.662   9.241  0.4816  0.8149  2.7219
   36POPC  H16S 4854   1.886  -0.555   9.237 -0.3205 -0.4781 -0.0302
   36POPC  C217 4855   1.741  -0.533   9.066 -0.4162 -0.0249 -0.3996
   36POPC  H17R 4856   1.635  -0.502   9.060 -0.8525 -1.3669 -0.0074
   36POPC  H17S 4857   1.757  -0.623   9.004  0.0426 -0.5008  0.3869
   36POPC  C218 4858   1.824  -0.411   9.003  0.1095 -0.2298  0.0884
   36POPC  H18R 4859   1.785  -0.408   8.899  0.1042 -2.3001 -0.0090
   36POPC  H18S 4860   1.934  -0.425   9.003  0.2963  1.1358 -0.3357
   36POPC  H18T 4861   1.800  -0.323   9.065  3.3995  0.9313 -0.0826
   36POPC   C33 4862   1.394   0.102  10.172  0.1275  0.1724 -0.0830
   36POPC   H3X 4863   1.484   0.047  10.207  0.0339  0.0039 -0.1075
   36POPC   H3Y 4864   1.433   0.179  10.102  0.5383 -2.5524 -3.0664
   36POPC   C34 4865   1.304   0.001  10.092  0.5250  0.1500 -0.2837
   36POPC   H4X 4866   1.202   0.046  10.094  0.3326  0.1999  4.9726
   36POPC   H4Y 4867   1.309  -0.089  10.157 -1.5614 -0.3770 -0.7799
   36POPC   C35 4868   1.342  -0.022   9.945 -0.0243  0.3482  0.0188
   36POPC   H5X 4869   1.320   0.071   9.889 -0.6360  0.1064 -0.1490
   36POPC   H5Y 4870   1.290  -0.107   9.896  1.9064 -1.3099  0.6862
   36POPC   C36 4871   1.490  -0.060   9.924  0.1315  0.7712 -0.4065
   36POPC   H6X 4872   1.514  -0.146   9.990  0.4884  0.5365 -0.8379
   36POPC   H6Y 4873   1.566   0.013   9.960  0.4355 -0.1718  0.9580
   36POPC   C37 4874   1.517  -0.101   9.779 -0.4125  0.4583 -0.2677
   36POPC   H7X 4875   1.447  -0.183   9.753 -0.3907 -0.9344  3.5275
   36POPC   H7Y 4876   1.621  -0.136   9.769 -0.1543  0.3363  2.2474
   36POPC   C38 4877   1.477   0.011   9.684 -0.4506  0.4330  0.8025
   36POPC   H8X 4878   1.508   0.104   9.737 -0.5054  0.6185  0.5150
   36POPC   H8Y 4879   1.367   0.026   9.682 -0.7767 -1.6792  0.5061
   36POPC   C39 4880   1.541   0.000   9.541  0.4786  0.4146 -0.7154
   36POPC   H9X 4881   1.516  -0.093   9.485  3.0453 -0.8169  0.0355
   36POPC   H9Y 4882   1.649   0.004   9.563  0.6863  1.2766 -1.8074
   36POPC  C310 4883   1.504   0.123   9.453  0.1441  0.4951  0.8986
   36POPC  H10X 4884   1.546   0.208   9.509  0.9212  1.1151 -0.5662
   36POPC  H10Y 4885   1.394   0.116   9.440 -0.0476  0.4445  2.3775
   36POPC  C311 4886   1.569   0.126   9.312 -0.2333  0.5363  0.1623
   36POPC  H11X 4887   1.677   0.103   9.300 -0.2987  0.1361  0.3323
   36POPC  H11Y 4888   1.550   0.224   9.263 -0.5209  0.4956  0.1881
   36POPC  C312 4889   1.510   0.017   9.222  0.0598  0.7151  0.4608
   36POPC  H12X 4890   1.401   0.036   9.208  0.1146  0.4584 -0.3329
   36POPC  H12Y 4891   1.517  -0.085   9.266 -3.3840  0.0674 -0.1776
   36POPC  C313 4892   1.572   0.020   9.081 -0.4084  1.2280  0.3806
   36POPC  H13X 4893   1.679   0.040   9.100 -0.4079 -0.1209  1.9810
   36POPC  H13Y 4894   1.532   0.109   9.027  0.9070  1.5943 -0.0269
   36POPC  C314 4895   1.535  -0.112   9.003 -0.0716  0.4653 -0.7776
   36POPC  H14X 4896   1.429  -0.141   9.022  0.6385 -0.1520  3.2029
   36POPC  H14Y 4897   1.605  -0.186   9.048  0.1963 -0.3914 -2.5150
   36POPC  C315 4898   1.571  -0.108   8.859 -0.3316  0.0438  0.2968
   36POPC  H15X 4899   1.678  -0.083   8.842 -0.1612 -1.2508 -0.6472
   36POPC  H15Y 4900   1.506  -0.026   8.820 -1.1761 -0.7034  0.0909
   36POPC  C316 4901   1.526  -0.230   8.788  0.1647  0.2391  0.0805
   36POPC  H16X 4902   1.573  -0.323   8.825 -0.3221  0.1348  0.4571
   36POPC  H16Y 4903   1.544  -0.220   8.679  0.9619  0.5169  0.2270
   36POPC  H16Z 4904   1.419  -0.251   8.808  0.6461 -0.9226  1.6303
   37POPC     N 4905   6.393   3.813   6.414 -0.4476 -0.0624  0.4352
   37POPC   C12 4906   6.242   3.791   6.433  0.1932 -0.0032 -0.0803
   37POPC  H12A 4907   6.207   3.742   6.343 -0.1580 -0.9454  0.5534
   37POPC  H12B 4908   6.196   3.888   6.440  3.7479  1.7477  3.8567
   37POPC   C13 4909   6.422   3.898   6.297  0.2120  0.0971  0.0331
   37POPC  H13A 4910   6.365   3.989   6.303 -0.4724 -0.3757  0.8344
   37POPC  H13B 4911   6.527   3.923   6.301  0.5795 -1.4718  1.0605
   37POPC  H13C 4912   6.404   3.837   6.210  0.6691  1.3798 -0.9935
   37POPC   C14 4913   6.449   3.887   6.534  0.4225  0.4832 -0.0059
   37POPC  H14A 4914   6.553   3.913   6.530  0.8373 -1.2020 -1.2919
   37POPC  H14B 4915   6.401   3.983   6.543 -1.7471 -0.3966 -1.3538
   37POPC  H14C 4916   6.426   3.838   6.628  1.8241 -0.6460 -0.2211
   37POPC   C15 4917   6.457   3.680   6.411 -0.1817 -0.0361  0.5631
   37POPC  H15A 4918   6.438   3.632   6.316 -0.5445  0.6744  0.2649
   37POPC  H15B 4919   6.418   3.595   6.464 -2.0603  0.9337  0.8373
   37POPC  H15C 4920   6.565   3.679   6.402  0.0065 -1.2124  2.5271
   37POPC   C11 4921   6.201   3.701   6.554 -1.0163  0.1396 -0.2443
   37POPC  H11A 4922   6.090   3.701   6.554 -1.0197  0.3140 -0.9183
   37POPC  H11B 4923   6.240   3.746   6.648  3.3729  0.8136 -2.1422
   37POPC     P 4924   6.153   3.457   6.454  0.0925  0.3340 -0.1762
   37POPC   O13 4925   6.234   3.367   6.373  0.2370  0.1315 -0.0477
   37POPC   O14 4926   6.042   3.527   6.383  0.0257  0.2655 -0.5354
   37POPC   O12 4927   6.251   3.567   6.531 -0.1107  0.6545  0.5714
   37POPC   O11 4928   6.088   3.386   6.575 -0.0418  0.3678 -0.5427
   37POPC    C1 4929   6.133   3.294   6.665 -0.1580  0.2561 -0.4842
   37POPC    HA 4930   6.232   3.257   6.632  1.5017  2.6868  1.4155
   37POPC    HB 4931   6.064   3.207   6.660 -0.3039  0.2846  0.6526
   37POPC    C2 4932   6.164   3.347   6.810 -0.9165 -0.0813  0.8400
   37POPC    HS 4933   6.275   3.351   6.819 -0.8027  0.3444 -0.5360
   37POPC   O21 4934   6.094   3.271   6.908 -0.7178 -0.1837  0.1096
   37POPC   C21 4935   6.152   3.162   6.941  0.0194  0.7642  0.8484
   37POPC   O22 4936   6.248   3.110   6.887 -0.2363  0.8673  0.3005
   37POPC   C22 4937   6.061   3.091   7.044 -0.6155 -0.7588  0.1013
   37POPC   H2R 4938   5.992   3.028   6.983 -0.2576 -0.9094 -0.1521
   37POPC   H2S 4939   6.008   3.167   7.106 -4.4137 -0.3995 -3.1882
   37POPC    C3 4940   6.116   3.494   6.819 -0.0382  0.3275  0.3332
   37POPC    HX 4941   6.016   3.504   6.771 -0.6266 -0.2907  1.3715
   37POPC    HY 4942   6.191   3.554   6.764  1.4120 -0.4537  1.3975
   37POPC   O31 4943   6.093   3.534   6.951  0.9090 -0.1390 -0.5130
   37POPC   C31 4944   6.184   3.605   7.002 -0.5289  0.6243 -0.8099
   37POPC   O32 4945   6.282   3.660   6.946  0.3007 -0.2557 -0.3516
   37POPC   C32 4946   6.159   3.616   7.156  0.2217 -1.1764  0.7495
   37POPC   H2X 4947   6.048   3.617   7.168  0.3214 -0.9636  1.7489
   37POPC   H2Y 4948   6.192   3.716   7.192 -0.6749  1.1967 -4.1572
   37POPC   C23 4949   6.140   3.005   7.138 -0.6432  0.3259 -0.3709
   37POPC   H3R 4950   6.223   3.072   7.167 -3.4782  4.3402 -0.6336
   37POPC   H3S 4951   6.187   2.919   7.085 -2.8916 -1.2413  0.0402
   37POPC   C24 4952   6.069   2.956   7.265  0.2903 -0.0546  0.1682
   37POPC   H4R 4953   6.132   2.890   7.328  1.0420 -0.8394 -1.3434
   37POPC   H4S 4954   5.985   2.887   7.239 -0.9359  0.9639  1.2532
   37POPC   C25 4955   6.004   3.068   7.354 -0.3153 -0.1437  0.4022
   37POPC   H5R 4956   5.916   3.104   7.295 -1.0557 -4.2890 -1.3737
   37POPC   H5S 4957   6.075   3.153   7.361  0.8820 -1.0459 -0.4579
   37POPC   C26 4958   5.956   3.021   7.487  0.2412 -0.3233 -0.9545
   37POPC   H6R 4959   5.905   3.104   7.541 -1.8547 -0.4207 -2.6709
   37POPC   H6S 4960   6.045   2.995   7.549  0.1754  2.4404  0.4599
   37POPC   C27 4961   5.859   2.907   7.480 -0.1373 -0.8922  0.7065
   37POPC   H7R 4962   5.909   2.814   7.446  0.3199 -0.4548  0.1544
   37POPC   H7S 4963   5.782   2.926   7.403 -0.1184  2.4469  1.3688
   37POPC   C28 4964   5.802   2.889   7.622  0.8769  0.7094  0.6073
   37POPC   H8R 4965   5.743   2.979   7.650 -0.6071 -0.5116  1.5967
   37POPC   H8S 4966   5.883   2.884   7.697  1.5634 -1.0717 -0.2099
   37POPC   C29 4967   5.703   2.770   7.632  0.5456  0.2618 -1.0961
   37POPC   H91 4968   5.605   2.784   7.583 -0.2061  1.8249  0.7263
   37POPC  C210 4969   5.733   2.653   7.698 -0.1132  0.4145  0.3845
   37POPC  H101 4970   5.652   2.579   7.706 -0.0830  0.5676  2.5431
   37POPC  C211 4971   5.866   2.614   7.757  0.4041  0.6314  0.2177
   37POPC  H11R 4972   5.946   2.690   7.744 -0.0672  1.3768  1.4856
   37POPC  H11S 4973   5.907   2.523   7.707 -0.3065  0.0312  0.7039
   37POPC  C212 4974   5.853   2.590   7.909 -0.0070  0.3219 -0.1127
   37POPC  H12R 4975   5.937   2.523   7.937 -0.2366 -0.1532 -0.5490
   37POPC  H12S 4976   5.760   2.536   7.939 -0.6687  1.9305  0.9300
   37POPC  C213 4977   5.851   2.710   7.992 -0.5090  0.8231 -0.3983
   37POPC  H13R 4978   5.762   2.768   7.959 -2.1258 -2.6672 -2.7533
   37POPC  H13S 4979   5.944   2.768   7.972  2.0521 -2.5644  0.7137
   37POPC  C214 4980   5.849   2.669   8.144  0.3869  0.2267  0.0252
   37POPC  H14R 4981   5.932   2.601   8.173  0.7397  0.6265 -0.0388
   37POPC  H14S 4982   5.749   2.626   8.164 -0.6844  2.3492 -0.5050
   37POPC  C215 4983   5.859   2.796   8.234 -0.0582  1.0239  0.2135
   37POPC  H15R 4984   5.819   2.756   8.330  0.3984  0.6967  0.2716
   37POPC  H15S 4985   5.791   2.877   8.201  1.1941  2.0489  0.0704
   37POPC  C216 4986   6.010   2.828   8.240  0.3553 -0.9596 -0.5630
   37POPC  H16R 4987   6.046   2.881   8.149  0.0739  0.4873  0.1265
   37POPC  H16S 4988   6.059   2.729   8.249  2.2390 -0.1185 -1.0602
   37POPC  C217 4989   6.038   2.914   8.368 -0.1063 -0.2125  0.6062
   37POPC  H17R 4990   6.148   2.927   8.382 -0.1050 -0.6392  1.0474
   37POPC  H17S 4991   6.006   2.865   8.463  0.7660  1.0530  1.6000
   37POPC  C218 4992   5.977   3.048   8.369 -0.7288 -0.1765 -0.1816
   37POPC  H18R 4993   6.004   3.093   8.467 -0.1881 -0.5566 -0.1488
   37POPC  H18S 4994   5.867   3.048   8.353 -0.8671  0.8537  0.6956
   37POPC  H18T 4995   6.024   3.102   8.284  1.5652  0.2595  1.2640
   37POPC   C33 4996   6.223   3.499   7.234  0.3522 -0.3240 -0.7696
   37POPC   H3X 4997   6.334   3.498   7.249  0.0882 -1.2833  1.6903
   37POPC   H3Y 4998   6.202   3.403   7.183 -1.9843  0.5623 -1.5854
   37POPC   C34 4999   6.166   3.500   7.374 -0.6866 -0.5945  0.1141
   37POPC   H4X 5000   6.196   3.403   7.418 -0.5972 -0.8413 -0.4947
   37POPC   H4Y 5001   6.056   3.515   7.373 -0.4625  1.8477 -2.7227
   37POPC   C35 5002   6.219   3.614   7.466 -0.2950 -0.2795  0.4941
   37POPC   H5X 5003   6.209   3.713   7.414 -1.0959 -0.3687  0.4638
   37POPC   H5Y 5004   6.328   3.597   7.472  0.2214  1.5866 -1.8497
   37POPC   C36 5005   6.157   3.613   7.606  0.4242  0.5693 -0.1258
   37POPC   H6X 5006   6.146   3.512   7.649 -3.1959  0.3477 -1.2266
   37POPC   H6Y 5007   6.054   3.652   7.587  0.6923  1.6304  0.4849
   37POPC   C37 5008   6.232   3.712   7.699  1.1626  0.1381 -0.5699
   37POPC   H7X 5009   6.235   3.817   7.663 -1.0499  1.4206  2.5088
   37POPC   H7Y 5010   6.331   3.663   7.708  0.3632 -1.3751  0.3303
   37POPC   C38 5011   6.170   3.719   7.846 -0.0423 -0.4921 -0.9694
   37POPC   H8X 5012   6.060   3.712   7.833 -0.1275  0.6719 -0.9586
   37POPC   H8Y 5013   6.181   3.819   7.893 -0.9859 -0.7183 -0.2366
   37POPC   C39 5014   6.213   3.606   7.940 -0.0694  0.5630  0.0670
   37POPC   H9X 5015   6.323   3.602   7.921 -0.2890 -1.0064 -1.0642
   37POPC   H9Y 5016   6.165   3.510   7.912  0.9958  0.0190  0.0468
   37POPC  C310 5017   6.199   3.639   8.089  1.0167 -0.1176  0.2140
   37POPC  H10X 5018   6.092   3.656   8.116  0.7440 -0.0782 -0.8692
   37POPC  H10Y 5019   6.249   3.737   8.102  1.7404 -0.6811  2.0565
   37POPC  C311 5020   6.256   3.533   8.188  0.4080  0.0218 -0.1350
   37POPC  H11X 5021   6.361   3.518   8.156  0.5225 -1.0383  0.6649
   37POPC  H11Y 5022   6.208   3.433   8.181  2.1917 -0.9221  0.3667
   37POPC  C312 5023   6.279   3.576   8.335 -0.1812  0.4760 -0.2228
   37POPC  H12X 5024   6.310   3.486   8.393  2.3408  0.9124 -0.7823
   37POPC  H12Y 5025   6.182   3.616   8.374  0.0662  1.1079 -0.2393
   37POPC  C313 5026   6.396   3.678   8.354  0.5559 -0.0863 -0.4857
   37POPC  H13X 5027   6.368   3.774   8.306  0.0102  0.6095  1.1394
   37POPC  H13Y 5028   6.490   3.642   8.308  1.0819 -0.1294  0.5911
   37POPC  C314 5029   6.422   3.711   8.504 -0.2607 -0.1967 -0.1549
   37POPC  H14X 5030   6.460   3.627   8.566  2.0823 -1.1805 -2.7022
   37POPC  H14Y 5031   6.333   3.760   8.547  0.9964  2.2313 -0.1219
   37POPC  C315 5032   6.542   3.809   8.524  0.3586  0.7191  0.2139
   37POPC  H15X 5033   6.545   3.840   8.631  0.4609  2.1278 -0.1830
   37POPC  H15Y 5034   6.532   3.907   8.474  2.8675  1.4584  1.0064
   37POPC  C316 5035   6.679   3.758   8.488 -0.5139  0.7257 -0.2403
   37POPC  H16X 5036   6.707   3.676   8.558  0.8659  0.3944 -1.1201
   37POPC  H16Y 5037   6.763   3.830   8.497 -0.0057  0.0065  1.1171
   37POPC  H16Z 5038   6.689   3.714   8.386 -0.0883 -0.9018  0.4757
   38POPC     N 5039   0.174   0.453   5.929 -0.0294  0.5508 -0.2696
   38POPC   C12 5040   0.259   0.398   6.045  0.8942  0.1480 -0.2667
   38POPC  H12A 5041   0.313   0.312   6.008  3.9084  0.3702  3.0492
   38POPC  H12B 5042   0.188   0.356   6.116 -2.2793  0.8272 -2.7915
   38POPC   C13 5043   0.261   0.508   5.820  0.1044  0.5124 -0.1331
   38POPC  H13A 5044   0.203   0.526   5.731  0.1108  1.0657 -0.0278
   38POPC  H13B 5045   0.313   0.595   5.856  0.3932  1.1001 -1.8612
   38POPC  H13C 5046   0.337   0.434   5.797 -2.8283 -2.0696 -2.5328
   38POPC   C14 5047   0.089   0.343   5.871  0.3276  0.1087 -0.7240
   38POPC  H14A 5048   0.155   0.273   5.822  1.9328  0.3185  1.0393
   38POPC  H14B 5049   0.042   0.291   5.953  1.2384  2.0227  1.0971
   38POPC  H14C 5050   0.015   0.378   5.800  0.0598  1.8759  0.3827
   38POPC   C15 5051   0.075   0.552   5.975 -0.6783  0.0071  0.1524
   38POPC  H15A 5052   0.014   0.520   6.058 -0.4098 -0.5481  0.1440
   38POPC  H15B 5053   0.009   0.586   5.897  0.3566 -0.3643 -0.9203
   38POPC  H15C 5054   0.124   0.634   6.025 -0.3470 -0.3399  0.4113
   38POPC   C11 5055   0.353   0.482   6.130 -0.0804 -0.5231  0.2954
   38POPC  H11A 5056   0.416   0.549   6.067  1.3579 -1.9667  0.1332
   38POPC  H11B 5057   0.427   0.415   6.179  1.7117  1.1013 -0.0398
   38POPC     P 5058   0.236   0.502   6.353  0.0534 -0.1376  0.4401
   38POPC   O13 5059   0.168   0.368   6.322  0.1650  0.0338 -0.0561
   38POPC   O14 5060   0.145   0.601   6.411 -0.0464  0.0993  0.7581
   38POPC   O12 5061   0.292   0.568   6.225 -0.2693  0.0019  0.7695
   38POPC   O11 5062   0.359   0.475   6.443 -0.4280  0.0349 -0.9754
   38POPC    C1 5063   0.448   0.581   6.466  0.5590  0.5410 -0.2838
   38POPC    HA 5064   0.424   0.664   6.537  1.6179  0.5475  0.0843
   38POPC    HB 5065   0.467   0.636   6.372  1.5437 -0.1361 -0.4851
   38POPC    C2 5066   0.584   0.522   6.494 -0.9009 -0.8239 -0.5586
   38POPC    HS 5067   0.621   0.438   6.431  0.5907 -2.4519  2.2434
   38POPC   O21 5068   0.597   0.478   6.629  0.8494  0.0062 -0.1170
   38POPC   C21 5069   0.690   0.381   6.654  0.1170 -0.5069  0.1515
   38POPC   O22 5070   0.775   0.333   6.579  0.2948 -0.0275 -0.2788
   38POPC   C22 5071   0.678   0.343   6.799  0.3946 -0.2592 -0.1305
   38POPC   H2R 5072   0.722   0.423   6.861 -0.6078 -0.1105  0.4137
   38POPC   H2S 5073   0.742   0.252   6.807  1.1887  0.3595  0.6396
   38POPC    C3 5074   0.698   0.631   6.478 -0.2251 -0.1504 -0.1844
   38POPC    HX 5075   0.718   0.657   6.372  4.8503 -0.1064  0.5579
   38POPC    HY 5076   0.797   0.595   6.514  0.0421  1.7181  1.1302
   38POPC   O31 5077   0.678   0.748   6.553 -0.1863  0.2598 -0.1418
   38POPC   C31 5078   0.723   0.749   6.679  0.9193  0.3381 -0.0414
   38POPC   O32 5079   0.793   0.667   6.731 -0.0131  0.1941 -0.5736
   38POPC   C32 5080   0.652   0.860   6.761  0.4170  0.2892 -0.1065
   38POPC   H2X 5081   0.627   0.949   6.700 -1.5348 -0.3395 -0.2662
   38POPC   H2Y 5082   0.730   0.883   6.837  0.2864 -1.1172  0.4799
   38POPC   C23 5083   0.523   0.331   6.851  0.3836  0.0373  0.4019
   38POPC   H3R 5084   0.464   0.273   6.778 -0.2845 -1.2857  1.9187
   38POPC   H3S 5085   0.487   0.436   6.858 -0.3581 -0.2856  1.8780
   38POPC   C24 5086   0.526   0.267   6.996  0.2561  0.0712 -0.5830
   38POPC   H4R 5087   0.581   0.334   7.065 -2.0379  1.2078  0.2598
   38POPC   H4S 5088   0.569   0.165   6.990  0.6426  0.1984 -0.0215
   38POPC   C25 5089   0.392   0.272   7.065  0.2142  0.0934 -0.0461
   38POPC   H5R 5090   0.317   0.213   7.010  2.3936 -2.4431 -0.5154
   38POPC   H5S 5091   0.365   0.380   7.071 -3.2234 -0.6156 -1.0456
   38POPC   C26 5092   0.398   0.196   7.191 -0.0600  0.5492 -0.4376
   38POPC   H6R 5093   0.485   0.225   7.255 -0.3446  0.3154  0.0606
   38POPC   H6S 5094   0.422   0.090   7.166 -1.8121 -0.2061  0.9147
   38POPC   C27 5095   0.265   0.194   7.268  0.0610 -0.2923 -0.2589
   38POPC   H7R 5096   0.196   0.139   7.201 -0.3483 -0.1764  0.0623
   38POPC   H7S 5097   0.226   0.297   7.281  1.2466 -0.0515  1.9012
   38POPC   C28 5098   0.278   0.119   7.404  0.0571  0.0135  0.8075
   38POPC   H8R 5099   0.321   0.018   7.390  0.3289  0.3267 -0.8483
   38POPC   H8S 5100   0.171   0.107   7.433 -0.3259  1.3812  0.0699
   38POPC   C29 5101   0.342   0.196   7.516 -0.0720 -0.0483  0.5570
   38POPC   H91 5102   0.303   0.299   7.521 -0.2428  0.1941 -3.1398
   38POPC  C210 5103   0.431   0.149   7.603 -0.4506 -0.5311 -0.4877
   38POPC  H101 5104   0.479   0.221   7.672  0.0129 -0.2329 -1.1135
   38POPC  C211 5105   0.498   0.012   7.618  0.2899 -0.3841 -0.2073
   38POPC  H11R 5106   0.600   0.034   7.581  0.9896  0.7526  2.1928
   38POPC  H11S 5107   0.434  -0.061   7.564  0.6951 -0.3784 -0.6961
   38POPC  C212 5108   0.502  -0.045   7.762  0.3004 -0.1231  0.3120
   38POPC  H12R 5109   0.518  -0.154   7.744 -0.1683 -0.4587  1.7872
   38POPC  H12S 5110   0.407  -0.028   7.817 -0.4526  0.3063 -1.0516
   38POPC  C213 5111   0.620   0.018   7.830 -0.2336  0.7483  1.0962
   38POPC  H13R 5112   0.601   0.127   7.835  0.7901  0.9306  1.1530
   38POPC  H13S 5113   0.714   0.010   7.771 -0.4158 -2.1540  1.0611
   38POPC  C214 5114   0.643  -0.033   7.970 -0.1535 -0.1766 -0.2274
   38POPC  H14R 5115   0.641  -0.143   7.957 -1.3224 -0.2970  0.7504
   38POPC  H14S 5116   0.564  -0.003   8.043  0.9356  2.4028 -0.0016
   38POPC  C215 5117   0.780   0.004   8.039 -0.5742 -0.0410  1.2066
   38POPC  H15R 5118   0.789   0.114   8.048  1.0083 -0.0434  0.1422
   38POPC  H15S 5119   0.862  -0.036   7.975  2.0914 -0.1009  4.4016
   38POPC  C216 5120   0.790  -0.068   8.175  0.0919 -0.4980 -0.4410
   38POPC  H16R 5121   0.721  -0.024   8.250 -0.0142 -1.4152  0.0036
   38POPC  H16S 5122   0.896  -0.056   8.207  0.8260 -1.3475 -2.4057
   38POPC  C217 5123   0.768  -0.217   8.177  0.0417  0.3374 -0.1631
   38POPC  H17R 5124   0.826  -0.275   8.102 -0.3888 -1.3912  0.7728
   38POPC  H17S 5125   0.661  -0.247   8.167  0.2741 -1.1561  1.3416
   38POPC  C218 5126   0.818  -0.285   8.306  0.0079 -0.0732  0.3348
   38POPC  H18R 5127   0.913  -0.231   8.331  0.1233 -0.3887  0.5784
   38POPC  H18S 5128   0.840  -0.393   8.295  0.1579  0.0393 -0.5789
   38POPC  H18T 5129   0.750  -0.279   8.394  1.8535  0.1769  1.8272
   38POPC   C33 5130   0.519   0.827   6.827  0.2431  0.1148  0.5466
   38POPC   H3X 5131   0.453   0.795   6.743  1.0560  1.6297 -0.7353
   38POPC   H3Y 5132   0.468   0.923   6.851 -0.7577  0.6187 -2.9815
   38POPC   C34 5133   0.537   0.733   6.944 -0.1915 -0.4968  0.0392
   38POPC   H4X 5134   0.609   0.780   7.015 -2.2378 -0.5222  2.2644
   38POPC   H4Y 5135   0.563   0.630   6.912 -1.0252 -0.6265 -0.2524
   38POPC   C35 5136   0.416   0.723   7.037  0.2277 -0.8655  0.1226
   38POPC   H5X 5137   0.348   0.641   7.004  1.3328 -2.0936  0.8248
   38POPC   H5Y 5138   0.361   0.819   7.052  1.5451  0.0610 -0.7465
   38POPC   C36 5139   0.457   0.676   7.178 -0.1496  0.5740 -0.1194
   38POPC   H6X 5140   0.518   0.746   7.237  1.3469 -1.3133  0.6769
   38POPC   H6Y 5141   0.515   0.581   7.175 -0.2779  0.5070 -0.5123
   38POPC   C37 5142   0.339   0.650   7.271  0.0588  0.2638  0.7008
   38POPC   H7X 5143   0.259   0.602   7.210 -1.2113  0.5121  2.1206
   38POPC   H7Y 5144   0.307   0.751   7.304  0.5275  1.0369 -1.0873
   38POPC   C38 5145   0.375   0.561   7.393 -0.0465  0.3577 -0.7629
   38POPC   H8X 5146   0.420   0.461   7.376  0.2729  0.3878 -0.1362
   38POPC   H8Y 5147   0.276   0.545   7.441 -0.1244  2.8174  0.0615
   38POPC   C39 5148   0.469   0.618   7.496 -0.7049 -0.4266  0.1358
   38POPC   H9X 5149   0.438   0.725   7.498 -1.4154 -0.3885 -3.8305
   38POPC   H9Y 5150   0.578   0.609   7.479 -0.4083 -2.0791  2.4675
   38POPC  C310 5151   0.459   0.554   7.637  0.3308 -0.3067  0.3116
   38POPC  H10X 5152   0.438   0.446   7.621  2.0268 -0.5562 -0.3813
   38POPC  H10Y 5153   0.369   0.596   7.686  0.1651 -0.4545  0.1371
   38POPC  C311 5154   0.585   0.575   7.709 -0.6920  0.6760  0.4874
   38POPC  H11X 5155   0.609   0.682   7.723 -2.0401  1.0340  0.1300
   38POPC  H11Y 5156   0.667   0.532   7.647 -0.9483  1.9506 -0.7939
   38POPC  C312 5157   0.592   0.491   7.836  0.3500  0.0237 -0.0846
   38POPC  H12X 5158   0.700   0.498   7.861  0.2989  0.7969 -0.0487
   38POPC  H12Y 5159   0.565   0.386   7.811 -2.3677  0.7686 -0.5475
   38POPC  C313 5160   0.498   0.536   7.953  0.2530  0.1843 -0.3305
   38POPC  H13X 5161   0.389   0.533   7.935  0.4562 -0.3326 -1.5650
   38POPC  H13Y 5162   0.518   0.645   7.961 -1.5329  0.7019 -2.1479
   38POPC  C314 5163   0.526   0.461   8.086  0.6901 -0.1336 -0.0225
   38POPC  H14X 5164   0.522   0.352   8.070  1.9740 -0.0191 -1.3508
   38POPC  H14Y 5165   0.444   0.492   8.155  0.8784  1.0684 -0.3040
   38POPC  C315 5166   0.660   0.497   8.151 -0.0434 -0.0422  0.4554
   38POPC  H15X 5167   0.663   0.607   8.166  0.5391  0.2712 -1.5969
   38POPC  H15Y 5168   0.739   0.474   8.076 -0.8641 -0.4239 -0.3169
   38POPC  C316 5169   0.671   0.430   8.289  0.1019  0.0143 -0.0114
   38POPC  H16X 5170   0.758   0.475   8.342 -0.6191  1.1194  0.2748
   38POPC  H16Y 5171   0.683   0.320   8.291 -0.0372  0.0031  2.4643
   38POPC  H16Z 5172   0.581   0.452   8.349 -0.2656  2.1381 -1.2055
   39POPC     N 5173   4.767   4.336   5.816 -0.0797 -0.2720 -0.3612
   39POPC   C12 5174   4.849   4.425   5.911  0.6668 -0.2595 -0.4035
   39POPC  H12A 5175   4.944   4.443   5.863  0.1446 -0.1515 -1.4470
   39POPC  H12B 5176   4.856   4.385   6.011  0.5163 -0.0241 -0.2969
   39POPC   C13 5177   4.628   4.319   5.874  0.5376 -0.1325  0.7485
   39POPC  H13A 5178   4.595   4.421   5.887  2.0154  0.4872 -0.0288
   39POPC  H13B 5179   4.569   4.270   5.799  0.3669  3.5003 -1.7452
   39POPC  H13C 5180   4.622   4.280   5.975 -0.3930  1.3624  1.3021
   39POPC   C14 5181   4.746   4.396   5.686  0.1122  0.1036  0.0208
   39POPC  H14A 5182   4.843   4.411   5.640  0.8164 -1.2015  0.9874
   39POPC  H14B 5183   4.699   4.336   5.610  3.0676 -1.1415 -0.9960
   39POPC  H14C 5184   4.695   4.491   5.692  0.0754  0.3661 -2.9742
   39POPC   C15 5185   4.835   4.198   5.812  0.4720  0.2774  0.0257
   39POPC  H15A 5186   4.933   4.202   5.768  0.3061 -0.6183 -0.4576
   39POPC  H15B 5187   4.774   4.132   5.752  2.3131 -1.0485 -0.4694
   39POPC  H15C 5188   4.828   4.143   5.905  0.8383  0.6243  0.2633
   39POPC   C11 5189   4.800   4.566   5.947 -0.3753 -0.0964  0.7535
   39POPC  H11A 5190   4.786   4.614   5.847  2.5155 -0.6059 -0.0038
   39POPC  H11B 5191   4.884   4.618   5.998  0.4773 -1.1969  0.5040
   39POPC     P 5192   4.659   4.691   6.111  0.1823  0.3135  0.3163
   39POPC   O13 5193   4.524   4.683   6.173  0.0655  0.2415  0.0997
   39POPC   O14 5194   4.687   4.811   6.025  0.8603 -0.5953  0.1830
   39POPC   O12 5195   4.675   4.563   6.017 -0.0376 -0.4369 -0.3186
   39POPC   O11 5196   4.781   4.679   6.208 -0.7397 -0.0473  0.1827
   39POPC    C1 5197   4.810   4.566   6.286  0.0258 -0.7499  0.4104
   39POPC    HA 5198   4.919   4.573   6.306  0.2881  1.6657 -1.5543
   39POPC    HB 5199   4.804   4.470   6.231  2.0629 -0.9197  0.3946
   39POPC    C2 5200   4.731   4.565   6.416  0.6709  0.2597 -0.5445
   39POPC    HS 5201   4.625   4.553   6.386  0.3837 -1.3034  0.9511
   39POPC   O21 5202   4.769   4.688   6.483  0.7064  0.4329  0.0024
   39POPC   C21 5203   4.684   4.726   6.575 -0.5317  0.4988 -0.2190
   39POPC   O22 5204   4.584   4.662   6.612  0.1546 -0.3246  0.4696
   39POPC   C22 5205   4.740   4.853   6.648 -0.2783 -0.6357  0.0817
   39POPC   H2R 5206   4.723   4.935   6.575 -3.4470 -0.4729  0.8537
   39POPC   H2S 5207   4.847   4.838   6.678 -0.3731 -0.3028  0.5993
   39POPC    C3 5208   4.781   4.438   6.490 -0.3235 -0.4147  0.1833
   39POPC    HX 5209   4.879   4.475   6.529 -1.0742  0.6793  1.0954
   39POPC    HY 5210   4.805   4.362   6.413  0.2411 -0.4010  0.3421
   39POPC   O31 5211   4.697   4.388   6.600  0.1690  0.0913  0.5427
   39POPC   C31 5212   4.733   4.401   6.727 -0.6957  0.1204  0.4860
   39POPC   O32 5213   4.837   4.454   6.764  0.0117  0.1097  0.4625
   39POPC   C32 5214   4.643   4.321   6.808  0.8707  0.4687 -0.0834
   39POPC   H2X 5215   4.542   4.351   6.773  0.4631  0.9235  1.4274
   39POPC   H2Y 5216   4.658   4.215   6.776 -0.0716  0.2319  0.2507
   39POPC   C23 5217   4.660   4.886   6.774 -0.2934  0.1368  0.2402
   39POPC   H3R 5218   4.554   4.899   6.745  0.0024  1.0339 -0.4947
   39POPC   H3S 5219   4.713   4.978   6.808  1.1870 -0.7152  0.3324
   39POPC   C24 5220   4.694   4.784   6.886  0.2080  0.6062  1.3211
   39POPC   H4R 5221   4.804   4.771   6.896  0.2207  0.8581  1.5011
   39POPC   H4S 5222   4.655   4.679   6.886  0.3338  0.5462  2.3496
   39POPC   C25 5223   4.645   4.838   7.022 -0.1480 -0.5784  0.6847
   39POPC   H5R 5224   4.534   4.835   7.019 -0.1467 -0.0921 -0.1522
   39POPC   H5S 5225   4.683   4.942   7.028  4.7691 -2.0033 -1.1260
   39POPC   C26 5226   4.692   4.756   7.141 -0.0873 -0.0614  0.2983
   39POPC   H6R 5227   4.800   4.768   7.162 -0.1082  0.1578  0.2874
   39POPC   H6S 5228   4.681   4.646   7.133  2.9656 -0.4583  0.3862
   39POPC   C27 5229   4.627   4.795   7.280  0.8807  0.2093  0.0250
   39POPC   H7R 5230   4.528   4.745   7.288  1.2780 -0.5078  0.5992
   39POPC   H7S 5231   4.607   4.904   7.282  1.6453  0.3742  2.1407
   39POPC   C28 5232   4.698   4.775   7.414  0.0194 -0.3690 -0.4245
   39POPC   H8R 5233   4.645   4.835   7.491 -0.4805 -1.3463  0.0126
   39POPC   H8S 5234   4.797   4.823   7.398 -0.1188  0.1074  0.1247
   39POPC   C29 5235   4.714   4.625   7.447  0.1012  0.0231 -0.0804
   39POPC   H91 5236   4.801   4.572   7.405  2.1496  1.1713  2.4276
   39POPC  C210 5237   4.638   4.561   7.535  0.1850  0.5267 -0.0341
   39POPC  H101 5238   4.673   4.464   7.576  1.0887  0.2904 -1.2731
   39POPC  C211 5239   4.523   4.615   7.612  0.8363  0.5716 -0.7819
   39POPC  H11R 5240   4.433   4.550   7.610  2.0838 -1.2437 -0.4147
   39POPC  H11S 5241   4.496   4.714   7.568 -1.2365  1.1420  1.5540
   39POPC  C212 5242   4.558   4.628   7.762 -0.2532 -0.2271  0.4675
   39POPC  H12R 5243   4.615   4.533   7.768  1.3778  0.6660 -0.2784
   39POPC  H12S 5244   4.467   4.638   7.824 -1.2707 -1.9006 -0.6862
   39POPC  C213 5245   4.650   4.747   7.794 -0.6163  0.1917  0.2941
   39POPC  H13R 5246   4.600   4.844   7.779  0.5594  0.6587 -0.8767
   39POPC  H13S 5247   4.743   4.738   7.734 -0.9338  0.3030 -0.2172
   39POPC  C214 5248   4.687   4.757   7.938  0.2452 -0.0968  0.5395
   39POPC  H14R 5249   4.758   4.677   7.967 -0.6406 -1.4525 -0.9030
   39POPC  H14S 5250   4.605   4.750   8.012  1.7889 -0.7519  2.2629
   39POPC  C215 5251   4.762   4.885   7.970 -0.8353  0.0573  0.1034
   39POPC  H15R 5252   4.707   4.976   7.940 -1.3037 -0.1765  0.2496
   39POPC  H15S 5253   4.863   4.893   7.924  0.1034  0.6885  2.1544
   39POPC  C216 5254   4.773   4.897   8.120 -0.0771  0.4980 -0.1398
   39POPC  H16R 5255   4.858   4.834   8.155 -2.1800 -2.4080  0.0464
   39POPC  H16S 5256   4.683   4.859   8.172  0.7182  0.1675  1.0513
   39POPC  C217 5257   4.791   5.040   8.169  0.6094 -0.0888  0.3959
   39POPC  H17R 5258   4.700   5.096   8.140  0.3743  0.4320  2.0491
   39POPC  H17S 5259   4.870   5.092   8.110 -0.0554  1.7509  1.0685
   39POPC  C218 5260   4.798   5.067   8.317  0.1851 -0.0739  0.4036
   39POPC  H18R 5261   4.906   5.060   8.342  0.5627 -2.4669 -1.5157
   39POPC  H18S 5262   4.752   4.995   8.388 -1.4846 -0.4547 -0.9937
   39POPC  H18T 5263   4.754   5.167   8.337  1.8618  0.7059  0.3511
   39POPC   C33 5264   4.667   4.340   6.956 -0.0920  0.0890 -0.1411
   39POPC   H3X 5265   4.626   4.438   6.989  1.3117  0.3610  0.8640
   39POPC   H3Y 5266   4.773   4.360   6.983 -0.6859  3.4979  0.1104
   39POPC   C34 5267   4.608   4.228   7.052  0.5252 -0.6185 -0.0788
   39POPC   H4X 5268   4.500   4.226   7.025 -0.0472  2.4210  1.5109
   39POPC   H4Y 5269   4.613   4.260   7.158  0.8760  0.9292 -0.5244
   39POPC   C35 5270   4.690   4.095   7.042  0.5269  0.0608  0.0038
   39POPC   H5X 5271   4.798   4.104   7.066  1.1180  0.5603 -2.5924
   39POPC   H5Y 5272   4.690   4.054   6.939  3.1307 -0.2872  0.0829
   39POPC   C36 5273   4.630   3.984   7.122  0.4252  0.4175  0.0800
   39POPC   H6X 5274   4.537   3.950   7.071  0.3557 -0.0286  0.4900
   39POPC   H6Y 5275   4.600   4.013   7.224 -0.8235  0.4826 -0.2969
   39POPC   C37 5276   4.722   3.864   7.137  0.7866  0.5423  0.2921
   39POPC   H7X 5277   4.795   3.878   7.219  0.9460 -0.2655  0.3039
   39POPC   H7Y 5278   4.770   3.852   7.037  0.0369  0.8060 -0.1110
   39POPC   C38 5279   4.643   3.730   7.169 -0.4071 -0.3456 -0.1344
   39POPC   H8X 5280   4.607   3.688   7.073  0.4197  2.8774 -2.0308
   39POPC   H8Y 5281   4.550   3.746   7.227 -0.4119  0.4534 -0.3529
   39POPC   C39 5282   4.734   3.623   7.235  0.5259  0.0776 -0.4521
   39POPC   H9X 5283   4.781   3.636   7.335  1.7313 -0.6059 -0.8986
   39POPC   H9Y 5284   4.815   3.598   7.163  1.0051  0.6004 -0.0972
   39POPC  C310 5285   4.645   3.486   7.253 -0.4735 -0.0493 -0.2171
   39POPC  H10X 5286   4.703   3.399   7.291  1.5306  1.4887  0.4280
   39POPC  H10Y 5287   4.612   3.461   7.150  0.2502  0.8699 -0.6855
   39POPC  C311 5288   4.522   3.494   7.337 -0.0748 -0.5771  0.1376
   39POPC  H11X 5289   4.474   3.396   7.357  0.6075 -1.2868 -1.5011
   39POPC  H11Y 5290   4.451   3.557   7.279  0.0577  0.3811  0.9770
   39POPC  C312 5291   4.539   3.563   7.468 -0.0919 -0.8978 -0.0949
   39POPC  H12X 5292   4.439   3.569   7.515 -0.4184 -0.5624 -0.8332
   39POPC  H12Y 5293   4.591   3.660   7.453 -0.0751 -0.4508  2.3224
   39POPC  C313 5294   4.627   3.488   7.568  0.3359  0.3838  0.0186
   39POPC  H13X 5295   4.728   3.462   7.530 -0.0824  0.0892 -0.9235
   39POPC  H13Y 5296   4.580   3.388   7.574  0.8983  0.1620  0.9328
   39POPC  C314 5297   4.650   3.562   7.701 -0.7251  0.2295 -0.6531
   39POPC  H14X 5298   4.555   3.591   7.750 -0.4921  1.2621 -0.8014
   39POPC  H14Y 5299   4.708   3.650   7.667 -0.4209  0.2341 -0.1303
   39POPC  C315 5300   4.754   3.492   7.789 -0.0482 -0.5080 -0.1231
   39POPC  H15X 5301   4.847   3.478   7.728  1.3804  2.5039  1.1767
   39POPC  H15Y 5302   4.718   3.389   7.811 -0.3944 -0.7121 -1.5683
   39POPC  C316 5303   4.789   3.564   7.924  0.8251  0.4013  0.0274
   39POPC  H16X 5304   4.700   3.618   7.963 -0.2984 -1.5714  0.3272
   39POPC  H16Y 5305   4.875   3.633   7.914  0.1099  1.4354  0.7032
   39POPC  H16Z 5306   4.802   3.488   8.004  0.6505  2.5438  2.2197
   40POPC     N 5307   3.558   1.288   5.818 -0.4290  0.0610 -0.2001
   40POPC   C12 5308   3.621   1.337   5.947 -0.3076  0.2851 -0.5205
   40POPC  H12A 5309   3.552   1.392   6.010  0.5684  1.3416 -0.4488
   40POPC  H12B 5310   3.708   1.396   5.921  0.2887 -0.2926  0.1093
   40POPC   C13 5311   3.440   1.217   5.858  0.6215 -0.4666  0.1222
   40POPC  H13A 5312   3.379   1.289   5.910 -0.9619 -0.2796 -1.8938
   40POPC  H13B 5313   3.379   1.184   5.775 -0.1282  1.9739 -0.3703
   40POPC  H13C 5314   3.466   1.138   5.926 -0.8786 -1.8561 -0.8531
   40POPC   C14 5315   3.507   1.411   5.752 -0.3818 -0.1537 -0.2830
   40POPC  H14A 5316   3.485   1.375   5.653 -1.1415 -1.1338  0.2308
   40POPC  H14B 5317   3.420   1.462   5.792 -0.5902  0.7366 -1.8207
   40POPC  H14C 5318   3.586   1.485   5.746  2.2742 -2.8905 -2.0394
   40POPC   C15 5319   3.675   1.215   5.752  0.0467 -0.2699 -0.4025
   40POPC  H15A 5320   3.651   1.187   5.651 -3.2888  2.1097 -0.4199
   40POPC  H15B 5321   3.706   1.130   5.812  0.5918  0.0642 -0.1970
   40POPC  H15C 5322   3.760   1.282   5.746 -0.0695 -0.0695  0.1313
   40POPC   C11 5323   3.664   1.227   6.056  0.3453  0.2955  0.0144
   40POPC  H11A 5324   3.728   1.264   6.139 -1.1284  0.7142  1.0087
   40POPC  H11B 5325   3.720   1.143   6.010 -1.4942 -0.6912 -0.5360
   40POPC     P 5326   3.570   1.061   6.229  0.5154 -0.1376  0.0923
   40POPC   O13 5327   3.712   1.068   6.281  0.3198  0.1477  0.3736
   40POPC   O14 5328   3.528   0.940   6.151  0.4720  0.7666 -0.3150
   40POPC   O12 5329   3.547   1.178   6.120 -0.2196 -0.9475  0.3632
   40POPC   O11 5330   3.467   1.096   6.348 -0.1677  0.2052 -0.1302
   40POPC    C1 5331   3.495   1.198   6.449 -0.1252 -0.2705 -0.1885
   40POPC    HA 5332   3.403   1.248   6.485  1.6266  2.1871  1.1610
   40POPC    HB 5333   3.564   1.277   6.414 -1.3431  0.4552 -1.0297
   40POPC    C2 5334   3.550   1.136   6.575 -0.0005  0.2153 -0.1515
   40POPC    HS 5335   3.635   1.068   6.553 -2.6458 -4.0189  1.4092
   40POPC   O21 5336   3.441   1.064   6.637  0.1301 -0.7249  0.2541
   40POPC   C21 5337   3.481   0.950   6.701  0.5144  0.2094 -0.4215
   40POPC   O22 5338   3.585   0.891   6.679  1.1207 -0.1096 -0.2358
   40POPC   C22 5339   3.371   0.909   6.800 -1.0680 -0.3101 -0.1005
   40POPC   H2R 5340   3.290   0.859   6.742 -1.9540  1.0171 -0.0478
   40POPC   H2S 5341   3.331   1.004   6.840 -0.4325  1.0358 -2.4395
   40POPC    C3 5342   3.605   1.244   6.672  0.5461 -0.5124  0.2208
   40POPC    HX 5343   3.523   1.320   6.672  0.9684 -0.0152 -1.1164
   40POPC    HY 5344   3.692   1.284   6.616 -0.3324  1.7391  0.3702
   40POPC   O31 5345   3.635   1.192   6.800  0.2167 -0.0478 -0.3547
   40POPC   C31 5346   3.689   1.287   6.883  0.4117 -0.1342  0.8274
   40POPC   O32 5347   3.684   1.406   6.867  0.0493  0.1640 -0.1770
   40POPC   C32 5348   3.752   1.223   7.003  0.1459  0.5255 -0.1050
   40POPC   H2X 5349   3.858   1.198   6.980  0.4474  0.7017  1.0107
   40POPC   H2Y 5350   3.701   1.129   7.032  1.8402  0.5531  3.5114
   40POPC   C23 5351   3.421   0.837   6.916 -0.5404  0.2449 -0.2343
   40POPC   H3R 5352   3.484   0.749   6.890 -1.9241 -0.3185 -1.8772
   40POPC   H3S 5353   3.331   0.797   6.967 -1.0747 -1.9528 -2.6855
   40POPC   C24 5354   3.497   0.918   7.013 -0.9475  0.0041  0.0222
   40POPC   H4R 5355   3.432   1.004   7.040 -0.7937  0.0281  0.3113
   40POPC   H4S 5356   3.584   0.967   6.966 -0.9580  0.4601  0.4740
   40POPC   C25 5357   3.546   0.841   7.137  0.2352  0.1634 -0.8795
   40POPC   H5R 5358   3.459   0.795   7.190  1.3176 -1.4686 -0.4310
   40POPC   H5S 5359   3.599   0.910   7.205 -1.2786 -0.3171  0.8695
   40POPC   C26 5360   3.653   0.729   7.118 -0.3178  0.2771  0.0707
   40POPC   H6R 5361   3.647   0.690   7.015  1.2984  0.7791 -0.2405
   40POPC   H6S 5362   3.626   0.648   7.190 -1.0914  1.1815  0.8265
   40POPC   C27 5363   3.793   0.774   7.150 -0.3860 -0.2749  0.1381
   40POPC   H7R 5364   3.789   0.802   7.258 -1.3905  0.2319 -0.0189
   40POPC   H7S 5365   3.806   0.861   7.083  0.4605 -1.8209 -1.8001
   40POPC   C28 5366   3.894   0.669   7.116  0.0357 -0.8253 -0.1073
   40POPC   H8R 5367   3.984   0.731   7.135 -1.8285  1.9250  0.3864
   40POPC   H8S 5368   3.890   0.636   7.010  2.2475 -0.1078 -0.4595
   40POPC   C29 5369   3.884   0.549   7.196 -0.0024  0.5417  0.0343
   40POPC   H91 5370   3.824   0.464   7.158 -0.1070 -1.3792  4.0062
   40POPC  C210 5371   3.935   0.535   7.319 -0.2023 -0.0093  0.1735
   40POPC  H101 5372   3.918   0.440   7.371 -4.9172  0.2673 -0.4218
   40POPC  C211 5373   4.007   0.633   7.401 -0.2981  0.1949  0.1597
   40POPC  H11R 5374   4.043   0.714   7.334  0.9632 -1.2909 -1.0465
   40POPC  H11S 5375   4.091   0.572   7.440 -0.5501 -1.2826 -1.4538
   40POPC  C212 5376   3.914   0.696   7.506  0.0320  0.2240  0.4319
   40POPC  H12R 5377   3.827   0.739   7.452 -0.7969  0.8172  2.1684
   40POPC  H12S 5378   3.970   0.775   7.561 -4.1654  1.4552  3.4794
   40POPC  C213 5379   3.862   0.602   7.618 -0.6847  0.4814 -0.3179
   40POPC  H13R 5380   3.954   0.562   7.666  0.3361 -2.8794 -4.4754
   40POPC  H13S 5381   3.804   0.513   7.583 -0.2161  0.6264 -1.4797
   40POPC  C214 5382   3.780   0.679   7.721  0.5226 -0.3372 -0.7908
   40POPC  H14R 5383   3.673   0.680   7.690 -0.3128  0.3451  1.8363
   40POPC  H14S 5384   3.810   0.786   7.729  0.6894 -0.4821  0.9057
   40POPC  C215 5385   3.792   0.619   7.862 -0.0511 -0.1202  0.0678
   40POPC  H15R 5386   3.899   0.618   7.891  0.2279 -1.8377 -0.9277
   40POPC  H15S 5387   3.763   0.512   7.860 -0.9199  0.1138 -0.4529
   40POPC  C216 5388   3.735   0.709   7.976 -0.8135 -0.1387 -0.0571
   40POPC  H16R 5389   3.625   0.722   7.965 -1.6684 -3.9596  2.1965
   40POPC  H16S 5390   3.778   0.809   7.955  2.5401 -1.6296 -0.8144
   40POPC  C217 5391   3.775   0.661   8.113  0.5288  0.6034 -0.1409
   40POPC  H17R 5392   3.744   0.740   8.185 -0.5093 -0.1195  0.2304
   40POPC  H17S 5393   3.886   0.665   8.123  0.3681  1.3904  1.6054
   40POPC  C218 5394   3.725   0.532   8.162 -0.6715  0.3122 -0.0820
   40POPC  H18R 5395   3.739   0.455   8.084 -2.3183  1.5337 -1.6718
   40POPC  H18S 5396   3.618   0.541   8.192 -0.9501 -1.6813 -0.3500
   40POPC  H18T 5397   3.773   0.501   8.258  1.4062  3.8080  0.1755
   40POPC   C33 5398   3.778   1.313   7.121 -0.0253 -0.1330 -0.2370
   40POPC   H3X 5399   3.681   1.358   7.151  1.4667  1.5598  2.4217
   40POPC   H3Y 5400   3.841   1.396   7.083  2.0193 -1.5905 -0.1499
   40POPC   C34 5401   3.845   1.263   7.250  0.6086 -0.0303 -1.1081
   40POPC   H4X 5402   3.847   1.341   7.329 -3.8398  1.1718 -1.9140
   40POPC   H4Y 5403   3.953   1.243   7.233  1.4914  1.5448  1.8866
   40POPC   C35 5404   3.789   1.132   7.307 -0.2600  0.2555 -0.8490
   40POPC   H5X 5405   3.850   1.102   7.395 -0.3495  0.3554 -0.7517
   40POPC   H5Y 5406   3.791   1.052   7.230  2.1321  0.3975 -1.0059
   40POPC   C36 5407   3.646   1.140   7.373 -0.4864  0.2662 -0.0855
   40POPC   H6X 5408   3.582   1.136   7.283  1.0598 -0.6118 -1.2052
   40POPC   H6Y 5409   3.630   1.238   7.424 -2.4932  0.3676 -0.8266
   40POPC   C37 5410   3.619   1.035   7.479 -0.1244  0.2070 -0.0487
   40POPC   H7X 5411   3.662   1.071   7.575  1.9113  2.7780 -1.7742
   40POPC   H7Y 5412   3.662   0.934   7.462 -1.8969 -0.5924  0.0108
   40POPC   C38 5413   3.467   1.010   7.490  0.2734  0.3624 -0.0363
   40POPC   H8X 5414   3.428   0.964   7.397  0.4006 -1.5150  0.8050
   40POPC   H8Y 5415   3.407   1.104   7.488  0.0013  0.1896 -1.9762
   40POPC   C39 5416   3.414   0.919   7.601  0.3678  0.6552 -0.7360
   40POPC   H9X 5417   3.473   0.824   7.609 -1.9453 -0.7331  1.0842
   40POPC   H9Y 5418   3.312   0.892   7.568  0.9375 -1.7811 -0.6825
   40POPC  C310 5419   3.406   0.997   7.737  0.0074  0.3769 -0.3871
   40POPC  H10X 5420   3.332   0.946   7.802  2.7475 -1.7298  1.2811
   40POPC  H10Y 5421   3.363   1.096   7.711 -0.6585  0.1077 -0.3236
   40POPC  C311 5422   3.531   1.009   7.821 -0.2626  0.1951 -0.5084
   40POPC  H11X 5423   3.605   1.081   7.780  2.0752 -1.2926  0.8388
   40POPC  H11Y 5424   3.576   0.913   7.854 -2.6158 -0.6155  0.5510
   40POPC  C312 5425   3.476   1.061   7.958  0.0098 -0.5024 -0.4702
   40POPC  H12X 5426   3.392   0.998   7.995 -1.3556  1.5124  0.0119
   40POPC  H12Y 5427   3.423   1.157   7.942  0.5040 -0.6490 -3.8934
   40POPC  C313 5428   3.592   1.087   8.059  0.1125  0.3532 -0.2638
   40POPC  H13X 5429   3.660   1.160   8.009  1.1312  1.0085  1.9717
   40POPC  H13Y 5430   3.644   0.990   8.069 -0.3054  0.0907 -0.6132
   40POPC  C314 5431   3.542   1.133   8.199 -0.0444 -0.3628  0.5022
   40POPC  H14X 5432   3.481   1.225   8.182 -0.8273 -0.7383  1.2174
   40POPC  H14Y 5433   3.627   1.163   8.265 -1.0859  0.3606  1.5553
   40POPC  C315 5434   3.452   1.035   8.270  0.8731 -0.3169 -0.3160
   40POPC  H15X 5435   3.498   0.933   8.272  0.2747 -0.6768 -2.4146
   40POPC  H15Y 5436   3.350   1.039   8.227  0.9574  1.7823 -0.3996
   40POPC  C316 5437   3.424   1.079   8.412 -0.1305 -0.1798  0.6294
   40POPC  H16X 5438   3.510   1.130   8.461 -0.4489 -2.0448  3.4120
   40POPC  H16Y 5439   3.383   0.994   8.471  0.8666  0.3062  2.0905
   40POPC  H16Z 5440   3.342   1.155   8.412  0.8698  0.9298  1.2639
   41CHL1    C3 5441   2.565   3.311   9.958  0.3452  0.0318  0.0086
   41CHL1    H3 5442   2.541   3.397   9.892 -3.1922 -0.0149  1.0582
   41CHL1    O3 5443   2.505   3.338  10.087  0.4866  0.0858 -0.0325
   41CHL1   H3' 5444   2.516   3.265  10.148 -0.7420 -0.4820 -0.4482
   41CHL1    C4 5445   2.503   3.187   9.892 -0.2466 -0.1663 -0.6994
   41CHL1   H4A 5446   2.522   3.094   9.951 -0.8914 -0.1119 -0.4040
   41CHL1   H4B 5447   2.394   3.208   9.890 -0.8245 -2.4932  1.3397
   41CHL1    C5 5448   2.558   3.177   9.744 -0.4659  0.2523 -0.0570
   41CHL1    C6 5449   2.481   3.183   9.633  0.3803 -0.0674  0.0648
   41CHL1    H6 5450   2.374   3.179   9.655  0.5286  1.6899  1.3504
   41CHL1    C7 5451   2.533   3.185   9.494  0.4880 -0.1023 -0.3406
   41CHL1   H7A 5452   2.492   3.103   9.431 -1.1166  0.1415  0.3299
   41CHL1   H7B 5453   2.507   3.284   9.452 -0.1294 -0.1751 -0.1369
   41CHL1    C8 5454   2.683   3.170   9.474 -0.1880  0.2714  0.1611
   41CHL1    H8 5455   2.714   3.064   9.485  1.7048  0.5239 -2.0607
   41CHL1   C14 5456   2.728   3.218   9.341  0.7700  0.3021  0.8690
   41CHL1   H14 5457   2.705   3.326   9.335  1.2443  0.4086  0.9045
   41CHL1   C15 5458   2.658   3.152   9.212 -0.2704  0.3972 -0.0162
   41CHL1  H15A 5459   2.650   3.042   9.218  0.0002  0.1326 -3.1114
   41CHL1  H15B 5460   2.562   3.208   9.205 -0.1163  0.6257 -0.3705
   41CHL1   C16 5461   2.756   3.184   9.100  0.8378 -0.7162  0.2088
   41CHL1  H16A 5462   2.780   3.097   9.036 -0.3151 -1.2477  0.4614
   41CHL1  H16B 5463   2.702   3.259   9.038  0.3839 -0.1227  1.2844
   41CHL1   C17 5464   2.881   3.245   9.161 -0.0474 -0.3935  0.6229
   41CHL1   H17 5465   2.864   3.354   9.177  0.8484 -0.2874  0.9038
   41CHL1   C13 5466   2.878   3.210   9.313  0.3525 -0.2272  0.1532
   41CHL1   C18 5467   2.924   3.068   9.338 -0.5011 -0.6195 -0.3185
   41CHL1  H18A 5468   3.029   3.058   9.305 -0.4978 -0.4217 -0.3680
   41CHL1  H18B 5469   2.922   3.041   9.445  3.6523  0.8406  0.3089
   41CHL1  H18C 5470   2.858   2.998   9.283 -2.2666  1.0124 -0.3898
   41CHL1   C12 5471   2.945   3.301   9.415 -0.3742  0.8190  0.5173
   41CHL1  H12A 5472   3.053   3.278   9.401 -0.6097 -0.9198  1.2934
   41CHL1  H12B 5473   2.933   3.406   9.383 -0.6461  0.2654 -1.3244
   41CHL1   C11 5474   2.904   3.267   9.558  0.5804 -0.2284 -0.5751
   41CHL1  H11A 5475   2.960   3.187   9.611 -0.0423 -0.7367 -0.6680
   41CHL1  H11B 5476   2.929   3.352   9.625 -2.3207 -0.2893  0.7595
   41CHL1    C9 5477   2.753   3.248   9.584 -0.2537  0.2183  0.2997
   41CHL1    H9 5478   2.707   3.348   9.577 -0.2586  0.1093 -2.2790
   41CHL1   C10 5479   2.713   3.190   9.728 -0.1400  0.7679  0.0377
   41CHL1   C19 5480   2.778   3.049   9.742  0.1123  0.5149 -0.4286
   41CHL1  H19A 5481   2.730   2.976   9.674  0.7928 -0.5154  0.1722
   41CHL1  H19B 5482   2.888   3.054   9.727  0.1401  2.3483  0.0821
   41CHL1  H19C 5483   2.764   3.009   9.845  1.7658 -1.0895 -0.7921
   41CHL1    C1 5484   2.776   3.286   9.831  0.4721  0.8061 -0.4438
   41CHL1   H1A 5485   2.878   3.244   9.848 -0.5280 -0.7104  2.4523
   41CHL1   H1B 5486   2.774   3.390   9.792  0.5294  0.4919 -1.3289
   41CHL1    C2 5487   2.711   3.284   9.971  0.1010 -0.2371  0.5801
   41CHL1   H2A 5488   2.777   3.354  10.028  1.4768 -1.1995  0.2215
   41CHL1   H2B 5489   2.736   3.182  10.007  0.5052 -0.6076 -0.7041
   41CHL1   C20 5490   3.007   3.221   9.071 -0.0307  0.0741  0.2666
   41CHL1   H20 5491   3.046   3.122   9.100  0.2891  0.3611  0.8179
   41CHL1   C21 5492   3.113   3.322   9.124 -0.9562 -0.0213 -0.6363
   41CHL1  H21A 5493   3.087   3.430   9.131 -1.3276 -0.2020  1.5423
   41CHL1  H21B 5494   3.198   3.307   9.054  0.6248 -0.9493  1.3788
   41CHL1  H21C 5495   3.156   3.291   9.221  2.2407 -0.7133 -2.1494
   41CHL1   C22 5496   2.981   3.239   8.921  0.1486  0.6221  0.5721
   41CHL1  H22A 5497   2.903   3.164   8.896  3.1486 -2.3175 -0.7261
   41CHL1  H22B 5498   2.935   3.341   8.917  2.9867  2.0216  1.0531
   41CHL1   C23 5499   3.097   3.218   8.827  0.2794 -0.0846 -0.3337
   41CHL1  H23A 5500   3.151   3.314   8.817  0.3202 -0.0797 -0.0662
   41CHL1  H23B 5501   3.171   3.146   8.866 -0.5162 -0.7753 -0.0655
   41CHL1   C24 5502   3.039   3.190   8.682 -0.7994 -0.0068 -0.1082
   41CHL1  H24A 5503   2.971   3.102   8.687 -2.5403  1.2527 -0.4807
   41CHL1  H24B 5504   2.981   3.281   8.655  1.2936  1.0236 -1.3915
   41CHL1   C25 5505   3.142   3.182   8.576 -0.3907  0.5317  0.5771
   41CHL1   H25 5506   3.184   3.284   8.563 -0.3625  0.6361  1.4325
   41CHL1   C26 5507   3.259   3.084   8.602  0.6883 -0.4408  0.9513
   41CHL1  H26A 5508   3.333   3.117   8.678  1.3508 -1.5775  0.8284
   41CHL1  H26B 5509   3.220   2.984   8.630 -0.0289  0.2370  2.4966
   41CHL1  H26C 5510   3.327   3.076   8.514 -1.4965  1.2217 -0.9930
   41CHL1   C27 5511   3.078   3.132   8.439 -0.8573 -0.1535  0.4849
   41CHL1  H27A 5512   3.007   3.209   8.401  0.1705  0.6589  0.1333
   41CHL1  H27B 5513   3.160   3.122   8.365 -2.6947 -0.5920 -1.5890
   41CHL1  H27C 5514   3.024   3.036   8.446 -1.5744  0.2527  0.6128
   42CHL1    C3 5515   2.011   3.053   9.874  0.7571  0.0362  0.3039
   42CHL1    H3 5516   2.114   3.025   9.846  0.9436 -0.1214  1.1213
   42CHL1    O3 5517   1.996   3.049  10.016  0.0770 -0.5239 -0.0035
   42CHL1   H3' 5518   1.917   3.103  10.031  1.2356  1.4410 -0.6434
   42CHL1    C4 5519   1.999   3.193   9.820  0.3589 -0.4818 -0.0157
   42CHL1   H4A 5520   1.895   3.224   9.843  0.5018 -1.3021  1.8812
   42CHL1   H4B 5521   2.057   3.274   9.868 -1.4739  0.1464  1.2602
   42CHL1    C5 5522   2.013   3.189   9.669  0.0122  0.8072 -0.5167
   42CHL1    C6 5523   2.105   3.259   9.608  0.3064 -0.5681  0.4997
   42CHL1    H6 5524   2.163   3.332   9.667 -1.0595  1.6948 -0.7664
   42CHL1    C7 5525   2.118   3.285   9.462  0.8228 -0.3018  0.4947
   42CHL1   H7A 5526   2.095   3.391   9.437 -2.2695 -1.1467 -0.7070
   42CHL1   H7B 5527   2.215   3.248   9.420  0.9125 -1.4453  1.6455
   42CHL1    C8 5528   2.008   3.213   9.369 -0.2435 -0.1196 -0.9995
   42CHL1    H8 5529   1.916   3.276   9.361 -1.5694 -1.6121  1.3638
   42CHL1   C14 5530   2.076   3.168   9.244  0.2995 -0.0122  0.7259
   42CHL1   H14 5531   2.158   3.097   9.266  1.6672  0.4736 -2.2966
   42CHL1   C15 5532   2.143   3.280   9.157 -0.5242 -0.0622 -0.7783
   42CHL1  H15A 5533   2.092   3.379   9.158  0.8378  0.6986 -2.4980
   42CHL1  H15B 5534   2.239   3.295   9.210 -0.0014  0.1735 -1.7666
   42CHL1   C16 5535   2.164   3.219   9.017 -0.0098  0.4911  0.5894
   42CHL1  H16A 5536   2.132   3.287   8.935 -0.1206 -0.2436  0.0090
   42CHL1  H16B 5537   2.268   3.183   9.001  1.2309  3.7095  0.6424
   42CHL1   C17 5538   2.081   3.084   9.017  0.3193  0.0517  0.2656
   42CHL1   H17 5539   2.139   2.993   9.043 -0.9444 -0.5516  1.0959
   42CHL1   C13 5540   1.983   3.099   9.136 -0.4826  0.6116 -0.0664
   42CHL1   C18 5541   1.869   3.193   9.103 -0.0463  0.0462  0.0080
   42CHL1  H18A 5542   1.800   3.156   9.024  1.7027  0.4163 -1.7680
   42CHL1  H18B 5543   1.800   3.212   9.189  1.3525  0.3444  1.0924
   42CHL1  H18C 5544   1.905   3.291   9.067  0.5621  0.2939  1.2109
   42CHL1   C12 5545   1.931   2.972   9.203  0.0735 -0.4505 -1.0688
   42CHL1  H12A 5546   1.849   2.918   9.150  0.3827 -0.5406 -1.4575
   42CHL1  H12B 5547   2.015   2.901   9.221 -0.5994 -0.7600  1.1728
   42CHL1   C11 5548   1.874   3.003   9.348  0.0620  0.5734 -0.8543
   42CHL1  H11A 5549   1.779   3.058   9.334  0.3129  1.3799  0.4276
   42CHL1  H11B 5550   1.851   2.909   9.404  1.3676  0.0557 -1.1421
   42CHL1    C9 5551   1.962   3.080   9.443  0.3719  0.2963 -0.1156
   42CHL1    H9 5552   2.057   3.023   9.459 -0.4023 -1.3077 -0.9821
   42CHL1   C10 5553   1.915   3.096   9.593 -0.0477 -0.3799  0.4501
   42CHL1   C19 5554   1.773   3.155   9.581  0.0073 -0.6541  0.2309
   42CHL1  H19A 5555   1.708   3.073   9.544  1.0047 -0.5108 -1.9743
   42CHL1  H19B 5556   1.740   3.191   9.681 -0.4249  0.7254 -0.3845
   42CHL1  H19C 5557   1.764   3.240   9.510 -0.6834  1.4176  2.6083
   42CHL1    C1 5558   1.909   2.957   9.659 -0.0241  0.1367 -0.2636
   42CHL1   H1A 5559   1.825   2.899   9.615 -0.3231 -0.1489  0.6696
   42CHL1   H1B 5560   1.998   2.898   9.629 -0.2852 -0.4423  0.0775
   42CHL1    C2 5561   1.898   2.962   9.813 -0.4396  0.8315  0.1364
   42CHL1   H2A 5562   1.904   2.863   9.863  1.0237  1.7062  1.8071
   42CHL1   H2B 5563   1.803   3.007   9.849 -1.3604 -0.6483 -0.3859
   42CHL1   C20 5564   2.022   3.047   8.875  0.0906 -0.0107  0.1860
   42CHL1   H20 5565   1.967   3.136   8.837  1.4010  0.6026 -0.3415
   42CHL1   C21 5566   1.928   2.931   8.882  0.1933  0.6024 -0.3446
   42CHL1  H21A 5567   1.921   2.886   8.781  1.1789 -1.3323  0.4062
   42CHL1  H21B 5568   1.829   2.964   8.923  1.0201  1.7879  0.7961
   42CHL1  H21C 5569   1.972   2.852   8.947 -0.2530 -0.0330 -0.8036
   42CHL1   C22 5570   2.139   3.014   8.775  0.3345 -0.4738  0.7983
   42CHL1  H22A 5571   2.106   3.018   8.668 -0.1808  0.4790  0.9776
   42CHL1  H22B 5572   2.202   3.106   8.779 -1.1753  0.5868  1.1854
   42CHL1   C23 5573   2.224   2.901   8.811  0.8442  1.2216 -0.2381
   42CHL1  H23A 5574   2.310   2.933   8.874 -0.3211  0.7132  1.7029
   42CHL1  H23B 5575   2.164   2.826   8.868 -0.1219  0.6449 -1.9485
   42CHL1   C24 5576   2.279   2.839   8.677 -0.9289  0.8257 -0.9615
   42CHL1  H24A 5577   2.195   2.803   8.614 -0.0253  1.1746 -2.4201
   42CHL1  H24B 5578   2.328   2.918   8.618 -2.0448  0.8835 -1.8407
   42CHL1   C25 5579   2.380   2.723   8.705 -0.1228 -0.4635  0.2108
   42CHL1   H25 5580   2.351   2.679   8.803  0.6018 -1.1562  0.1228
   42CHL1   C26 5581   2.378   2.619   8.588 -0.3324  0.7844  0.5252
   42CHL1  H26A 5582   2.382   2.670   8.490 -1.4375 -1.6821 -0.9032
   42CHL1  H26B 5583   2.472   2.559   8.598 -0.6189  0.0868 -0.7599
   42CHL1  H26C 5584   2.302   2.541   8.605 -1.1848  1.5872  0.4543
   42CHL1   C27 5585   2.526   2.769   8.726 -0.1071 -0.4178 -0.7070
   42CHL1  H27A 5586   2.566   2.826   8.638 -0.5070  0.0541 -0.5900
   42CHL1  H27B 5587   2.524   2.838   8.813 -1.5467 -1.1765 -0.1106
   42CHL1  H27C 5588   2.589   2.683   8.755  0.0417  0.2461  1.0644
   43CHL1    C3 5589   2.345   3.673   9.960 -0.6303  0.2085  0.9617
   43CHL1    H3 5590   2.376   3.567   9.973 -0.6370  0.2482  1.3077
   43CHL1    O3 5591   2.309   3.733  10.084 -0.3784 -0.5472 -0.2363
   43CHL1   H3' 5592   2.224   3.697  10.112 -1.0591  1.9044  1.1294
   43CHL1    C4 5593   2.465   3.748   9.906  0.2186  1.1125  0.1960
   43CHL1   H4A 5594   2.426   3.851   9.899 -0.6796  0.6577 -3.1864
   43CHL1   H4B 5595   2.541   3.748   9.987 -0.2135 -0.0256  0.6250
   43CHL1    C5 5596   2.515   3.714   9.765  0.1392 -0.1710 -0.4484
   43CHL1    C6 5597   2.646   3.691   9.738  0.3531  0.5067  0.5640
   43CHL1    H6 5598   2.713   3.694   9.825  1.4565 -1.2846 -0.1804
   43CHL1    C7 5599   2.704   3.669   9.595 -0.4416  0.3227 -0.2060
   43CHL1   H7A 5600   2.795   3.728   9.575  0.8570 -0.9852  1.5364
   43CHL1   H7B 5601   2.752   3.570   9.578  0.1140  0.5160  0.2224
   43CHL1    C8 5602   2.594   3.691   9.487  0.0749 -0.2561 -0.1384
   43CHL1    H8 5603   2.594   3.801   9.470  1.3141 -0.2855 -0.4062
   43CHL1   C14 5604   2.629   3.622   9.353 -0.2261  0.0461 -0.3915
   43CHL1   H14 5605   2.631   3.515   9.380  0.3090  0.4635  1.3712
   43CHL1   C15 5606   2.768   3.659   9.296 -0.6720  0.5875 -0.2185
   43CHL1  H15A 5607   2.796   3.763   9.324  0.1062  0.0879  0.9299
   43CHL1  H15B 5608   2.831   3.587   9.351 -2.3607 -0.7227  0.0585
   43CHL1   C16 5609   2.755   3.638   9.145 -0.4045  0.1382 -0.2419
   43CHL1  H16A 5610   2.765   3.739   9.100  1.7876  1.0783  2.1242
   43CHL1  H16B 5611   2.839   3.577   9.104  0.8862  1.7333 -0.0623
   43CHL1   C17 5612   2.613   3.569   9.128 -0.3274 -0.5157 -0.5849
   43CHL1   H17 5613   2.631   3.462   9.148  0.5993  0.1796  3.1896
   43CHL1   C13 5614   2.533   3.637   9.238  0.0184  0.2940  0.2122
   43CHL1   C18 5615   2.502   3.783   9.213  0.8759 -0.7519  0.4215
   43CHL1  H18A 5616   2.595   3.844   9.205  1.0735 -0.5768  3.1323
   43CHL1  H18B 5617   2.432   3.809   9.131  0.3622  2.1688  1.6518
   43CHL1  H18C 5618   2.450   3.824   9.303 -0.3954 -1.7926  0.1906
   43CHL1   C12 5619   2.408   3.564   9.286 -0.3404 -0.4507 -0.4685
   43CHL1  H12A 5620   2.332   3.596   9.211  0.2759  1.9310 -0.1452
   43CHL1  H12B 5621   2.435   3.456   9.294 -1.2335 -0.5173  4.2615
   43CHL1   C11 5622   2.356   3.615   9.428  0.6219  0.6726  0.2633
   43CHL1  H11A 5623   2.318   3.718   9.409 -1.1794  0.1088  0.6084
   43CHL1  H11B 5624   2.268   3.553   9.455 -0.2672  1.9586  0.4170
   43CHL1    C9 5625   2.460   3.633   9.540  0.3542  0.7478  0.3107
   43CHL1    H9 5626   2.488   3.528   9.565 -1.1935  0.0830 -0.6301
   43CHL1   C10 5627   2.400   3.694   9.662 -0.8280 -0.4330 -0.0125
   43CHL1   C19 5628   2.363   3.843   9.637 -0.2264  0.0010  0.3425
   43CHL1  H19A 5629   2.348   3.902   9.730 -0.0256 -1.4675  1.3419
   43CHL1  H19B 5630   2.442   3.896   9.580 -0.0674  0.2284  0.7646
   43CHL1  H19C 5631   2.264   3.844   9.587 -0.1735  1.0527  0.2449
   43CHL1    C1 5632   2.272   3.616   9.719 -0.3422 -0.2106 -0.3816
   43CHL1   H1A 5633   2.185   3.612   9.650 -1.6506 -0.7493  1.2079
   43CHL1   H1B 5634   2.307   3.511   9.726 -0.4106 -0.1617  0.9012
   43CHL1    C2 5635   2.227   3.673   9.859  0.4143 -0.0142  0.4126
   43CHL1   H2A 5636   2.152   3.597   9.890 -0.4879 -0.5359 -2.7220
   43CHL1   H2B 5637   2.183   3.774   9.850  0.5490  0.0768  0.7375
   43CHL1   C20 5638   2.567   3.574   8.990  0.2584  0.8176  0.5470
   43CHL1   H20 5639   2.519   3.674   8.976  0.7403  1.2635  1.9252
   43CHL1   C21 5640   2.454   3.466   8.980  0.5280 -0.1798 -0.0897
   43CHL1  H21A 5641   2.499   3.364   8.993 -1.0219 -0.9775 -0.7839
   43CHL1  H21B 5642   2.405   3.467   8.881  0.5412  4.0116 -0.2217
   43CHL1  H21C 5643   2.370   3.474   9.052  1.6172 -0.8099  1.3053
   43CHL1   C22 5644   2.680   3.548   8.886  0.2267  0.2264 -0.0113
   43CHL1  H22A 5645   2.741   3.640   8.884  0.3065  0.2550  1.7787
   43CHL1  H22B 5646   2.745   3.467   8.926  1.8280  0.6303 -1.6539
   43CHL1   C23 5647   2.630   3.513   8.744 -0.4270 -0.0312  0.1022
   43CHL1  H23A 5648   2.588   3.410   8.750 -1.3092  0.3818  1.4229
   43CHL1  H23B 5649   2.554   3.591   8.722  0.2234  1.0361  1.5285
   43CHL1   C24 5650   2.738   3.540   8.637  0.6812 -0.0104 -0.3920
   43CHL1  H24A 5651   2.756   3.649   8.622  1.9094  0.5453  3.8217
   43CHL1  H24B 5652   2.833   3.487   8.660  0.1270 -1.1189 -0.6210
   43CHL1   C25 5653   2.690   3.497   8.492 -0.9443  0.1511  0.4972
   43CHL1   H25 5654   2.780   3.516   8.430 -0.0612  2.0701  2.2587
   43CHL1   C26 5655   2.660   3.350   8.479  0.1537  0.1348  0.2994
   43CHL1  H26A 5656   2.638   3.331   8.372  0.3338  1.6723 -0.0405
   43CHL1  H26B 5657   2.751   3.294   8.510 -1.3596 -2.3686  0.4270
   43CHL1  H26C 5658   2.579   3.317   8.548  1.6547 -2.5215  0.9352
   43CHL1   C27 5659   2.579   3.586   8.430  0.0356  0.0783 -0.2745
   43CHL1  H27A 5660   2.554   3.578   8.322  1.5562  2.3763 -0.8694
   43CHL1  H27B 5661   2.482   3.562   8.478 -0.1165 -0.1164 -0.6822
   43CHL1  H27C 5662   2.602   3.694   8.435 -1.0685  0.6868 -4.5836
   44CHL1    C3 5663   3.582   4.245  10.149 -0.1664  0.5168  0.2409
   44CHL1    H3 5664   3.625   4.347  10.143  0.3955  0.2375 -0.6570
   44CHL1    O3 5665   3.608   4.182  10.274 -0.4826  0.1712  1.3200
   44CHL1   H3' 5666   3.694   4.139  10.263  0.1500  1.0910  2.4386
   44CHL1    C4 5667   3.429   4.265  10.127 -0.1207 -0.1882  0.0588
   44CHL1   H4A 5668   3.393   4.162  10.147 -0.6035 -0.4199 -1.8747
   44CHL1   H4B 5669   3.381   4.333  10.202 -0.5098 -0.3185 -0.0699
   44CHL1    C5 5670   3.399   4.321   9.986 -0.4764  0.1673 -0.1719
   44CHL1    C6 5671   3.331   4.429   9.971  0.5958  0.7616 -0.4745
   44CHL1    H6 5672   3.291   4.487  10.055 -0.6764  0.8958 -1.1459
   44CHL1    C7 5673   3.292   4.469   9.832 -0.1722 -0.4787 -0.7270
   44CHL1   H7A 5674   3.185   4.501   9.825  0.2954  1.2259 -0.5760
   44CHL1   H7B 5675   3.358   4.553   9.800 -1.3053 -0.1539 -2.3614
   44CHL1    C8 5676   3.308   4.364   9.716 -0.9309  0.1850 -0.4479
   44CHL1    H8 5677   3.224   4.293   9.731 -2.3833  1.8087 -0.5156
   44CHL1   C14 5678   3.298   4.429   9.576  0.8326 -0.2017 -0.2445
   44CHL1   H14 5679   3.388   4.492   9.559  1.8823 -1.7252 -0.5379
   44CHL1   C15 5680   3.163   4.505   9.534 -0.5517 -0.8130  0.0236
   44CHL1  H15A 5681   3.066   4.459   9.561 -0.9512  0.8342  1.6396
   44CHL1  H15B 5682   3.177   4.606   9.579  0.5597 -0.2426 -1.4882
   44CHL1   C16 5683   3.175   4.524   9.386  0.8362 -0.0519  0.4759
   44CHL1  H16A 5684   3.080   4.502   9.333  0.1303  0.9125  1.3127
   44CHL1  H16B 5685   3.207   4.625   9.353 -1.4679  0.0366 -1.7960
   44CHL1   C17 5686   3.284   4.424   9.337  0.1761  0.3710  0.6804
   44CHL1   H17 5687   3.379   4.479   9.322 -1.1166  3.7244  3.2084
   44CHL1   C13 5688   3.315   4.332   9.455 -0.4229 -0.3485 -0.3302
   44CHL1   C18 5689   3.217   4.210   9.463  0.1898  0.1364  0.7884
   44CHL1  H18A 5690   3.249   4.129   9.395  1.5348  0.6632  0.7714
   44CHL1  H18B 5691   3.217   4.169   9.567 -0.2583 -1.5811  0.1413
   44CHL1  H18C 5692   3.118   4.237   9.421  0.9277  1.8068  0.0500
   44CHL1   C12 5693   3.458   4.279   9.464 -0.9815  0.1112  0.0898
   44CHL1  H12A 5694   3.479   4.202   9.386  0.1815 -0.6008  1.0774
   44CHL1  H12B 5695   3.528   4.363   9.445  0.3317 -0.9895 -0.0927
   44CHL1   C11 5696   3.487   4.214   9.603 -0.6122  0.0284 -0.4495
   44CHL1  H11A 5697   3.424   4.123   9.598 -2.9663  1.5102  0.6735
   44CHL1  H11B 5698   3.593   4.182   9.614 -1.1193 -1.1345  1.5724
   44CHL1    C9 5699   3.448   4.298   9.731 -0.6516  0.0344  0.0277
   44CHL1    H9 5700   3.512   4.389   9.734  0.5735 -0.8152  0.6034
   44CHL1   C10 5701   3.457   4.234   9.872 -0.0243 -0.3191 -0.0651
   44CHL1   C19 5702   3.377   4.099   9.863 -0.5695 -0.3050 -0.2602
   44CHL1  H19A 5703   3.390   4.041   9.957 -0.7533 -1.6569 -1.0454
   44CHL1  H19B 5704   3.272   4.135   9.863  0.1022  1.7851 -1.3401
   44CHL1  H19C 5705   3.402   4.038   9.774  1.6969 -2.0332  1.4306
   44CHL1    C1 5706   3.608   4.213   9.895 -0.3345  1.0296  1.5621
   44CHL1   H1A 5707   3.649   4.132   9.831  1.2244  0.9776  2.5814
   44CHL1   H1B 5708   3.670   4.303   9.873 -0.7890  1.0809  0.4071
   44CHL1    C2 5709   3.648   4.160  10.035  0.3133 -0.2617  0.5671
   44CHL1   H2A 5710   3.759   4.168  10.045  0.4788 -0.4468 -0.8892
   44CHL1   H2B 5711   3.618   4.053  10.043 -1.2962  0.1520  0.2859
   44CHL1   C20 5712   3.250   4.368   9.204 -0.1153 -0.1464  0.5225
   44CHL1   H20 5713   3.169   4.293   9.215 -0.4369  0.2327  0.7836
   44CHL1   C21 5714   3.361   4.278   9.148  0.0928 -0.1134  0.2240
   44CHL1  H21A 5715   3.457   4.332   9.136  0.2411 -0.5446 -0.5652
   44CHL1  H21B 5716   3.324   4.230   9.055  1.1722 -1.1560  0.3133
   44CHL1  H21C 5717   3.384   4.193   9.215  0.6942 -0.0220  0.1331
   44CHL1   C22 5718   3.210   4.468   9.092 -0.1390 -1.0748  0.2653
   44CHL1  H22A 5719   3.165   4.561   9.134  0.3504  0.2836 -2.0681
   44CHL1  H22B 5720   3.304   4.488   9.037  0.0582 -1.4177  0.4729
   44CHL1   C23 5721   3.110   4.436   8.985  1.2890  0.1064  0.4745
   44CHL1  H23A 5722   3.145   4.350   8.925 -1.0458  0.1973 -1.1700
   44CHL1  H23B 5723   3.011   4.411   9.030  0.3409  1.8117 -0.5641
   44CHL1   C24 5724   3.101   4.540   8.870  0.5223 -0.9867  0.9039
   44CHL1  H24A 5725   3.083   4.639   8.918 -1.8284 -2.1357  2.5828
   44CHL1  H24B 5726   3.197   4.546   8.815 -0.5612 -0.6009 -1.0162
   44CHL1   C25 5727   2.991   4.522   8.763 -0.3139  0.6635  0.1795
   44CHL1   H25 5728   2.891   4.521   8.813  0.0116  0.3758  0.8272
   44CHL1   C26 5729   2.969   4.639   8.674  0.5297 -0.1641 -0.2879
   44CHL1  H26A 5730   3.066   4.657   8.624  1.1609  0.5775  1.1366
   44CHL1  H26B 5731   2.884   4.625   8.604  0.4802 -0.5794 -0.1497
   44CHL1  H26C 5732   2.949   4.730   8.735 -3.1353 -1.0874  0.1144
   44CHL1   C27 5733   3.034   4.392   8.682 -0.2174  1.3792 -0.4467
   44CHL1  H27A 5734   3.132   4.403   8.631  0.3801 -0.3444  0.2428
   44CHL1  H27B 5735   3.032   4.299   8.743  2.4050  0.6451 -1.3340
   44CHL1  H27C 5736   2.961   4.359   8.604 -2.3737  3.8725  0.4063
   45CHL1    C3 5737   0.485   4.070  10.342 -0.0156 -0.4909 -0.5361
   45CHL1    H3 5738   0.387   4.122  10.330  0.5244  0.1946 -2.2834
   45CHL1    O3 5739   0.525   4.076  10.479  0.3203  0.2416 -0.1859
   45CHL1   H3' 5740   0.500   3.989  10.509  0.7693 -0.0477 -0.6402
   45CHL1    C4 5741   0.484   3.927  10.296  0.7148  0.5312  0.3827
   45CHL1   H4A 5742   0.588   3.890  10.302  0.2662 -0.7330  0.6641
   45CHL1   H4B 5743   0.413   3.875  10.364 -1.1401  3.4380  0.8797
   45CHL1    C5 5744   0.449   3.915  10.150  0.3708  0.2727  0.5321
   45CHL1    C6 5745   0.362   3.823  10.107 -0.7567 -0.0372 -0.0516
   45CHL1    H6 5746   0.316   3.763  10.187  0.2800 -0.3854  0.3027
   45CHL1    C7 5747   0.337   3.788   9.964 -0.1657  0.5075  0.0144
   45CHL1   H7A 5748   0.361   3.682   9.941  1.4051  1.0964 -1.2368
   45CHL1   H7B 5749   0.227   3.796   9.945 -0.7449 -1.6501  1.9145
   45CHL1    C8 5750   0.411   3.881   9.862  0.0934  0.2287 -0.2215
   45CHL1    H8 5751   0.329   3.910   9.792  0.5267  0.2751 -0.7084
   45CHL1   C14 5752   0.510   3.804   9.769  0.8181 -0.5749 -0.4055
   45CHL1   H14 5753   0.582   3.758   9.839 -0.4115 -1.5208  0.2700
   45CHL1   C15 5754   0.438   3.687   9.702  0.1996  0.5965  0.4142
   45CHL1  H15A 5755   0.434   3.602   9.773 -0.6963  0.3254  0.0525
   45CHL1  H15B 5756   0.337   3.719   9.670 -0.1610 -2.0355 -1.3651
   45CHL1   C16 5757   0.523   3.672   9.581 -0.3561 -0.0194 -0.5437
   45CHL1  H16A 5758   0.625   3.633   9.601  0.1353  0.9459 -1.0936
   45CHL1  H16B 5759   0.486   3.608   9.498 -1.7069 -0.1393  0.1346
   45CHL1   C17 5760   0.545   3.822   9.537  0.0576 -0.5289  0.3126
   45CHL1   H17 5761   0.440   3.852   9.513  0.4025 -0.1056 -0.7268
   45CHL1   C13 5762   0.579   3.893   9.665  0.9222  0.3059  0.0086
   45CHL1   C18 5763   0.730   3.880   9.690 -0.1600  0.7648 -0.1162
   45CHL1  H18A 5764   0.754   3.772   9.690 -0.2804  0.7314 -0.7723
   45CHL1  H18B 5765   0.779   3.938   9.609  0.0094 -1.1004 -1.4101
   45CHL1  H18C 5766   0.750   3.915   9.793 -0.7344  1.4619 -0.2311
   45CHL1   C12 5767   0.538   4.041   9.670  0.0304 -0.5630  0.3592
   45CHL1  H12A 5768   0.596   4.109   9.603 -1.3132  0.8124  0.5379
   45CHL1  H12B 5769   0.432   4.040   9.639  0.2083 -0.0826 -0.2995
   45CHL1   C11 5770   0.537   4.106   9.808 -0.7342  0.5926 -0.3843
   45CHL1  H11A 5771   0.640   4.133   9.840 -0.6034  0.3717 -0.6125
   45CHL1  H11B 5772   0.484   4.203   9.806  0.9331  1.5389 -3.5285
   45CHL1    C9 5773   0.461   4.020   9.915 -0.3410 -0.0031  0.2505
   45CHL1    H9 5774   0.369   4.080   9.931  0.9275  2.2304 -0.2959
   45CHL1   C10 5775   0.530   4.018  10.048  0.2200 -0.1765  0.3528
   45CHL1   C19 5776   0.674   3.963  10.038  0.2996  0.0041 -0.0612
   45CHL1  H19A 5777   0.700   3.856  10.021  1.5986  0.2685  0.1339
   45CHL1  H19B 5778   0.730   4.008   9.953 -1.3135 -1.0999 -1.7943
   45CHL1  H19C 5779   0.724   3.988  10.134 -2.5896  0.1039  1.5409
   45CHL1    C1 5780   0.531   4.156  10.114 -0.0385  0.2118  0.3554
   45CHL1   H1A 5781   0.596   4.225  10.055 -0.2750  0.1955  0.0721
   45CHL1   H1B 5782   0.431   4.204  10.108 -0.0911  0.1338  0.6137
   45CHL1    C2 5783   0.576   4.159  10.258 -0.2269 -0.2743 -0.2856
   45CHL1   H2A 5784   0.572   4.263  10.297  0.2567 -0.7049  0.9525
   45CHL1   H2B 5785   0.682   4.130  10.271 -0.7148 -1.3610  1.6821
   45CHL1   C20 5786   0.638   3.835   9.415 -0.1507 -0.2025 -0.1160
   45CHL1   H20 5787   0.670   3.941   9.417 -2.2867  0.5635 -1.8150
   45CHL1   C21 5788   0.545   3.822   9.291  0.3267 -0.3489  0.9387
   45CHL1  H21A 5789   0.589   3.858   9.196 -0.2850 -1.1090  0.3515
   45CHL1  H21B 5790   0.455   3.885   9.309  2.6014  2.9779  1.4789
   45CHL1  H21C 5791   0.514   3.716   9.281  2.1254 -0.8578  0.3847
   45CHL1   C22 5792   0.756   3.742   9.393 -0.5824  0.4808 -0.5104
   45CHL1  H22A 5793   0.798   3.719   9.493 -1.0116 -1.5086 -0.7444
   45CHL1  H22B 5794   0.721   3.644   9.352  0.6584  0.9586 -2.8571
   45CHL1   C23 5795   0.861   3.805   9.308 -0.3863  0.7566 -0.3644
   45CHL1  H23A 5796   0.836   3.796   9.200 -1.9520  1.9702 -0.1429
   45CHL1  H23B 5797   0.866   3.913   9.335 -0.0035  0.4807  0.7031
   45CHL1   C24 5798   0.996   3.731   9.319 -0.1154 -0.3166  0.2608
   45CHL1  H24A 5799   0.995   3.706   9.427 -3.6603 -1.2596  0.1342
   45CHL1  H24B 5800   1.009   3.638   9.260  0.3295  0.1803 -0.4428
   45CHL1   C25 5801   1.111   3.832   9.312  0.2374 -0.3102  0.3598
   45CHL1   H25 5802   1.113   3.916   9.385  0.4362 -0.2089  0.2417
   45CHL1   C26 5803   1.243   3.750   9.331  0.8830 -0.0744  0.2123
   45CHL1  H26A 5804   1.235   3.655   9.274  1.7589  0.7471 -1.3109
   45CHL1  H26B 5805   1.332   3.808   9.302  0.1460  0.7227 -0.5168
   45CHL1  H26C 5806   1.257   3.731   9.440 -1.2570  1.1223  0.7552
   45CHL1   C27 5807   1.115   3.894   9.178  0.1176  0.1535  0.6440
   45CHL1  H27A 5808   1.183   3.981   9.165  1.4938 -0.6973  1.7589
   45CHL1  H27B 5809   1.140   3.816   9.103  0.6800 -1.0825  2.0645
   45CHL1  H27C 5810   1.015   3.938   9.160  0.1744  0.2795  0.6370
   46CHL1    C3 5811   2.444   0.626   9.941 -0.1634 -0.1272  0.2733
   46CHL1    H3 5812   2.525   0.550   9.942  0.1325  0.1251 -1.4091
   46CHL1    O3 5813   2.409   0.653  10.073  0.0626 -0.5915 -0.2234
   46CHL1   H3' 5814   2.337   0.717  10.074 -0.5404 -1.2641 -0.0380
   46CHL1    C4 5815   2.499   0.745   9.866  0.5246 -0.4888  0.6066
   46CHL1   H4A 5816   2.421   0.824   9.867  0.4479 -0.5663  0.8132
   46CHL1   H4B 5817   2.589   0.788   9.915  0.3724 -0.1734  0.6151
   46CHL1    C5 5818   2.521   0.721   9.718  1.1360  0.4256 -0.0007
   46CHL1    C6 5819   2.640   0.734   9.662 -0.8747  0.4091  1.1043
   46CHL1    H6 5820   2.717   0.769   9.732 -2.0616  2.1539  1.6151
   46CHL1    C7 5821   2.666   0.728   9.512 -0.3031 -0.3981 -0.2742
   46CHL1   H7A 5822   2.710   0.823   9.476  0.5997 -0.2957  1.0448
   46CHL1   H7B 5823   2.730   0.642   9.484 -0.7511 -0.9478  0.3699
   46CHL1    C8 5824   2.538   0.712   9.425 -0.2912  0.2105  0.1183
   46CHL1    H8 5825   2.487   0.811   9.424 -1.0962 -0.0472  3.5695
   46CHL1   C14 5826   2.574   0.662   9.290 -0.4852 -0.6548 -0.4511
   46CHL1   H14 5827   2.619   0.563   9.311 -2.1656 -1.0054  1.9502
   46CHL1   C15 5828   2.675   0.751   9.214  0.3825  0.7496 -0.5593
   46CHL1  H15A 5829   2.650   0.858   9.230 -0.3717  0.5863 -0.6075
   46CHL1  H15B 5830   2.776   0.735   9.256  0.3639 -1.2644 -1.1608
   46CHL1   C16 5831   2.672   0.703   9.072  0.1199  0.1932  0.4668
   46CHL1  H16A 5832   2.660   0.788   9.001  0.4164 -0.4411 -0.3575
   46CHL1  H16B 5833   2.770   0.652   9.059 -0.1686 -0.0982 -0.6817
   46CHL1   C17 5834   2.549   0.609   9.071 -0.0958  0.1524 -0.8967
   46CHL1   H17 5835   2.592   0.511   9.101 -1.1413  0.2149  0.9591
   46CHL1   C13 5836   2.459   0.637   9.198 -0.6184  0.4147  0.4893
   46CHL1   C18 5837   2.380   0.764   9.162 -0.5477 -0.2223 -0.9802
   46CHL1  H18A 5838   2.330   0.806   9.252 -1.5553  1.9283 -2.4799
   46CHL1  H18B 5839   2.446   0.835   9.109  1.3316 -1.7122 -0.7479
   46CHL1  H18C 5840   2.295   0.739   9.095 -2.8859  2.3445  0.8028
   46CHL1   C12 5841   2.367   0.535   9.258 -0.1285 -0.0542 -0.1750
   46CHL1  H12A 5842   2.278   0.516   9.193 -1.2199 -0.7954  1.4797
   46CHL1  H12B 5843   2.430   0.445   9.272 -1.3774 -0.5473  3.1326
   46CHL1   C11 5844   2.324   0.575   9.403  0.1688  0.2564  0.3480
   46CHL1  H11A 5845   2.255   0.662   9.401  0.5214  0.5300  0.0194
   46CHL1  H11B 5846   2.268   0.487   9.441 -2.9137  2.4203  1.2066
   46CHL1    C9 5847   2.443   0.609   9.495  0.0588  0.4336  0.3124
   46CHL1    H9 5848   2.510   0.521   9.507  2.9385  2.6533  1.8106
   46CHL1   C10 5849   2.398   0.658   9.637 -0.5289  0.5344 -0.5733
   46CHL1   C19 5850   2.274   0.762   9.627 -0.3835  0.4780 -0.2084
   46CHL1  H19A 5851   2.184   0.700   9.603 -1.2398  0.5188  2.5322
   46CHL1  H19B 5852   2.265   0.819   9.722  0.1242 -2.0569  1.4845
   46CHL1  H19C 5853   2.302   0.841   9.554  0.3833  1.3571  1.0018
   46CHL1    C1 5854   2.358   0.536   9.724 -0.0219 -0.7345  0.9773
   46CHL1   H1A 5855   2.261   0.490   9.694 -1.2823  1.4558  1.5139
   46CHL1   H1B 5856   2.443   0.465   9.712  1.3237  1.1628 -1.6675
   46CHL1    C2 5857   2.326   0.565   9.873  0.4501 -0.0997 -0.1400
   46CHL1   H2A 5858   2.270   0.484   9.925 -0.4092  0.0766 -0.7754
   46CHL1   H2B 5859   2.248   0.643   9.881  0.1900 -0.4655  1.2663
   46CHL1   C20 5860   2.480   0.599   8.939  0.3640  0.2668  0.1367
   46CHL1   H20 5861   2.426   0.693   8.913  1.0972  0.0768 -2.2998
   46CHL1   C21 5862   2.373   0.487   8.939 -0.0296 -0.2267  0.0827
   46CHL1  H21A 5863   2.334   0.456   8.839 -1.1427 -0.4960  0.5894
   46CHL1  H21B 5864   2.283   0.516   8.997  1.6039 -0.3486  2.8440
   46CHL1  H21C 5865   2.417   0.393   8.981 -1.1416 -0.7105  0.1949
   46CHL1   C22 5866   2.578   0.567   8.825 -0.0700 -1.0697  0.0565
   46CHL1  H22A 5867   2.663   0.638   8.820  0.0139 -0.8493  2.8511
   46CHL1  H22B 5868   2.602   0.459   8.835  2.1496 -0.5215  1.1366
   46CHL1   C23 5869   2.520   0.572   8.679  0.6692  0.0998  0.0992
   46CHL1  H23A 5870   2.446   0.490   8.687  2.8152 -1.7651  2.4160
   46CHL1  H23B 5871   2.462   0.667   8.681  1.4133  0.5775  2.6709
   46CHL1   C24 5872   2.632   0.548   8.574  0.0433  0.0282  0.2465
   46CHL1  H24A 5873   2.691   0.642   8.573  1.6180 -0.8427  2.5371
   46CHL1  H24B 5874   2.697   0.465   8.608 -0.9001 -2.0054 -2.5687
   46CHL1   C25 5875   2.592   0.501   8.433  0.5536  0.0589  0.6773
   46CHL1   H25 5876   2.550   0.399   8.446 -0.5700 -0.1324 -3.1638
   46CHL1   C26 5877   2.481   0.588   8.364 -0.6692  0.5316  0.3979
   46CHL1  H26A 5878   2.427   0.526   8.289 -1.4079  0.7864  0.7059
   46CHL1  H26B 5879   2.411   0.622   8.443 -1.6962  0.8223 -0.6013
   46CHL1  H26C 5880   2.539   0.668   8.313  2.2507 -1.6496  0.0842
   46CHL1   C27 5881   2.712   0.490   8.333  0.9784  0.4694  0.2369
   46CHL1  H27A 5882   2.731   0.592   8.294 -1.9232  1.4392  1.1410
   46CHL1  H27B 5883   2.804   0.451   8.382 -1.0274 -1.6143  2.6056
   46CHL1  H27C 5884   2.695   0.422   8.246  1.5899 -1.1876  1.3650
   47CHL1    C3 5885   2.850   3.973  10.010 -0.5480 -0.0166 -0.5135
   47CHL1    H3 5886   2.838   3.870   9.971  2.3749 -0.5300 -0.2784
   47CHL1    O3 5887   2.898   3.966  10.148 -0.0374  0.2876 -0.6532
   47CHL1   H3' 5888   2.824   3.994  10.203  1.0825 -0.3873  1.2860
   47CHL1    C4 5889   2.953   4.050   9.931 -0.5664  0.1332  0.1407
   47CHL1   H4A 5890   2.968   4.152   9.974 -1.3996 -0.8326  2.9105
   47CHL1   H4B 5891   3.054   4.004   9.933 -0.5162  0.2606  0.5676
   47CHL1    C5 5892   2.899   4.065   9.788 -0.2429  0.2149  0.4144
   47CHL1    C6 5893   2.965   4.003   9.684 -0.0413  0.5057 -0.5914
   47CHL1    H6 5894   3.067   3.963   9.693 -1.3784 -2.9607  0.5857
   47CHL1    C7 5895   2.909   4.004   9.549  0.6775 -0.1328 -0.5973
   47CHL1   H7A 5896   2.996   4.019   9.482  0.9608  2.4710  0.2309
   47CHL1   H7B 5897   2.859   3.908   9.523  1.3330 -0.1040 -2.0784
   47CHL1    C8 5898   2.820   4.123   9.519  0.3710  0.3247  0.0035
   47CHL1    H8 5899   2.870   4.220   9.538  0.4342 -0.3396  3.9632
   47CHL1   C14 5900   2.753   4.103   9.384 -0.0926 -0.2241 -0.6153
   47CHL1   H14 5901   2.700   4.006   9.377  1.5274 -1.1779 -0.1440
   47CHL1   C15 5902   2.849   4.086   9.274  0.5514  0.3262  0.2763
   47CHL1  H15A 5903   2.933   4.159   9.280  0.0383  0.8436  1.8790
   47CHL1  H15B 5904   2.899   3.987   9.263  2.2385  0.9898  1.4632
   47CHL1   C16 5905   2.765   4.121   9.139  0.4798  0.2369  0.5172
   47CHL1  H16A 5906   2.822   4.201   9.088 -1.3261  1.5466  0.4357
   47CHL1  H16B 5907   2.750   4.031   9.076 -1.8904  0.7713  0.2025
   47CHL1   C17 5908   2.631   4.175   9.195 -0.3464  0.6408 -0.3008
   47CHL1   H17 5909   2.564   4.086   9.194  0.2077  0.1962 -2.5559
   47CHL1   C13 5910   2.653   4.207   9.340  0.0735 -0.4169  0.1160
   47CHL1   C18 5911   2.721   4.344   9.350 -0.0919 -0.1485  0.2531
   47CHL1  H18A 5912   2.744   4.366   9.456 -0.4557 -0.1849  0.3431
   47CHL1  H18B 5913   2.814   4.348   9.290  0.0597  0.8998  0.5402
   47CHL1  H18C 5914   2.647   4.420   9.315 -0.3228 -0.2002  0.6250
   47CHL1   C12 5915   2.540   4.203   9.440  0.5710 -0.3748  0.1514
   47CHL1  H12A 5916   2.459   4.274   9.416 -1.3095 -2.1387  0.9647
   47CHL1  H12B 5917   2.490   4.104   9.442 -0.1335 -0.0256  0.0457
   47CHL1   C11 5918   2.588   4.220   9.584  1.1525  0.1510  0.2796
   47CHL1  H11A 5919   2.610   4.328   9.598 -2.3473  0.6861  3.1455
   47CHL1  H11B 5920   2.500   4.197   9.647 -1.0428 -0.4363 -2.7770
   47CHL1    C9 5921   2.704   4.118   9.621 -0.1567  0.6009 -0.1626
   47CHL1    H9 5922   2.656   4.018   9.618 -0.5326  0.8029 -1.5617
   47CHL1   C10 5923   2.760   4.132   9.768 -0.1631  0.4202 -0.6489
   47CHL1   C19 5924   2.763   4.288   9.802 -0.5715  0.2681 -0.4099
   47CHL1  H19A 5925   2.795   4.305   9.907 -1.9748  0.2635  0.0406
   47CHL1  H19B 5926   2.839   4.333   9.735 -0.2997 -2.7063 -2.2659
   47CHL1  H19C 5927   2.662   4.334   9.796 -1.0125 -0.2402  2.0212
   47CHL1    C1 5928   2.663   4.053   9.864  0.6554 -0.2653 -0.4462
   47CHL1   H1A 5929   2.571   4.115   9.866  1.6061  1.2167  2.0943
   47CHL1   H1B 5930   2.649   3.953   9.816 -0.0348 -0.5214  0.2671
   47CHL1    C2 5931   2.710   4.039  10.010 -0.5926  0.0178  0.6829
   47CHL1   H2A 5932   2.633   3.983  10.067 -1.1903 -0.8603 -0.8972
   47CHL1   H2B 5933   2.707   4.141  10.052 -0.6339 -0.7382  2.6183
   47CHL1   C20 5934   2.568   4.282   9.103 -0.0738  0.2466 -0.1067
   47CHL1   H20 5935   2.630   4.374   9.103 -0.3999  0.5051 -2.4133
   47CHL1   C21 5936   2.422   4.320   9.143 -0.1024 -0.0046  0.0620
   47CHL1  H21A 5937   2.366   4.381   9.069 -0.7505 -0.6971 -0.0308
   47CHL1  H21B 5938   2.426   4.384   9.234  0.1531 -0.2644  0.2325
   47CHL1  H21C 5939   2.362   4.230   9.170 -0.5350  0.4753  0.7498
   47CHL1   C22 5940   2.569   4.230   8.951 -0.0067  0.0374 -0.1234
   47CHL1  H22A 5941   2.531   4.315   8.891 -0.1232  0.1332  0.0854
   47CHL1  H22B 5942   2.676   4.223   8.920  0.7269 -1.2843  2.4063
   47CHL1   C23 5943   2.501   4.098   8.923 -0.1147 -0.1939  0.1085
   47CHL1  H23A 5944   2.545   4.018   8.987  3.1098  1.5183  0.1944
   47CHL1  H23B 5945   2.400   4.112   8.968  0.0778 -1.1401  0.8742
   47CHL1   C24 5946   2.490   4.056   8.775  0.2788  0.1984  0.1688
   47CHL1  H24A 5947   2.428   4.124   8.715 -0.3829 -1.9835 -1.7901
   47CHL1  H24B 5948   2.594   4.055   8.735  0.6706 -1.4068  1.1234
   47CHL1   C25 5949   2.424   3.915   8.758 -0.0107 -0.2100  0.4570
   47CHL1   H25 5950   2.492   3.849   8.815  0.1298 -0.8763 -0.4468
   47CHL1   C26 5951   2.288   3.897   8.814  0.0373 -0.1643  0.3405
   47CHL1  H26A 5952   2.291   3.945   8.914  1.1893  1.2342 -0.3095
   47CHL1  H26B 5953   2.250   3.793   8.823 -0.7448  0.1376  0.5530
   47CHL1  H26C 5954   2.219   3.953   8.747 -1.5035 -1.7672  0.5321
   47CHL1   C27 5955   2.432   3.875   8.609 -0.1044 -0.2742 -0.2394
   47CHL1  H27A 5956   2.537   3.883   8.572 -0.7353  3.8503 -1.6628
   47CHL1  H27B 5957   2.398   3.770   8.601 -0.1053 -0.2625 -0.3767
   47CHL1  H27C 5958   2.378   3.948   8.546  0.3674  3.4241  3.1680
   48CHL1    C3 5959   4.042   4.253   9.944  0.3795  0.0101 -0.5600
   48CHL1    H3 5960   3.954   4.321   9.944 -0.7915 -1.4259  0.5316
   48CHL1    O3 5961   4.059   4.193  10.073  0.2530 -0.3622 -0.1455
   48CHL1   H3' 5962   4.121   4.248  10.120  0.3673  0.2524 -0.9998
   48CHL1    C4 5963   4.007   4.137   9.845  0.1376  0.0779 -0.2481
   48CHL1   H4A 5964   4.083   4.057   9.857 -0.9258 -0.7394  1.3994
   48CHL1   H4B 5965   3.907   4.097   9.872  0.0467  0.4376 -0.0575
   48CHL1    C5 5966   4.017   4.198   9.708  0.6536  0.0843 -0.0979
   48CHL1    C6 5967   3.915   4.182   9.616  0.7043  0.2168 -0.3188
   48CHL1    H6 5968   3.831   4.126   9.660  0.4835  0.0429 -0.9523
   48CHL1    C7 5969   3.913   4.234   9.474 -0.1312 -0.3462  0.1414
   48CHL1   H7A 5970   3.867   4.158   9.408  0.0573 -0.2646 -0.0848
   48CHL1   H7B 5971   3.847   4.324   9.475 -0.4011 -0.5475  0.6608
   48CHL1    C8 5972   4.052   4.270   9.412  0.4221  0.0206 -0.3848
   48CHL1    H8 5973   4.107   4.178   9.384  1.1786  0.2647  0.2373
   48CHL1   C14 5974   4.026   4.364   9.288  0.6253  0.4195 -0.0961
   48CHL1   H14 5975   3.979   4.457   9.325 -1.0122 -0.3034 -0.2504
   48CHL1   C15 5976   3.937   4.312   9.174  0.1009  0.3701  0.4486
   48CHL1  H15A 5977   3.952   4.205   9.147 -1.5205 -0.5731  2.9131
   48CHL1  H15B 5978   3.830   4.329   9.198 -0.3354 -1.3916 -0.0619
   48CHL1   C16 5979   3.983   4.400   9.055  0.2310 -0.8651  0.0471
   48CHL1  H16A 5980   3.988   4.337   8.964 -0.4837 -1.3774  0.3437
   48CHL1  H16B 5981   3.899   4.472   9.045  0.2187 -0.7892  0.6748
   48CHL1   C17 5982   4.116   4.464   9.090 -0.0755 -0.1709  0.2565
   48CHL1   H17 5983   4.079   4.566   9.116 -2.7092 -0.5281 -1.6216
   48CHL1   C13 5984   4.158   4.400   9.221  0.0571  0.2373 -0.2092
   48CHL1   C18 5985   4.246   4.281   9.186 -0.3261 -0.0758 -0.2277
   48CHL1  H18A 5986   4.336   4.317   9.133  0.3171  0.1234  0.9650
   48CHL1  H18B 5987   4.283   4.226   9.276  0.3607 -1.4641 -1.3297
   48CHL1  H18C 5988   4.191   4.206   9.125  0.6241  0.7496 -2.1777
   48CHL1   C12 5989   4.230   4.487   9.331  0.7222 -0.4429 -0.6662
   48CHL1  H12A 5990   4.325   4.522   9.284  2.9523  0.1812  3.7925
   48CHL1  H12B 5991   4.155   4.565   9.352  0.2437 -1.1281  0.2666
   48CHL1   C11 5992   4.261   4.420   9.458  0.0722  0.4321 -0.1145
   48CHL1  H11A 5993   4.336   4.338   9.452  0.3959  0.6447  0.8270
   48CHL1  H11B 5994   4.290   4.491   9.539  0.1745 -1.9751  2.1188
   48CHL1    C9 5995   4.130   4.347   9.516  0.2293  0.0688 -0.0241
   48CHL1    H9 5996   4.062   4.433   9.532 -1.2624 -1.1943  0.6419
   48CHL1   C10 5997   4.141   4.279   9.659 -0.4490  0.4388  0.4385
   48CHL1   C19 5998   4.263   4.182   9.652 -0.3979 -0.2569 -0.2677
   48CHL1  H19A 5999   4.274   4.113   9.739 -0.5741 -0.2359 -0.2280
   48CHL1  H19B 6000   4.265   4.127   9.555  1.0873 -1.8361  0.6013
   48CHL1  H19C 6001   4.353   4.246   9.650 -1.4202  1.2097 -2.2155
   48CHL1    C1 6002   4.162   4.385   9.767  0.5038  0.1666 -0.2629
   48CHL1   H1A 6003   4.248   4.445   9.732 -0.6265  2.2499  0.3693
   48CHL1   H1B 6004   4.076   4.456   9.768  0.0912 -0.3183 -0.5443
   48CHL1    C2 6005   4.167   4.320   9.908 -0.4586 -0.3573 -0.2079
   48CHL1   H2A 6006   4.196   4.399   9.981  1.1735 -1.4994  0.4276
   48CHL1   H2B 6007   4.258   4.258   9.918 -0.9151 -0.7461  2.0938
   48CHL1   C20 6008   4.207   4.478   8.966  0.4426 -0.4868  0.2053
   48CHL1   H20 6009   4.240   4.379   8.930  0.4101 -0.0566 -1.0367
   48CHL1   C21 6010   4.344   4.548   8.989 -0.1929 -0.1463  0.0041
   48CHL1  H21A 6011   4.408   4.545   8.898  1.3777  2.6457  0.8896
   48CHL1  H21B 6012   4.399   4.505   9.076  0.9011  1.4393  0.1497
   48CHL1  H21C 6013   4.320   4.655   9.007 -1.0018 -0.2164 -0.6339
   48CHL1   C22 6014   4.129   4.541   8.852 -0.4548  0.1233  0.3460
   48CHL1  H22A 6015   4.039   4.481   8.825 -0.6625  0.7059 -0.2892
   48CHL1  H22B 6016   4.091   4.643   8.875 -3.4890 -0.9309  0.5150
   48CHL1   C23 6017   4.199   4.530   8.714  0.4299 -0.0162  0.5318
   48CHL1  H23A 6018   4.305   4.559   8.724  0.6935 -0.9075  0.4634
   48CHL1  H23B 6019   4.208   4.433   8.661  0.1823  0.4901 -0.4530
   48CHL1   C24 6020   4.121   4.614   8.613 -0.7072 -0.8765  0.0020
   48CHL1  H24A 6021   4.035   4.669   8.657  0.2955  2.6438 -2.0436
   48CHL1  H24B 6022   4.182   4.704   8.590 -1.4757  0.0903  1.5563
   48CHL1   C25 6023   4.068   4.555   8.481 -0.2488  0.7066  0.3208
   48CHL1   H25 6024   4.156   4.522   8.422 -2.6463 -1.7299 -2.1860
   48CHL1   C26 6025   3.973   4.439   8.502  0.3239  0.0304 -0.3349
   48CHL1  H26A 6026   3.950   4.384   8.408  0.6363  0.9280 -0.9507
   48CHL1  H26B 6027   4.009   4.365   8.577  0.4294 -1.1854 -1.5458
   48CHL1  H26C 6028   3.890   4.495   8.550  0.1119 -1.2753  0.9043
   48CHL1   C27 6029   4.003   4.660   8.389  0.3176  0.7871 -0.1422
   48CHL1  H27A 6030   3.974   4.613   8.292  0.4707  0.0115  0.1797
   48CHL1  H27B 6031   3.921   4.710   8.445  0.2019  0.2710  0.1525
   48CHL1  H27C 6032   4.076   4.740   8.364 -0.7944  2.0516  0.5315
   49CHL1    C3 6033   3.630   5.636  10.149  0.3709  0.3977  0.6864
   49CHL1    H3 6034   3.675   5.737  10.149  1.0055  0.1226  0.2051
   49CHL1    O3 6035   3.608   5.584  10.275 -0.1528 -0.4641  0.0969
   49CHL1   H3' 6036   3.538   5.644  10.305 -0.0611  0.1870 -0.9298
   49CHL1    C4 6037   3.492   5.647  10.092  0.4715 -0.0300 -0.2484
   49CHL1   H4A 6038   3.429   5.557  10.104 -1.7315  0.9099 -3.3730
   49CHL1   H4B 6039   3.439   5.719  10.158  1.7724  1.2773 -0.5528
   49CHL1    C5 6040   3.496   5.682   9.947 -0.1739 -0.1435  0.6577
   49CHL1    C6 6041   3.439   5.792   9.896  0.1899 -0.3815 -0.0797
   49CHL1    H6 6042   3.392   5.862   9.967  0.9208  0.6484 -0.5777
   49CHL1    C7 6043   3.424   5.823   9.751  0.0632  0.0493  0.0345
   49CHL1   H7A 6044   3.316   5.846   9.742 -0.2714 -1.1926  0.5882
   49CHL1   H7B 6045   3.487   5.914   9.740  0.3932  0.1339  2.2087
   49CHL1    C8 6046   3.458   5.705   9.657  0.3375  0.7430 -0.2464
   49CHL1    H8 6047   3.369   5.638   9.656  0.9925 -0.2661  2.0923
   49CHL1   C14 6048   3.499   5.755   9.522  0.0593 -0.6629 -0.0222
   49CHL1   H14 6049   3.602   5.799   9.526 -0.3929  0.8789 -2.7055
   49CHL1   C15 6050   3.400   5.860   9.459 -0.5385  0.5372  0.8653
   49CHL1  H15A 6051   3.301   5.819   9.488 -1.4545  1.6172 -0.6087
   49CHL1  H15B 6052   3.424   5.965   9.485  2.0779  0.2274  0.0303
   49CHL1   C16 6053   3.435   5.858   9.304 -0.5592 -0.0672  0.1131
   49CHL1  H16A 6054   3.337   5.846   9.252 -1.1607 -2.4746  1.6729
   49CHL1  H16B 6055   3.473   5.955   9.264 -1.2986 -0.9207 -2.9575
   49CHL1   C17 6056   3.535   5.743   9.290 -0.3364  0.3591  0.5436
   49CHL1   H17 6057   3.637   5.783   9.306 -0.8434  2.1313 -0.3882
   49CHL1   C13 6058   3.510   5.647   9.410 -0.0194 -0.6380 -0.1462
   49CHL1   C18 6059   3.380   5.566   9.400  0.1020  0.1514 -0.2464
   49CHL1  H18A 6060   3.314   5.613   9.323  1.9619  1.2514 -1.2450
   49CHL1  H18B 6061   3.405   5.469   9.353  0.1917 -1.9427  3.7315
   49CHL1  H18C 6062   3.326   5.537   9.493 -1.0447  1.9002 -0.3164
   49CHL1   C12 6063   3.629   5.561   9.459  1.0582  0.3686  0.1067
   49CHL1  H12A 6064   3.651   5.474   9.394 -0.1580  1.3103 -1.6285
   49CHL1  H12B 6065   3.712   5.633   9.445  0.1254  1.2485 -1.0953
   49CHL1   C11 6066   3.612   5.506   9.608 -0.2932 -0.8316  0.0584
   49CHL1  H11A 6067   3.528   5.433   9.607 -1.5333  0.5524  0.3196
   49CHL1  H11B 6068   3.707   5.456   9.638  0.1251 -1.0619 -1.5562
   49CHL1    C9 6069   3.575   5.618   9.708  1.2274  0.1271 -0.6398
   49CHL1    H9 6070   3.664   5.683   9.694  2.6281 -1.1447  1.5854
   49CHL1   C10 6071   3.571   5.578   9.862  0.1440 -0.6169 -0.5105
   49CHL1   C19 6072   3.507   5.438   9.868 -0.3283 -0.5595 -0.3046
   49CHL1  H19A 6073   3.493   5.405   9.973  1.2778  0.3937  0.2559
   49CHL1  H19B 6074   3.403   5.438   9.831 -0.1240 -0.4547 -0.8906
   49CHL1  H19C 6075   3.578   5.364   9.825  0.6204  1.4139 -2.3435
   49CHL1    C1 6076   3.717   5.569   9.910 -0.2703 -0.0317  0.2060
   49CHL1   H1A 6077   3.758   5.486   9.849 -1.0276 -0.4787  0.2903
   49CHL1   H1B 6078   3.757   5.671   9.890 -1.9778  0.6264 -0.0771
   49CHL1    C2 6079   3.722   5.540  10.057  0.6395 -0.2714 -0.1285
   49CHL1   H2A 6080   3.823   5.528  10.101  1.0756  0.9490 -0.7577
   49CHL1   H2B 6081   3.678   5.441  10.081 -1.1665  0.0452 -1.9015
   49CHL1   C20 6082   3.524   5.691   9.145  0.2351  0.1983  0.3028
   49CHL1   H20 6083   3.428   5.638   9.126 -0.2198  0.5136  1.5804
   49CHL1   C21 6084   3.647   5.597   9.128 -0.1458 -0.3121 -0.4451
   49CHL1  H21A 6085   3.652   5.558   9.024 -0.8947 -1.1992 -0.1620
   49CHL1  H21B 6086   3.624   5.505   9.185  0.4723 -0.7334 -0.8549
   49CHL1  H21C 6087   3.746   5.636   9.160 -0.2836  0.0463 -0.4564
   49CHL1   C22 6088   3.519   5.807   9.036  0.0504 -0.5874 -0.3935
   49CHL1  H22A 6089   3.426   5.868   9.042 -0.9748 -1.8915 -1.9095
   49CHL1  H22B 6090   3.604   5.878   9.045 -1.0327  0.9803 -1.8710
   49CHL1   C23 6091   3.534   5.750   8.890 -0.1637 -0.2026 -0.3685
   49CHL1  H23A 6092   3.628   5.692   8.889  0.6203  1.0072  0.6984
   49CHL1  H23B 6093   3.445   5.689   8.861 -0.8412  0.4559  0.2614
   49CHL1   C24 6094   3.544   5.874   8.800 -0.3711  0.2635 -0.5567
   49CHL1  H24A 6095   3.443   5.919   8.792 -1.2400 -0.5873  3.4181
   49CHL1  H24B 6096   3.612   5.950   8.844 -1.3174  1.0073 -0.3452
   49CHL1   C25 6097   3.587   5.856   8.660  0.0995  0.6828 -0.0493
   49CHL1   H25 6098   3.685   5.804   8.664  0.6971  1.8298  1.0786
   49CHL1   C26 6099   3.482   5.765   8.587 -0.2590 -0.0570 -0.9141
   49CHL1  H26A 6100   3.386   5.820   8.593  1.1315  2.3726  1.2550
   49CHL1  H26B 6101   3.515   5.760   8.481 -0.4977  1.1534 -1.0630
   49CHL1  H26C 6102   3.470   5.666   8.636 -0.6789  0.7857  0.7794
   49CHL1   C27 6103   3.608   5.993   8.597  0.9399 -0.1037  1.0953
   49CHL1  H27A 6104   3.514   6.051   8.585  0.3124 -1.0070  1.4914
   49CHL1  H27B 6105   3.677   6.060   8.651  1.2481 -0.5693  1.2854
   49CHL1  H27C 6106   3.655   5.972   8.498  0.9054 -0.3749  1.1349
   50CHL1    C3 6107   5.706   2.891  10.177 -0.2407 -0.0106  0.3889
   50CHL1    H3 6108   5.597   2.884  10.199 -0.1825 -0.5626  0.5018
   50CHL1    O3 6109   5.771   2.909  10.302 -0.0496  0.0399 -0.4196
   50CHL1   H3' 6110   5.708   2.866  10.360  0.8159  0.9683  1.2858
   50CHL1    C4 6111   5.764   2.771  10.112 -0.3995 -0.5864  0.2216
   50CHL1   H4A 6112   5.874   2.778  10.123 -0.1197 -1.2961 -1.6882
   50CHL1   H4B 6113   5.731   2.690  10.180 -2.5832  0.1671  0.1448
   50CHL1    C5 6114   5.757   2.742   9.966 -0.4804 -0.3197  0.3343
   50CHL1    C6 6115   5.724   2.616   9.929  0.8746  0.2854 -0.1442
   50CHL1    H6 6116   5.707   2.533  10.000 -0.3284  0.9746  0.4033
   50CHL1    C7 6117   5.697   2.579   9.787 -0.4680  0.4540  0.0837
   50CHL1   H7A 6118   5.734   2.480   9.754  0.0194  0.8021 -0.4246
   50CHL1   H7B 6119   5.588   2.570   9.767 -0.1782 -1.8808 -0.7681
   50CHL1    C8 6120   5.748   2.690   9.682 -0.7140  0.3652  1.3831
   50CHL1    H8 6121   5.858   2.682   9.669 -0.6763 -0.6886  2.1529
   50CHL1   C14 6122   5.685   2.678   9.541 -0.6543  0.6349  0.0183
   50CHL1   H14 6123   5.576   2.695   9.553 -0.9578 -0.0129 -1.5430
   50CHL1   C15 6124   5.695   2.544   9.467 -0.3019  0.6510 -0.6825
   50CHL1  H15A 6125   5.791   2.490   9.452 -1.6674 -2.3210  0.3030
   50CHL1  H15B 6126   5.630   2.464   9.511  0.6392 -0.5960 -1.5008
   50CHL1   C16 6127   5.636   2.576   9.330 -0.2160  0.0511 -0.6402
   50CHL1  H16A 6128   5.685   2.518   9.249 -2.0646 -1.6904 -0.5889
   50CHL1  H16B 6129   5.531   2.542   9.337  0.1225 -0.6544  2.1126
   50CHL1   C17 6130   5.638   2.734   9.319  0.2087  0.5740 -0.5966
   50CHL1   H17 6131   5.534   2.770   9.337  0.7660  1.1716  1.7646
   50CHL1   C13 6132   5.725   2.788   9.441  0.3530  0.4458 -0.0501
   50CHL1   C18 6133   5.883   2.777   9.414 -0.5755  0.2510  1.0219
   50CHL1  H18A 6134   5.909   2.670   9.419  0.3029  0.3985  0.0223
   50CHL1  H18B 6135   5.911   2.812   9.312 -0.7405 -1.9003  0.1869
   50CHL1  H18C 6136   5.948   2.828   9.488  2.0451 -1.6656  0.1614
   50CHL1   C12 6137   5.675   2.924   9.493  0.1381  0.0083  0.2425
   50CHL1  H12A 6138   5.721   2.991   9.417 -1.2291 -2.3131 -2.8606
   50CHL1  H12B 6139   5.564   2.917   9.502  0.2188  0.2667  1.6949
   50CHL1   C11 6140   5.739   2.945   9.634  1.0031 -0.4517 -0.1361
   50CHL1  H11A 6141   5.848   2.957   9.616  0.9779  1.0592  0.5219
   50CHL1  H11B 6142   5.698   3.038   9.679 -0.3835 -0.9490 -0.3476
   50CHL1    C9 6143   5.710   2.832   9.734 -0.3690  0.5319 -0.5231
   50CHL1    H9 6144   5.599   2.823   9.743 -0.2267 -1.4928 -0.2726
   50CHL1   C10 6145   5.770   2.861   9.874  0.5827  0.1080 -0.3718
   50CHL1   C19 6146   5.928   2.885   9.868 -0.5336  0.6113 -0.4121
   50CHL1  H19A 6147   5.975   2.907   9.966  0.7749  2.6495 -1.4379
   50CHL1  H19B 6148   5.969   2.792   9.823  1.4269  0.2936  1.8307
   50CHL1  H19C 6149   5.952   2.973   9.804 -0.2528 -0.8822 -2.4726
   50CHL1    C1 6150   5.695   2.981   9.943 -0.3001 -0.0106  0.2171
   50CHL1   H1A 6151   5.716   3.074   9.887  0.1192 -0.3452 -0.1915
   50CHL1   H1B 6152   5.587   2.955   9.935  0.1092 -1.7183 -0.1360
   50CHL1    C2 6153   5.737   3.012  10.091  0.3076  0.1506  0.6322
   50CHL1   H2A 6154   5.677   3.097  10.131 -0.6189 -0.2943  0.2208
   50CHL1   H2B 6155   5.846   3.028  10.099  0.0941  1.6062  0.9293
   50CHL1   C20 6156   5.667   2.791   9.179  0.2038  0.4094 -0.6424
   50CHL1   H20 6157   5.774   2.774   9.156  0.8545  1.2073  1.5878
   50CHL1   C21 6158   5.645   2.946   9.179  0.3095 -0.6646  1.2552
   50CHL1  H21A 6159   5.564   2.978   9.248 -0.1698  0.3370  0.2626
   50CHL1  H21B 6160   5.629   2.989   9.077  2.6511  1.6097  1.7489
   50CHL1  H21C 6161   5.742   2.987   9.213  0.7670  0.4399 -1.1594
   50CHL1   C22 6162   5.590   2.726   9.064 -0.0102 -0.2940  0.3330
   50CHL1  H22A 6163   5.592   2.615   9.074 -0.4999 -0.1255  2.8248
   50CHL1  H22B 6164   5.483   2.756   9.070  0.3967  1.1768  0.4806
   50CHL1   C23 6165   5.637   2.766   8.922  0.1685 -0.3340 -0.6184
   50CHL1  H23A 6166   5.593   2.698   8.846 -1.3544  0.6333 -0.6483
   50CHL1  H23B 6167   5.598   2.866   8.893 -0.0259 -0.4027 -0.5966
   50CHL1   C24 6168   5.787   2.780   8.900  0.0718  0.1787  0.8051
   50CHL1  H24A 6169   5.843   2.837   8.977  0.5680  0.1313  0.4844
   50CHL1  H24B 6170   5.834   2.679   8.907  1.4628  0.8010  0.9349
   50CHL1   C25 6171   5.828   2.847   8.761  0.4837 -0.3889  0.4803
   50CHL1   H25 6172   5.775   2.944   8.759  0.5809 -0.3133  1.2414
   50CHL1   C26 6173   5.981   2.883   8.756  0.5094  0.0542  0.3015
   50CHL1  H26A 6174   6.047   2.797   8.733 -0.0770 -0.4957  0.6534
   50CHL1  H26B 6175   5.995   2.955   8.672 -1.3056  0.2510  0.1263
   50CHL1  H26C 6176   6.014   2.938   8.847  0.8476 -0.7288  0.6606
   50CHL1   C27 6177   5.783   2.759   8.642  0.4855 -0.0666  0.2995
   50CHL1  H27A 6178   5.674   2.763   8.625  0.3320 -0.0315  1.2345
   50CHL1  H27B 6179   5.826   2.804   8.550  2.4513  0.9998  1.6674
   50CHL1  H27C 6180   5.829   2.658   8.648 -0.9129 -0.6497  1.9236
   51CHL1    C3 6181   0.242   5.589  10.148 -0.2560  0.0211 -0.0609
   51CHL1    H3 6182   0.238   5.485  10.109 -2.2554 -0.4352  1.2170
   51CHL1    O3 6183   0.227   5.585  10.286 -0.4765 -0.5893 -0.2281
   51CHL1   H3' 6184   0.310   5.548  10.316  0.3844  1.8476  0.5793
   51CHL1    C4 6185   0.384   5.643  10.122  0.1561 -0.1503  0.7515
   51CHL1   H4A 6186   0.395   5.743  10.169 -0.0360 -0.5568  1.6741
   51CHL1   H4B 6187   0.462   5.584  10.173  1.8547  2.1874  1.0179
   51CHL1    C5 6188   0.399   5.659   9.968 -0.0354  0.0680 -0.7086
   51CHL1    C6 6189   0.494   5.597   9.895  0.0095  0.2489  0.6362
   51CHL1    H6 6190   0.566   5.530   9.944 -0.3278  0.2093  1.0716
   51CHL1    C7 6191   0.526   5.615   9.749  0.0826 -0.0840 -0.0757
   51CHL1   H7A 6192   0.632   5.640   9.726  0.3622  0.2953  1.5350
   51CHL1   H7B 6193   0.500   5.521   9.696 -2.3677  0.8551 -0.6938
   51CHL1    C8 6194   0.458   5.739   9.690  0.4706  0.1230  0.3543
   51CHL1    H8 6195   0.508   5.833   9.719 -2.4954  3.0861 -3.1089
   51CHL1   C14 6196   0.450   5.734   9.536  0.0304  0.0129 -0.3649
   51CHL1   H14 6197   0.415   5.633   9.506  3.0489 -0.6381 -2.0197
   51CHL1   C15 6198   0.593   5.733   9.469 -0.5106 -0.2073 -0.0389
   51CHL1  H15A 6199   0.647   5.823   9.505 -2.0060  1.3786 -1.5851
   51CHL1  H15B 6200   0.639   5.636   9.497 -0.8680 -0.5924 -0.7564
   51CHL1   C16 6201   0.555   5.730   9.326  0.3435 -0.4481  0.4675
   51CHL1  H16A 6202   0.622   5.797   9.267 -0.0962 -0.4526 -0.0456
   51CHL1  H16B 6203   0.568   5.628   9.282  0.7369 -1.1321  2.1122
   51CHL1   C17 6204   0.410   5.788   9.314 -0.1151  0.0841  0.5209
   51CHL1   H17 6205   0.339   5.704   9.301  0.0178 -0.1286  1.1695
   51CHL1   C13 6206   0.377   5.839   9.449 -0.4002 -1.2833 -0.0668
   51CHL1   C18 6207   0.425   5.981   9.478 -0.7339 -0.0160 -0.0820
   51CHL1  H18A 6208   0.466   5.995   9.580  2.5483 -3.0567 -0.7692
   51CHL1  H18B 6209   0.507   6.005   9.406 -2.0418  1.4293 -1.1456
   51CHL1  H18C 6210   0.344   6.049   9.444  0.8176  0.8509 -2.2658
   51CHL1   C12 6211   0.234   5.819   9.500  0.8130 -0.0194  0.2538
   51CHL1  H12A 6212   0.162   5.895   9.462 -0.5118 -1.0510  0.6202
   51CHL1  H12B 6213   0.183   5.724   9.473 -1.5919  1.0589  0.7091
   51CHL1   C11 6214   0.227   5.843   9.656 -0.2807 -0.4465  0.0382
   51CHL1  H11A 6215   0.234   5.951   9.678 -1.8320 -0.5061  1.0013
   51CHL1  H11B 6216   0.119   5.822   9.675 -0.4116  1.5899  1.8895
   51CHL1    C9 6217   0.310   5.742   9.735  0.1231  0.2436 -0.0979
   51CHL1    H9 6218   0.262   5.648   9.700  2.7776 -0.5333 -1.9800
   51CHL1   C10 6219   0.297   5.754   9.896  0.4008 -0.0585  0.4462
   51CHL1   C19 6220   0.313   5.899   9.942  0.0401  0.5722  0.0053
   51CHL1  H19A 6221   0.231   5.963   9.902 -0.2333  1.0175  1.2348
   51CHL1  H19B 6222   0.297   5.903  10.052  0.3031 -1.0732  0.1267
   51CHL1  H19C 6223   0.412   5.939   9.911 -0.6278  1.7044 -0.7724
   51CHL1    C1 6224   0.155   5.710   9.933 -0.7266 -0.4185 -0.1763
   51CHL1   H1A 6225   0.090   5.792   9.895  0.7607  1.4127  1.0131
   51CHL1   H1B 6226   0.133   5.619   9.873  0.0312 -0.4264 -0.4536
   51CHL1    C2 6227   0.134   5.679  10.085 -0.3364  0.9111  0.0336
   51CHL1   H2A 6228   0.035   5.631  10.097  0.2427 -0.7132 -1.2504
   51CHL1   H2B 6229   0.136   5.776  10.138  1.1617 -0.0614  1.8676
   51CHL1   C20 6230   0.387   5.877   9.191 -0.0151 -0.0825 -0.1932
   51CHL1   H20 6231   0.439   5.974   9.209  0.8502 -0.3940 -0.9377
   51CHL1   C21 6232   0.235   5.904   9.175 -0.2221  0.0302 -0.4727
   51CHL1  H21A 6233   0.212   5.954   9.078 -1.6554 -0.3878 -0.3778
   51CHL1  H21B 6234   0.190   5.953   9.264 -0.9857  0.9483 -1.3448
   51CHL1  H21C 6235   0.186   5.804   9.188  0.0826  0.2237  3.1221
   51CHL1   C22 6236   0.443   5.822   9.059 -0.1592  0.8959  0.1291
   51CHL1  H22A 6237   0.520   5.744   9.078  0.6731  2.2915  3.1384
   51CHL1  H22B 6238   0.363   5.769   9.003 -2.0675  1.6676  1.9979
   51CHL1   C23 6239   0.487   5.942   8.977 -0.0237 -0.3849  0.4226
   51CHL1  H23A 6240   0.400   6.010   8.961 -0.5810 -1.0472  0.5896
   51CHL1  H23B 6241   0.573   5.978   9.037 -1.4503  2.0214  1.2112
   51CHL1   C24 6242   0.525   5.902   8.837  0.4311 -0.2596  0.0415
   51CHL1  H24A 6243   0.588   5.811   8.830  0.6508 -0.1992  1.1075
   51CHL1  H24B 6244   0.434   5.873   8.781 -0.1906  0.3266  0.7232
   51CHL1   C25 6245   0.587   6.022   8.758 -0.0183 -0.1380  0.0655
   51CHL1   H25 6246   0.663   6.075   8.820 -0.8895  0.2074  0.8654
   51CHL1   C26 6247   0.642   5.956   8.636 -0.0731  0.4584 -0.1681
   51CHL1  H26A 6248   0.719   5.878   8.652 -0.9527 -0.4244 -0.0830
   51CHL1  H26B 6249   0.561   5.897   8.588  0.8462 -1.0013  0.0244
   51CHL1  H26C 6250   0.676   6.019   8.551 -1.6402 -0.4012 -1.4988
   51CHL1   C27 6251   0.474   6.122   8.730  1.1757 -0.1831  0.4055
   51CHL1  H27A 6252   0.394   6.087   8.661  0.7746 -0.7636  1.1535
   51CHL1  H27B 6253   0.420   6.163   8.817 -2.4978 -1.1801 -1.1801
   51CHL1  H27C 6254   0.517   6.200   8.663  0.1361 -0.2164 -0.3391
   52CHL1    C3 6255   4.769   3.440   9.956  0.3893 -0.3366 -0.3322
   52CHL1    H3 6256   4.738   3.543   9.983 -2.5884 -1.1393 -0.3332
   52CHL1    O3 6257   4.756   3.365  10.079 -0.2371 -0.2748 -0.0867
   52CHL1   H3' 6258   4.814   3.290  10.066  0.9334  0.2516  1.7503
   52CHL1    C4 6259   4.676   3.378   9.852  0.6869  0.4991  0.2024
   52CHL1   H4A 6260   4.685   3.267   9.858 -6.7184 -0.9070 -3.2057
   52CHL1   H4B 6261   4.570   3.400   9.876  0.2700  0.2227 -1.3024
   52CHL1    C5 6262   4.708   3.425   9.710 -0.2381 -0.2187 -0.5176
   52CHL1    C6 6263   4.614   3.486   9.639  0.1249  0.2485  0.4064
   52CHL1    H6 6264   4.511   3.489   9.677  0.6175 -1.1214  1.9557
   52CHL1    C7 6265   4.637   3.531   9.496 -0.1307  0.1464  0.4315
   52CHL1   H7A 6266   4.559   3.484   9.432 -0.4704  0.4759  0.6014
   52CHL1   H7B 6267   4.623   3.640   9.481 -1.2800 -0.1629 -0.9925
   52CHL1    C8 6268   4.773   3.474   9.437  0.1503  0.2166  0.1647
   52CHL1    H8 6269   4.752   3.367   9.420  1.0067  0.1150 -0.2839
   52CHL1   C14 6270   4.798   3.536   9.306  0.0118 -0.1071 -0.3090
   52CHL1   H14 6271   4.823   3.642   9.326 -0.0628 -0.3465  1.1811
   52CHL1   C15 6272   4.689   3.535   9.196 -0.1382  0.1027  0.0220
   52CHL1  H15A 6273   4.651   3.431   9.195  0.0512 -0.0384  2.3220
   52CHL1  H15B 6274   4.611   3.612   9.212 -0.2924 -0.4426  2.1926
   52CHL1   C16 6275   4.771   3.557   9.065  1.0608 -0.0573 -0.0546
   52CHL1  H16A 6276   4.745   3.488   8.983 -1.6797  0.0281  0.6233
   52CHL1  H16B 6277   4.744   3.656   9.023  0.0587  0.4360  1.6167
   52CHL1   C17 6278   4.925   3.546   9.106 -0.5266 -0.5226 -0.5858
   52CHL1   H17 6279   4.948   3.654   9.121 -1.0352 -0.2511 -1.6246
   52CHL1   C13 6280   4.934   3.479   9.246  0.6066 -0.0816  0.1063
   52CHL1   C18 6281   4.931   3.319   9.228 -0.2256 -0.5275  0.4172
   52CHL1  H18A 6282   4.841   3.291   9.170  0.7262  0.9252 -1.8965
   52CHL1  H18B 6283   5.017   3.288   9.165 -1.0162 -0.9644 -0.4685
   52CHL1  H18C 6284   4.936   3.250   9.315  0.8508 -0.4698  0.4167
   52CHL1   C12 6285   5.040   3.522   9.341 -0.4694  0.0808  0.3393
   52CHL1  H12A 6286   5.134   3.485   9.297 -0.8510  0.5729 -0.9307
   52CHL1  H12B 6287   5.033   3.633   9.343 -0.6502  0.0651  1.0582
   52CHL1   C11 6288   5.021   3.451   9.471  0.4027  0.2706 -0.4065
   52CHL1  H11A 6289   5.039   3.342   9.461 -0.2785  0.0468  0.6304
   52CHL1  H11B 6290   5.095   3.488   9.545 -1.0385  2.3509  0.0997
   52CHL1    C9 6291   4.882   3.478   9.541  0.0835 -0.4819  0.2849
   52CHL1    H9 6292   4.894   3.586   9.565 -0.4497 -0.8211  2.2569
   52CHL1   C10 6293   4.853   3.402   9.671  0.1323  0.5464  1.0791
   52CHL1   C19 6294   4.880   3.248   9.646  0.3346 -0.2547  0.5329
   52CHL1  H19A 6295   4.820   3.205   9.564  2.4015  0.6468 -1.5671
   52CHL1  H19B 6296   4.988   3.239   9.620  0.7255 -0.4804  2.0892
   52CHL1  H19C 6297   4.856   3.186   9.735  0.9246 -0.4800  0.5388
   52CHL1    C1 6298   4.944   3.467   9.777 -0.0465  0.4958  0.4027
   52CHL1   H1A 6299   5.046   3.426   9.761 -0.5300 -1.6247  2.2078
   52CHL1   H1B 6300   4.932   3.576   9.762 -0.2148  0.4400  0.1308
   52CHL1    C2 6301   4.912   3.420   9.914  0.0805 -0.2416  0.2323
   52CHL1   H2A 6302   4.981   3.469   9.986 -2.8023  1.4517  2.0500
   52CHL1   H2B 6303   4.934   3.312   9.927  0.6259  0.0377  2.0126
   52CHL1   C20 6304   5.013   3.494   8.993 -0.1679  0.3807 -0.3283
   52CHL1   H20 6305   4.994   3.385   9.000 -1.1944  0.5895  0.1865
   52CHL1   C21 6306   5.158   3.516   9.021 -0.2722  0.1373  0.2466
   52CHL1  H21A 6307   5.185   3.624   9.015  2.2868 -0.4495 -0.0348
   52CHL1  H21B 6308   5.230   3.478   8.945 -0.0084 -0.6675  0.8873
   52CHL1  H21C 6309   5.186   3.477   9.121 -0.5543  0.9559  0.6548
   52CHL1   C22 6310   4.980   3.550   8.847 -0.0344  0.2061  0.1035
   52CHL1  H22A 6311   4.878   3.511   8.826  0.5729 -4.3588  3.9277
   52CHL1  H22B 6312   4.986   3.661   8.850  0.8529  0.2489 -1.9709
   52CHL1   C23 6313   5.078   3.505   8.726  0.8626  0.4926 -0.6951
   52CHL1  H23A 6314   5.177   3.552   8.743  1.3272 -0.7712  0.2143
   52CHL1  H23B 6315   5.081   3.394   8.726 -0.6981  0.4204 -0.0799
   52CHL1   C24 6316   5.021   3.562   8.601 -0.5842  0.0706  1.0351
   52CHL1  H24A 6317   4.911   3.565   8.588 -0.3649  0.1083 -1.3790
   52CHL1  H24B 6318   5.056   3.667   8.592  1.4220 -0.7190 -3.4908
   52CHL1   C25 6319   5.080   3.492   8.476 -0.1562  0.2075  0.6559
   52CHL1   H25 6320   5.079   3.383   8.496 -2.8354  0.5688  3.0602
   52CHL1   C26 6321   4.996   3.531   8.359 -0.1000 -0.4490  0.1316
   52CHL1  H26A 6322   5.000   3.640   8.336  0.2028 -0.3086  0.8101
   52CHL1  H26B 6323   5.022   3.463   8.275  0.1062 -2.6932  1.9333
   52CHL1  H26C 6324   4.891   3.510   8.387  0.0251  0.0252  0.9867
   52CHL1   C27 6325   5.225   3.546   8.452 -0.6615  0.2502  0.5034
   52CHL1  H27A 6326   5.278   3.521   8.546  0.0100 -2.0044 -0.3998
   52CHL1  H27B 6327   5.271   3.495   8.364  0.3733 -1.7465  2.1382
   52CHL1  H27C 6328   5.233   3.654   8.427 -0.2255  0.0205 -0.3940
   53CHL1    C3 6329   5.594   3.799  10.056 -0.3815  0.2517 -0.0853
   53CHL1    H3 6330   5.490   3.789  10.016 -0.2335  1.5466 -0.8629
   53CHL1    O3 6331   5.601   3.750  10.187  0.0454 -0.5840 -0.1631
   53CHL1   H3' 6332   5.687   3.767  10.227  0.8239 -0.4438 -1.8165
   53CHL1    C4 6333   5.695   3.726   9.963  0.2488 -0.0730  0.2805
   53CHL1   H4A 6334   5.789   3.736  10.022 -1.3557 -0.3694  3.1141
   53CHL1   H4B 6335   5.670   3.618   9.972  0.1740 -0.1165 -0.3993
   53CHL1    C5 6336   5.704   3.778   9.822  1.2285 -0.2219 -0.2847
   53CHL1    C6 6337   5.682   3.689   9.719  0.1630 -0.7489 -0.5138
   53CHL1    H6 6338   5.648   3.586   9.738 -0.4481 -0.4835 -0.1217
   53CHL1    C7 6339   5.698   3.730   9.576 -0.5967 -0.1135  0.7507
   53CHL1   H7A 6340   5.766   3.660   9.524 -0.5486  1.4938 -1.4773
   53CHL1   H7B 6341   5.601   3.718   9.523  0.2717  0.0946 -0.9177
   53CHL1    C8 6342   5.747   3.873   9.550 -0.0595  0.2653 -0.5425
   53CHL1    H8 6343   5.857   3.867   9.564 -0.0471 -0.2407 -0.8003
   53CHL1   C14 6344   5.718   3.917   9.409 -0.2470 -0.2133  0.2040
   53CHL1   H14 6345   5.609   3.903   9.394  0.3154 -3.5212 -1.8239
   53CHL1   C15 6346   5.778   3.833   9.298 -0.0822  0.1667  0.4063
   53CHL1  H15A 6347   5.886   3.814   9.318  0.6760  1.5462 -1.9807
   53CHL1  H15B 6348   5.727   3.735   9.292 -1.1171  0.6516  0.9718
   53CHL1   C16 6349   5.763   3.932   9.181  0.0133  0.0553 -0.2128
   53CHL1  H16A 6350   5.861   3.944   9.130  0.6695 -0.2788  0.9356
   53CHL1  H16B 6351   5.687   3.888   9.113 -0.1525 -2.0035  1.1982
   53CHL1   C17 6352   5.720   4.073   9.234  0.0879  0.2099  0.3706
   53CHL1   H17 6353   5.609   4.084   9.229  0.2067  1.1873 -0.3077
   53CHL1   C13 6354   5.753   4.064   9.382  0.1169  0.3051 -0.4025
   53CHL1   C18 6355   5.905   4.088   9.397 -0.0620 -0.4596  0.4827
   53CHL1  H18A 6356   5.931   4.193   9.371 -0.4719 -0.5125 -0.1480
   53CHL1  H18B 6357   5.945   4.062   9.498  1.4067  2.2186  0.7017
   53CHL1  H18C 6358   5.962   4.021   9.329  1.7586  0.5126  0.9599
   53CHL1   C12 6359   5.664   4.145   9.481 -0.5357  0.4460 -0.3530
   53CHL1  H12A 6360   5.675   4.253   9.462 -0.9818  0.7410  0.9165
   53CHL1  H12B 6361   5.559   4.114   9.463  0.4091 -3.5180  0.0261
   53CHL1   C11 6362   5.701   4.119   9.626 -0.0896 -0.2079 -0.2721
   53CHL1  H11A 6363   5.807   4.152   9.632 -0.7693  1.8433  1.6050
   53CHL1  H11B 6364   5.632   4.187   9.680  0.1163  0.3512 -0.6985
   53CHL1    C9 6365   5.682   3.970   9.657 -0.0948 -0.0366 -1.4605
   53CHL1    H9 6366   5.573   3.948   9.654 -0.1946 -1.1957  3.0507
   53CHL1   C10 6367   5.719   3.928   9.800 -0.7023  0.2745  0.1344
   53CHL1   C19 6368   5.866   3.955   9.833 -0.4518 -0.5631  0.6364
   53CHL1  H19A 6369   5.882   4.065   9.829  0.7902 -0.7366  0.4319
   53CHL1  H19B 6370   5.874   3.927   9.941 -2.7408 -1.2078  0.7006
   53CHL1  H19C 6371   5.934   3.886   9.779 -1.9989  0.1874 -2.5061
   53CHL1    C1 6372   5.624   4.007   9.906  0.3701  0.2616 -0.1670
   53CHL1   H1A 6373   5.656   4.112   9.919 -0.8740  0.3622  2.8669
   53CHL1   H1B 6374   5.519   4.007   9.869  0.6189  1.4548 -0.9042
   53CHL1    C2 6375   5.619   3.953  10.053 -0.6103  0.8622 -0.0392
   53CHL1   H2A 6376   5.553   4.008  10.124  0.7104  0.5868  1.4713
   53CHL1   H2B 6377   5.719   3.958  10.101  1.2561 -5.8040 -2.2922
   53CHL1   C20 6378   5.778   4.194   9.154  0.9016 -0.5569  0.4868
   53CHL1   H20 6379   5.888   4.206   9.168  0.8979  0.7515 -0.4809
   53CHL1   C21 6380   5.717   4.327   9.206  0.3467 -0.4288  0.0315
   53CHL1  H21A 6381   5.742   4.353   9.311  0.0270  1.2150 -0.2828
   53CHL1  H21B 6382   5.607   4.330   9.191 -0.3149  1.2703  3.9744
   53CHL1  H21C 6383   5.776   4.397   9.144 -0.9340 -3.0477 -4.6533
   53CHL1   C22 6384   5.759   4.187   8.998  0.5029 -0.1793 -1.3073
   53CHL1  H22A 6385   5.758   4.080   8.967 -0.0554 -1.2729  2.0418
   53CHL1  H22B 6386   5.654   4.218   8.977  0.3857  1.3946  1.1514
   53CHL1   C23 6387   5.866   4.268   8.924  0.2830  0.1128  0.6234
   53CHL1  H23A 6388   5.854   4.375   8.951  0.0533  0.2171  0.1269
   53CHL1  H23B 6389   5.966   4.246   8.967  1.0888  1.3898 -0.4744
   53CHL1   C24 6390   5.869   4.253   8.768  0.0081 -0.2580  0.0452
   53CHL1  H24A 6391   5.894   4.147   8.749 -0.5742 -0.6401  1.2944
   53CHL1  H24B 6392   5.765   4.275   8.738  0.1322 -1.2542 -1.2040
   53CHL1   C25 6393   5.969   4.349   8.695 -0.4988 -0.3823 -0.6009
   53CHL1   H25 6394   5.967   4.451   8.739  3.8207 -0.0825 -0.6042
   53CHL1   C26 6395   6.113   4.297   8.705  0.6171  0.1929  0.2577
   53CHL1  H26A 6396   6.137   4.281   8.812  1.3431 -0.5429 -0.0012
   53CHL1  H26B 6397   6.128   4.199   8.656 -1.5835  1.1510 -2.6326
   53CHL1  H26C 6398   6.186   4.366   8.657 -0.2088  0.1360 -1.1427
   53CHL1   C27 6399   5.931   4.354   8.550  0.0201  0.2325  0.0663
   53CHL1  H27A 6400   6.001   4.422   8.498  2.9648  0.3328  3.7573
   53CHL1  H27B 6401   5.929   4.254   8.501  1.0076 -1.1292  2.6573
   53CHL1  H27C 6402   5.826   4.387   8.534  0.2544  0.8883 -0.1462
   54CHL1    C3 6403   4.708   3.919  10.160 -0.1205 -0.3535 -0.0327
   54CHL1    H3 6404   4.817   3.907  10.179  0.9550  2.0115 -3.7481
   54CHL1    O3 6405   4.639   3.916  10.283 -0.6200  0.5189  0.1553
   54CHL1   H3' 6406   4.611   3.826  10.299  1.4675 -0.1401  0.4219
   54CHL1    C4 6407   4.685   4.061  10.092 -0.3733 -0.3152  0.3329
   54CHL1   H4A 6408   4.578   4.091  10.095 -0.2240  0.4577 -1.3139
   54CHL1   H4B 6409   4.744   4.121  10.165  0.3290 -0.0341 -0.4475
   54CHL1    C5 6410   4.742   4.067   9.954 -0.1450 -1.0778 -0.5735
   54CHL1    C6 6411   4.843   4.152   9.927  0.4461  0.6903 -0.0253
   54CHL1    H6 6412   4.877   4.225  10.002  0.7025  0.7426 -0.1901
   54CHL1    C7 6413   4.896   4.159   9.789 -0.6059 -0.4432  0.2898
   54CHL1   H7A 6414   4.918   4.264   9.761 -2.3238 -0.1879 -0.1782
   54CHL1   H7B 6415   4.998   4.114   9.794 -0.6232 -0.3949  1.2758
   54CHL1    C8 6416   4.799   4.108   9.675  0.6303  0.0988 -0.1126
   54CHL1    H8 6417   4.712   4.177   9.676 -1.6735 -2.5622  3.1831
   54CHL1   C14 6418   4.866   4.105   9.537  0.1501 -0.4834  0.2049
   54CHL1   H14 6419   4.942   4.024   9.543 -0.6963 -1.2795  0.4627
   54CHL1   C15 6420   4.936   4.232   9.484  0.5936 -0.5328 -0.2928
   54CHL1  H15A 6421   4.863   4.309   9.517  1.1918 -0.0273 -0.1303
   54CHL1  H15B 6422   5.032   4.253   9.535 -0.0910  0.2019  0.7343
   54CHL1   C16 6423   4.946   4.212   9.332 -0.3783  0.1103 -0.0501
   54CHL1  H16A 6424   4.898   4.296   9.277 -0.6214  0.1985  0.2942
   54CHL1  H16B 6425   5.051   4.198   9.297  0.2267  0.1315  1.6575
   54CHL1   C17 6426   4.868   4.083   9.300 -0.6530  0.0166  0.1497
   54CHL1   H17 6427   4.942   3.999   9.301 -1.8668 -1.1005 -0.6149
   54CHL1   C13 6428   4.774   4.052   9.427 -0.1873 -0.1568  0.4805
   54CHL1   C18 6429   4.638   4.130   9.412  0.4482 -0.5396 -0.0434
   54CHL1  H18A 6430   4.560   4.078   9.353  1.1787  0.7646 -2.2511
   54CHL1  H18B 6431   4.582   4.146   9.506  1.4606 -3.5595  1.2166
   54CHL1  H18C 6432   4.664   4.231   9.373  2.1118 -1.2048 -0.7724
   54CHL1   C12 6433   4.754   3.904   9.465  0.0685  0.3236  0.2771
   54CHL1  H12A 6434   4.701   3.841   9.390  1.4034  1.1617 -1.4381
   54CHL1  H12B 6435   4.857   3.863   9.468 -0.1534 -0.2526  0.1706
   54CHL1   C11 6436   4.676   3.893   9.598 -0.3158  0.1074  0.1047
   54CHL1  H11A 6437   4.569   3.926   9.593 -0.6147 -0.9150 -0.4937
   54CHL1  H11B 6438   4.669   3.786   9.625  1.2862 -0.2787 -0.8845
   54CHL1    C9 6439   4.754   3.967   9.714 -0.0449 -0.1233 -0.0381
   54CHL1    H9 6440   4.845   3.903   9.724 -0.3014 -0.6322 -0.9132
   54CHL1   C10 6441   4.690   3.965   9.857  0.6559  0.4351 -0.0418
   54CHL1   C19 6442   4.538   3.999   9.847 -0.4933  1.0413 -0.0148
   54CHL1  H19A 6443   4.482   3.952   9.931  0.7035 -1.8102 -0.6699
   54CHL1  H19B 6444   4.517   4.107   9.832  0.7332  1.4218  0.7852
   54CHL1  H19C 6445   4.487   3.944   9.766 -0.1148  0.4489  0.1355
   54CHL1    C1 6446   4.706   3.822   9.922  0.1023  0.1679 -0.0305
   54CHL1   H1A 6447   4.644   3.746   9.871  2.9082 -1.6712 -0.9224
   54CHL1   H1B 6448   4.807   3.779   9.906  0.2981  0.4872  0.3164
   54CHL1    C2 6449   4.657   3.810  10.070  0.2351  0.5561 -0.2163
   54CHL1   H2A 6450   4.665   3.706  10.109  0.1569  0.7561  0.3387
   54CHL1   H2B 6451   4.547   3.820  10.063  0.3421  1.2002 -1.0376
   54CHL1   C20 6452   4.806   4.077   9.158  0.1920  0.2736 -0.3891
   54CHL1   H20 6453   4.728   4.155   9.142 -0.9507 -0.9699 -1.0293
   54CHL1   C21 6454   4.733   3.936   9.138  0.1158 -0.1799  0.5878
   54CHL1  H21A 6455   4.710   3.908   9.032 -0.5201  1.2886  0.3191
   54CHL1  H21B 6456   4.647   3.926   9.207  1.0726 -2.5440  1.5542
   54CHL1  H21C 6457   4.807   3.858   9.167  0.7767  0.1690 -0.1161
   54CHL1   C22 6458   4.910   4.093   9.046 -0.2870 -0.2303 -0.1601
   54CHL1  H22A 6459   4.950   4.197   9.051 -0.2993 -0.2175 -0.3428
   54CHL1  H22B 6460   5.000   4.036   9.078  1.6534  2.4712 -0.4259
   54CHL1   C23 6461   4.877   4.062   8.900  0.4482  0.7200  0.2062
   54CHL1  H23A 6462   4.843   3.958   8.881 -4.2452  1.7941  1.2741
   54CHL1  H23B 6463   4.785   4.118   8.872 -0.5948 -0.3211  1.3855
   54CHL1   C24 6464   4.992   4.111   8.800  0.7446 -0.7838 -0.6925
   54CHL1  H24A 6465   5.002   4.222   8.811 -1.2185 -0.8035  3.2886
   54CHL1  H24B 6466   5.090   4.067   8.830  0.5370 -1.6829 -1.3088
   54CHL1   C25 6467   4.942   4.084   8.655 -0.0782 -0.4162  0.0482
   54CHL1   H25 6468   4.834   4.096   8.636 -0.2395  0.7827  1.5184
   54CHL1   C26 6469   5.002   4.186   8.551  0.8233  0.2456  0.6041
   54CHL1  H26A 6470   5.112   4.173   8.556  0.6504 -2.1467 -0.2764
   54CHL1  H26B 6471   4.970   4.159   8.448  2.0516  0.9553  0.0090
   54CHL1  H26C 6472   4.972   4.290   8.578 -2.1328 -0.1812 -0.6543
   54CHL1   C27 6473   4.991   3.939   8.623  1.0857 -0.2302 -0.3602
   54CHL1  H27A 6474   4.992   3.920   8.513  0.8343 -0.3115 -0.3489
   54CHL1  H27B 6475   5.099   3.925   8.648  0.7331 -0.1831  1.2952
   54CHL1  H27C 6476   4.928   3.868   8.680  0.9413  0.5927  0.5376
   55CHL1    C3 6477   5.875   1.440  10.168  0.2229 -0.2556 -0.5124
   55CHL1    H3 6478   5.975   1.391  10.172  0.5463  0.4809  1.8523
   55CHL1    O3 6479   5.854   1.506  10.297 -0.2438  0.6083 -0.3267
   55CHL1   H3' 6480   5.771   1.552  10.281 -1.0615 -0.5057  0.5262
   55CHL1    C4 6481   5.874   1.559  10.063 -0.5063 -0.1998 -0.5721
   55CHL1   H4A 6482   5.788   1.624  10.088  2.0210  2.1462  2.9727
   55CHL1   H4B 6483   5.968   1.615  10.083 -1.2953  0.8654  0.2624
   55CHL1    C5 6484   5.866   1.508   9.923  0.8142 -0.6800 -0.0118
   55CHL1    C6 6485   5.941   1.557   9.824 -0.6002  0.4828  0.3737
   55CHL1    H6 6486   6.014   1.635   9.848  1.3445 -1.1854  0.1341
   55CHL1    C7 6487   5.928   1.528   9.682 -0.2520  0.2641  0.1071
   55CHL1   H7A 6488   5.931   1.622   9.622  1.9770 -0.1412 -0.5107
   55CHL1   H7B 6489   6.014   1.466   9.650 -0.9328 -0.4246 -0.4164
   55CHL1    C8 6490   5.797   1.450   9.650 -0.0845 -0.3330 -0.3668
   55CHL1    H8 6491   5.723   1.533   9.658  0.6348  0.1363  2.6807
   55CHL1   C14 6492   5.811   1.380   9.512  1.3634  0.5823  0.0736
   55CHL1   H14 6493   5.880   1.295   9.530 -0.7622 -1.4178 -0.7227
   55CHL1   C15 6494   5.862   1.455   9.385  0.6331 -0.3483 -0.2603
   55CHL1  H15A 6495   5.796   1.544   9.374  0.4372  0.0105  2.7876
   55CHL1  H15B 6496   5.969   1.486   9.385  1.3128 -2.5060  0.7482
   55CHL1   C16 6497   5.819   1.369   9.270 -0.1727 -0.2364  0.1073
   55CHL1  H16A 6498   5.755   1.433   9.205 -1.6618  1.6840  3.2189
   55CHL1  H16B 6499   5.906   1.326   9.216 -0.0047  0.7452 -0.4388
   55CHL1   C17 6500   5.719   1.259   9.322 -0.3621  0.1733 -0.8165
   55CHL1   H17 6501   5.779   1.170   9.352 -0.4264 -0.0671 -1.3952
   55CHL1   C13 6502   5.677   1.317   9.466 -0.2336  0.6285  0.4507
   55CHL1   C18 6503   5.570   1.424   9.444  0.0366 -0.1500  0.0584
   55CHL1  H18A 6504   5.545   1.477   9.539  0.0846 -2.5068  1.4676
   55CHL1  H18B 6505   5.604   1.501   9.372  2.9827 -0.5829  0.8352
   55CHL1  H18C 6506   5.476   1.374   9.413 -1.7652  2.5734  0.7328
   55CHL1   C12 6507   5.634   1.207   9.576  0.0536  0.0416  0.0319
   55CHL1  H12A 6508   5.534   1.181   9.536  0.3494 -0.7976 -0.1670
   55CHL1  H12B 6509   5.697   1.116   9.572 -1.9317 -1.3423 -2.0349
   55CHL1   C11 6510   5.625   1.274   9.714  0.1993 -0.0793  0.7190
   55CHL1  H11A 6511   5.537   1.342   9.709  1.4731  1.6101  0.6206
   55CHL1  H11B 6512   5.610   1.200   9.796 -0.6997 -0.0515  0.5912
   55CHL1    C9 6513   5.756   1.354   9.756  0.0082  0.3847  0.2566
   55CHL1    H9 6514   5.832   1.273   9.748 -0.0256  0.4628 -1.1657
   55CHL1   C10 6515   5.754   1.401   9.899  0.0645 -0.7021 -0.3499
   55CHL1   C19 6516   5.616   1.474   9.928  0.6434 -0.2682  1.2487
   55CHL1  H19A 6517   5.613   1.525  10.027 -0.6126  2.0033  0.1130
   55CHL1  H19B 6518   5.612   1.554   9.852  3.2183 -0.0057  1.3060
   55CHL1  H19C 6519   5.535   1.398   9.930  1.7116 -1.4366  1.1525
   55CHL1    C1 6520   5.772   1.285   9.993 -0.6263  0.3602 -0.3088
   55CHL1   H1A 6521   5.693   1.207   9.981 -0.6736 -0.0807  2.2506
   55CHL1   H1B 6522   5.868   1.235   9.967  1.0614  2.3921  1.5632
   55CHL1    C2 6523   5.778   1.319  10.143 -0.0850 -0.3007 -0.6863
   55CHL1   H2A 6524   5.804   1.231  10.205 -0.9263 -0.9582 -1.2347
   55CHL1   H2B 6525   5.672   1.347  10.162 -0.6158 -1.4364 -1.7825
   55CHL1   C20 6526   5.601   1.220   9.232  0.4068  0.4710  0.1221
   55CHL1   H20 6527   5.537   1.310   9.219  1.2689  0.9371 -1.1714
   55CHL1   C21 6528   5.518   1.107   9.289  0.4262 -0.5669  0.3820
   55CHL1  H21A 6529   5.437   1.084   9.217 -0.2082  0.1357  0.8588
   55CHL1  H21B 6530   5.444   1.140   9.364 -0.3114  1.2551 -1.0839
   55CHL1  H21C 6531   5.583   1.020   9.315  2.0985  0.4175 -0.3013
   55CHL1   C22 6532   5.638   1.173   9.086 -0.3757 -0.1149 -0.9897
   55CHL1  H22A 6533   5.692   1.257   9.037  0.1151  0.1935  0.0626
   55CHL1  H22B 6534   5.710   1.090   9.101  1.2929  1.4674  0.1153
   55CHL1   C23 6535   5.515   1.144   8.997 -0.1156  0.1457 -0.6975
   55CHL1  H23A 6536   5.464   1.050   9.029 -0.2037 -0.2871 -2.0477
   55CHL1  H23B 6537   5.432   1.217   9.008 -2.1511 -2.3439  2.4842
   55CHL1   C24 6538   5.559   1.134   8.851 -0.6412  0.0741 -0.1232
   55CHL1  H24A 6539   5.595   1.231   8.810 -1.5244  0.1057 -0.8888
   55CHL1  H24B 6540   5.641   1.059   8.846 -0.7246 -0.0564  0.4037
   55CHL1   C25 6541   5.445   1.080   8.754 -0.0553  0.4202  0.2535
   55CHL1   H25 6542   5.388   1.007   8.815 -2.7842  0.2982 -2.2295
   55CHL1   C26 6543   5.349   1.192   8.719 -0.1417  0.4422 -0.1960
   55CHL1  H26A 6544   5.261   1.151   8.667  1.4804 -3.0871 -0.4594
   55CHL1  H26B 6545   5.313   1.249   8.807 -0.6610 -3.2152  2.2023
   55CHL1  H26C 6546   5.409   1.258   8.652 -0.6910  1.0312 -0.1162
   55CHL1   C27 6547   5.513   1.013   8.635 -0.0868 -0.4862 -0.4030
   55CHL1  H27A 6548   5.576   1.078   8.571 -0.5688 -0.5998 -1.0028
   55CHL1  H27B 6549   5.567   0.923   8.671  0.0185  0.1910  1.1697
   55CHL1  H27C 6550   5.431   0.979   8.568 -0.6635 -1.0521  0.5705
   56CHL1    C3 6551   3.122   1.368  10.038 -0.0442 -0.3723 -0.3066
   56CHL1    H3 6552   3.129   1.259  10.022 -0.2972 -0.3018 -0.9140
   56CHL1    O3 6553   3.131   1.387  10.181  0.1697 -0.0852  0.2863
   56CHL1   H3' 6554   3.089   1.310  10.220  1.6631 -1.5665 -0.8783
   56CHL1    C4 6555   3.238   1.444   9.976 -0.2435  0.6374  0.1481
   56CHL1   H4A 6556   3.230   1.546  10.019 -2.0088 -0.0202  1.5238
   56CHL1   H4B 6557   3.330   1.392  10.010  0.1625  0.9903 -0.4119
   56CHL1    C5 6558   3.224   1.431   9.827  0.2136  0.3201  0.0669
   56CHL1    C6 6559   3.318   1.374   9.750  0.5252 -0.2383  0.0970
   56CHL1    H6 6560   3.413   1.344   9.798  1.2215  1.5754 -0.0921
   56CHL1    C7 6561   3.327   1.367   9.599 -0.2058 -0.0385  0.3505
   56CHL1   H7A 6562   3.422   1.408   9.558  0.9640 -0.7125  2.2446
   56CHL1   H7B 6563   3.331   1.263   9.561 -0.0896  0.1352 -0.1202
   56CHL1    C8 6564   3.219   1.455   9.533  0.0166  0.1175  0.0330
   56CHL1    H8 6565   3.246   1.563   9.539 -0.4858  0.1744  2.4203
   56CHL1   C14 6566   3.200   1.427   9.386 -0.5211 -0.0629  0.6892
   56CHL1   H14 6567   3.173   1.320   9.373 -3.9349  0.8216 -0.4432
   56CHL1   C15 6568   3.316   1.447   9.282  0.5684 -0.2768  0.2048
   56CHL1  H15A 6569   3.346   1.553   9.294 -0.8697  0.3057 -1.0500
   56CHL1  H15B 6570   3.401   1.380   9.308  0.4779 -0.5684 -0.2416
   56CHL1   C16 6571   3.250   1.431   9.144  0.4779  0.5717 -0.6455
   56CHL1  H16A 6572   3.279   1.518   9.081 -1.5662  1.8494  0.1006
   56CHL1  H16B 6573   3.282   1.337   9.093 -0.3655  0.0345 -0.2069
   56CHL1   C17 6574   3.098   1.421   9.174 -0.0362  0.7083  0.8838
   56CHL1   H17 6575   3.079   1.313   9.191  1.5941  0.5814  2.1638
   56CHL1   C13 6576   3.080   1.490   9.307  0.7588 -0.5977 -0.7043
   56CHL1   C18 6577   3.109   1.643   9.294 -0.9797  0.1345  0.2627
   56CHL1  H18A 6578   3.163   1.680   9.384  0.4092  2.2068 -1.3225
   56CHL1  H18B 6579   3.162   1.664   9.199 -0.8715 -3.2508 -0.5532
   56CHL1  H18C 6580   3.008   1.687   9.281 -2.2673 -3.2301 -3.3685
   56CHL1   C12 6581   2.951   1.464   9.386 -0.1092  0.1156  0.3917
   56CHL1  H12A 6582   2.881   1.532   9.333 -0.0349  0.9170  1.2822
   56CHL1  H12B 6583   2.900   1.367   9.367 -0.9872  0.7664 -0.6941
   56CHL1   C11 6584   2.963   1.504   9.534 -0.0080 -0.0400 -0.0266
   56CHL1  H11A 6585   2.982   1.613   9.528  1.2188 -0.3019 -1.6999
   56CHL1  H11B 6586   2.861   1.487   9.575  0.1766 -2.2101 -0.3191
   56CHL1    C9 6587   3.079   1.439   9.607  0.0235 -0.1858 -0.1676
   56CHL1    H9 6588   3.054   1.331   9.601  1.6922 -0.6228  0.3027
   56CHL1   C10 6589   3.087   1.483   9.762 -0.7055  0.4424  0.1934
   56CHL1   C19 6590   3.087   1.644   9.777  0.8157  0.7971 -0.0140
   56CHL1  H19A 6591   3.167   1.687   9.713  0.7992  1.1794  0.2220
   56CHL1  H19B 6592   2.997   1.695   9.737  0.3485  0.0446  0.0508
   56CHL1  H19C 6593   3.109   1.672   9.882 -0.6948 -0.0645  0.5539
   56CHL1    C1 6594   2.971   1.412   9.848  0.2015  0.1328  0.4335
   56CHL1   H1A 6595   2.876   1.452   9.805  0.1318 -2.1664 -1.8433
   56CHL1   H1B 6596   2.968   1.303   9.826  0.3228  0.1933  0.1051
   56CHL1    C2 6597   2.989   1.433   9.992  0.5403  0.7877 -0.4590
   56CHL1   H2A 6598   2.908   1.372  10.037  0.2309  1.0208 -0.6952
   56CHL1   H2B 6599   2.983   1.536  10.033 -0.7514  0.8733 -0.8027
   56CHL1   C20 6600   3.006   1.468   9.060  0.0021  0.1569  0.2407
   56CHL1   H20 6601   2.975   1.573   9.074 -1.2605  0.2191 -2.4518
   56CHL1   C21 6602   2.872   1.398   9.080 -0.2777  0.2210  0.5119
   56CHL1  H21A 6603   2.887   1.291   9.103 -1.2776  0.5627  3.0700
   56CHL1  H21B 6604   2.794   1.402   9.001  1.7742  2.3471 -1.5709
   56CHL1  H21C 6605   2.828   1.442   9.172 -3.3089  4.6870 -2.6273
   56CHL1   C22 6606   3.050   1.437   8.913  0.8494  0.0621  0.3708
   56CHL1  H22A 6607   2.967   1.470   8.846  0.0298 -1.7740  0.4125
   56CHL1  H22B 6608   3.143   1.485   8.878 -0.0297  0.6216 -1.2982
   56CHL1   C23 6609   3.081   1.285   8.879  0.2681 -0.7319 -0.1947
   56CHL1  H23A 6610   3.176   1.247   8.924  0.9192  1.1639  0.1042
   56CHL1  H23B 6611   3.006   1.217   8.925 -1.3051 -0.1827 -1.8546
   56CHL1   C24 6612   3.087   1.245   8.728 -0.0390  0.1686 -0.5664
   56CHL1  H24A 6613   3.120   1.336   8.674 -0.6292  0.6316 -0.1616
   56CHL1  H24B 6614   3.160   1.165   8.707 -0.7175 -0.2720 -1.3007
   56CHL1   C25 6615   2.963   1.178   8.665  0.1014 -0.1132 -0.4391
   56CHL1   H25 6616   2.983   1.166   8.557 -0.2194 -0.8158 -0.4266
   56CHL1   C26 6617   2.929   1.030   8.705 -0.3183  0.5579  1.0708
   56CHL1  H26A 6618   3.021   0.968   8.694 -3.1693 -3.8403 -0.7234
   56CHL1  H26B 6619   2.892   1.024   8.809 -1.3775  1.1563  0.7352
   56CHL1  H26C 6620   2.862   0.977   8.634  2.1632 -0.5798 -0.5693
   56CHL1   C27 6621   2.839   1.268   8.671 -0.1494  0.3601 -0.0354
   56CHL1  H27A 6622   2.744   1.220   8.638  0.3590  0.1903 -1.3100
   56CHL1  H27B 6623   2.807   1.284   8.776  1.5143  0.8045  0.4398
   56CHL1  H27C 6624   2.854   1.368   8.626 -1.3504  0.7468  0.3761
   57CHL1    C3 6625   6.165   3.479  10.171 -0.0337 -0.0545  0.2971
   57CHL1    H3 6626   6.269   3.509  10.146 -0.0944 -1.1402 -1.4095
   57CHL1    O3 6627   6.155   3.498  10.311  0.4144  0.2371 -0.4813
   57CHL1   H3' 6628   6.180   3.417  10.354  1.9542  0.7473 -0.3674
   57CHL1    C4 6629   6.071   3.569  10.087  0.2609  0.1240  0.1968
   57CHL1   H4A 6630   5.971   3.547  10.131 -0.0243 -0.4692 -0.7269
   57CHL1   H4B 6631   6.087   3.675  10.116  1.1160 -0.1087  0.6022
   57CHL1    C5 6632   6.078   3.533   9.943 -0.2910 -0.7374 -0.1576
   57CHL1    C6 6633   6.098   3.630   9.849 -0.2453  0.0432  0.5988
   57CHL1    H6 6634   6.117   3.734   9.879  0.0731 -0.1790  1.1987
   57CHL1    C7 6635   6.104   3.589   9.704  0.6148 -0.2831  0.3318
   57CHL1   H7A 6636   6.056   3.668   9.642  1.6801  0.2218  0.1304
   57CHL1   H7B 6637   6.211   3.591   9.676  0.3549 -1.5097 -0.9275
   57CHL1    C8 6638   6.037   3.456   9.659  0.1720 -0.5750  0.5469
   57CHL1    H8 6639   5.928   3.478   9.660  0.1795 -0.5125  1.5422
   57CHL1   C14 6640   6.069   3.419   9.512  0.1529  1.0572  0.1412
   57CHL1   H14 6641   6.179   3.407   9.513  0.2724  1.9308 -1.0096
   57CHL1   C15 6642   6.017   3.521   9.408 -0.2640  0.3883  0.3747
   57CHL1  H15A 6643   5.913   3.561   9.419  0.7140  3.2339  0.1794
   57CHL1  H15B 6644   6.078   3.614   9.404  0.7235 -0.0459  3.1419
   57CHL1   C16 6645   6.022   3.432   9.282 -0.2005  0.2895  0.6581
   57CHL1  H16A 6646   5.922   3.438   9.235  1.2821  0.0526 -2.8633
   57CHL1  H16B 6647   6.096   3.479   9.213  2.0841 -0.3453  2.5414
   57CHL1   C17 6648   6.058   3.286   9.320  0.3080 -0.6075 -0.3683
   57CHL1   H17 6649   6.168   3.283   9.300  0.5884 -0.0632  1.0284
   57CHL1   C13 6650   6.018   3.284   9.465  0.2017 -1.0550  0.1777
   57CHL1   C18 6651   5.869   3.275   9.477 -0.6552  1.1892 -0.0983
   57CHL1  H18A 6652   5.817   3.350   9.414  0.9814  2.2143 -0.2823
   57CHL1  H18B 6653   5.832   3.171   9.467  4.7808 -1.1959  0.9756
   57CHL1  H18C 6654   5.840   3.296   9.583  1.4932 -2.6181  1.4529
   57CHL1   C12 6655   6.088   3.176   9.558  0.4309  0.3280  0.1029
   57CHL1  H12A 6656   6.060   3.070   9.540 -0.3302  0.5599 -0.1570
   57CHL1  H12B 6657   6.198   3.173   9.548  0.9046  0.9824  3.7928
   57CHL1   C11 6658   6.055   3.198   9.708  0.2565 -0.9762 -0.8177
   57CHL1  H11A 6659   5.948   3.168   9.716  0.4934 -1.3473  2.0086
   57CHL1  H11B 6660   6.120   3.129   9.766 -0.3471 -1.0444 -0.2035
   57CHL1    C9 6661   6.086   3.342   9.755  0.2234 -1.1179 -0.0466
   57CHL1    H9 6662   6.196   3.348   9.741  0.5284 -0.0032  2.3306
   57CHL1   C10 6663   6.054   3.380   9.905 -0.6602  0.6948  1.2021
   57CHL1   C19 6664   5.902   3.337   9.928 -0.3980  0.5378  0.7405
   57CHL1  H19A 6665   5.898   3.227   9.910  0.4700  0.9384 -2.6984
   57CHL1  H19B 6666   5.873   3.368  10.030  0.2161  3.3516  0.1241
   57CHL1  H19C 6667   5.844   3.375   9.841  0.4216 -0.5772 -0.3288
   57CHL1    C1 6668   6.152   3.304   9.993 -0.7109  0.3178 -0.5197
   57CHL1   H1A 6669   6.129   3.196   9.979 -2.0609  0.3263  1.3414
   57CHL1   H1B 6670   6.252   3.338   9.958 -1.3374  2.6966 -0.1066
   57CHL1    C2 6671   6.149   3.329  10.138  0.5573 -0.8566  0.3401
   57CHL1   H2A 6672   6.236   3.274  10.179  1.5866  0.6176  0.2140
   57CHL1   H2B 6673   6.055   3.296  10.187  0.4282 -0.9129  0.0547
   57CHL1   C20 6674   5.991   3.186   9.233 -0.0686  0.4412  0.1556
   57CHL1   H20 6675   5.885   3.162   9.253  0.2108 -1.0415 -0.0363
   57CHL1   C21 6676   6.074   3.054   9.244 -0.7979  0.7052  0.8017
   57CHL1  H21A 6677   6.180   3.073   9.216 -0.4099 -1.4944  0.6197
   57CHL1  H21B 6678   6.037   2.982   9.169 -1.4718  1.4566  0.3885
   57CHL1  H21C 6679   6.069   3.023   9.351 -1.3462  2.3842  1.3102
   57CHL1   C22 6680   5.999   3.228   9.083  0.4270 -0.4569 -0.0452
   57CHL1  H22A 6681   5.952   3.156   9.013 -0.0853 -0.0546 -0.1189
   57CHL1  H22B 6682   5.924   3.308   9.067  1.9486  0.7583 -1.5340
   57CHL1   C23 6683   6.134   3.249   9.020 -0.7476  0.0768 -0.1310
   57CHL1  H23A 6684   6.196   3.330   9.064 -1.5624  1.5975 -1.6804
   57CHL1  H23B 6685   6.193   3.156   9.035  2.4915  2.1448  1.1599
   57CHL1   C24 6686   6.127   3.279   8.870  0.2030  0.0123  0.8216
   57CHL1  H24A 6687   6.092   3.188   8.817 -0.1555  1.1109 -0.9276
   57CHL1  H24B 6688   6.061   3.369   8.873 -1.2394 -0.9131 -0.9626
   57CHL1   C25 6689   6.259   3.320   8.805  0.0384 -0.5909 -0.3607
   57CHL1   H25 6690   6.295   3.420   8.838 -0.6839  0.5230 -2.7179
   57CHL1   C26 6691   6.372   3.221   8.831 -0.3558  0.2141 -0.4878
   57CHL1  H26A 6692   6.419   3.231   8.931  0.9451  0.9370 -1.1370
   57CHL1  H26B 6693   6.337   3.118   8.808  0.4591  0.3213 -2.4342
   57CHL1  H26C 6694   6.463   3.252   8.775  0.0668  1.0971  0.6544
   57CHL1   C27 6695   6.242   3.333   8.654 -0.3511  1.0924  0.3205
   57CHL1  H27A 6696   6.155   3.395   8.623 -0.4404  0.3731 -0.9576
   57CHL1  H27B 6697   6.328   3.369   8.594 -0.2830 -1.7069 -1.4117
   57CHL1  H27C 6698   6.213   3.236   8.608 -1.0935  1.7705 -0.6874
   58CHL1    C3 6699   0.114   1.313  10.107  0.0910  0.1059 -0.5076
   58CHL1    H3 6700   0.122   1.204  10.089 -2.1381  0.0644 -1.6244
   58CHL1    O3 6701   0.105   1.333  10.245  0.0563 -0.2751 -0.8073
   58CHL1   H3' 6702   0.106   1.428  10.261  0.4987 -0.0896 -1.8638
   58CHL1    C4 6703   0.221   1.399  10.049  0.0968 -0.0096  0.0126
   58CHL1   H4A 6704   0.209   1.505  10.080  0.9447  0.2229 -0.3990
   58CHL1   H4B 6705   0.324   1.372  10.081 -0.7984 -2.1558  1.2810
   58CHL1    C5 6706   0.215   1.385   9.897  0.0563 -0.8845 -0.4393
   58CHL1    C6 6707   0.327   1.344   9.832  0.2247  0.0269  0.0864
   58CHL1    H6 6708   0.411   1.306   9.891  1.3044 -0.2481 -1.5703
   58CHL1    C7 6709   0.332   1.324   9.684 -0.3131  0.0531  0.0010
   58CHL1   H7A 6710   0.420   1.373   9.638 -0.7413 -1.2270 -2.3303
   58CHL1   H7B 6711   0.318   1.216   9.661 -0.7436  0.1595 -0.2456
   58CHL1    C8 6712   0.217   1.396   9.613 -0.0994 -0.3113  0.5956
   58CHL1    H8 6713   0.245   1.503   9.620 -3.0067  0.4554  2.5160
   58CHL1   C14 6714   0.209   1.363   9.464 -0.4334  0.2786 -0.5511
   58CHL1   H14 6715   0.178   1.256   9.465 -0.1310  0.1885 -0.6768
   58CHL1   C15 6716   0.339   1.378   9.381 -1.3280 -0.5642 -0.2936
   58CHL1  H15A 6717   0.388   1.474   9.408  0.4760 -1.5767  0.2623
   58CHL1  H15B 6718   0.414   1.299   9.403 -1.6443 -1.0107 -0.8108
   58CHL1   C16 6719   0.295   1.374   9.233 -0.2370  0.1233 -0.0697
   58CHL1  H16A 6720   0.330   1.471   9.193  0.6977  0.3176  1.1663
   58CHL1  H16B 6721   0.338   1.291   9.173 -0.7431 -1.0043  1.0795
   58CHL1   C17 6722   0.136   1.365   9.241  0.2217 -0.0670 -0.1757
   58CHL1   H17 6723   0.104   1.259   9.248 -1.3808  0.4590  0.9131
   58CHL1   C13 6724   0.107   1.434   9.382  0.2374  0.0715 -0.3932
   58CHL1   C18 6725   0.131   1.584   9.377 -0.3074 -0.0740 -0.2777
   58CHL1  H18A 6726   0.122   1.639   9.474  1.4098 -0.5358  0.1848
   58CHL1  H18B 6727   0.226   1.605   9.324 -0.7660  2.4485 -0.2669
   58CHL1  H18C 6728   0.058   1.631   9.308  0.1114  0.7539 -0.1827
   58CHL1   C12 6729  -0.029   1.403   9.440  0.1951 -0.5126 -0.0008
   58CHL1  H12A 6730  -0.119   1.453   9.399  0.0058  2.6681  3.7089
   58CHL1  H12B 6731  -0.043   1.295   9.418 -2.9005 -0.3130  0.5742
   58CHL1   C11 6732  -0.030   1.428   9.594  0.2577 -0.5496 -0.4580
   58CHL1  H11A 6733  -0.028   1.539   9.595  0.8883 -0.5259 -1.7655
   58CHL1  H11B 6734  -0.130   1.403   9.635  0.4858 -1.1675 -0.2676
   58CHL1    C9 6735   0.083   1.371   9.682 -0.0929 -0.6516 -0.1107
   58CHL1    H9 6736   0.061   1.262   9.689  0.0840 -0.6147  1.6064
   58CHL1   C10 6737   0.081   1.413   9.831  0.8585  0.3928  0.0525
   58CHL1   C19 6738   0.065   1.565   9.838 -0.2322 -0.2334 -0.2977
   58CHL1  H19A 6739  -0.036   1.597   9.805 -0.0562 -1.4101 -2.1540
   58CHL1  H19B 6740   0.057   1.577   9.948 -1.9758  0.5746 -0.4724
   58CHL1  H19C 6741   0.134   1.628   9.778  0.5309 -0.3423  0.4454
   58CHL1    C1 6742  -0.034   1.345   9.905 -0.1364  0.3708  0.9094
   58CHL1   H1A 6743  -0.126   1.399   9.874  0.0833  1.8245  2.6038
   58CHL1   H1B 6744  -0.042   1.240   9.871  0.2138  0.0081  1.9139
   58CHL1    C2 6745  -0.029   1.348  10.057 -0.1893  0.7188 -0.1260
   58CHL1   H2A 6746  -0.101   1.275  10.100  1.2351 -0.3337  0.5726
   58CHL1   H2B 6747  -0.044   1.453  10.090  0.7451  1.1715 -1.0791
   58CHL1   C20 6748   0.071   1.415   9.114 -0.0070 -0.2420 -0.8077
   58CHL1   H20 6749   0.109   1.517   9.092 -1.5400  0.1106 -2.0238
   58CHL1   C21 6750  -0.078   1.429   9.142 -0.6312  0.8535  0.5110
   58CHL1  H21A 6751  -0.095   1.519   9.204  2.3620  2.5375 -0.8579
   58CHL1  H21B 6752  -0.125   1.343   9.194  1.9837 -0.6809  0.5263
   58CHL1  H21C 6753  -0.126   1.434   9.042 -0.5078 -0.7612  0.3355
   58CHL1   C22 6754   0.094   1.330   9.000 -0.1430  0.3596  0.4792
   58CHL1  H22A 6755   0.204   1.313   8.998 -0.1341  0.3880  0.8214
   58CHL1  H22B 6756   0.044   1.232   9.016 -0.2967  0.6854  2.1767
   58CHL1   C23 6757   0.065   1.394   8.863  0.4155  0.2403  0.4643
   58CHL1  H23A 6758   0.086   1.308   8.795  0.5574  0.1826  0.5793
   58CHL1  H23B 6759  -0.041   1.424   8.850  0.8585  1.0094 -1.8323
   58CHL1   C24 6760   0.169   1.495   8.801  0.2895  0.1356 -0.1961
   58CHL1  H24A 6761   0.156   1.601   8.830  0.2548 -0.2595  1.3596
   58CHL1  H24B 6762   0.268   1.465   8.843 -0.5401  0.8815  2.4854
   58CHL1   C25 6763   0.158   1.500   8.647  0.3939 -0.6966 -0.1938
   58CHL1   H25 6764   0.181   1.396   8.615 -0.1469 -0.4024 -1.6383
   58CHL1   C26 6765   0.022   1.536   8.574  0.8346  0.5112 -0.9026
   58CHL1  H26A 6766  -0.033   1.620   8.622  0.7226 -1.1284  2.1072
   58CHL1  H26B 6767   0.031   1.562   8.466  1.4690 -0.8076 -1.1881
   58CHL1  H26C 6768  -0.045   1.450   8.593  0.0810  1.2090 -0.3276
   58CHL1   C27 6769   0.262   1.591   8.585 -0.3936  0.5734 -0.3694
   58CHL1  H27A 6770   0.240   1.608   8.477 -0.3300  0.4365 -0.4055
   58CHL1  H27B 6771   0.261   1.692   8.630  0.7669  1.1065 -1.4824
   58CHL1  H27C 6772   0.362   1.545   8.605 -0.4734 -0.0209 -1.2379
   59CHL1    C3 6773   0.626   0.502  10.292  0.2004 -0.7920 -0.5092
   59CHL1    H3 6774   0.737   0.494  10.284  0.3797 -1.4736  1.7486
   59CHL1    O3 6775   0.602   0.535  10.424  0.7229  0.4427 -0.1293
   59CHL1   H3' 6776   0.616   0.457  10.478 -1.0798  1.2805  1.6912
   59CHL1    C4 6777   0.587   0.627  10.207  0.0129  0.1685 -0.4167
   59CHL1   H4A 6778   0.477   0.638  10.221 -0.4217 -3.2687 -0.2098
   59CHL1   H4B 6779   0.652   0.706  10.249  2.1181  0.1852 -3.4319
   59CHL1    C5 6780   0.602   0.616  10.057 -0.2193  0.3258  0.8674
   59CHL1    C6 6781   0.673   0.701   9.978 -0.2838 -0.3496 -0.0667
   59CHL1    H6 6782   0.725   0.784  10.027 -0.0266 -1.2256  1.2043
   59CHL1    C7 6783   0.696   0.672   9.833  0.6064  0.4067  0.0882
   59CHL1   H7A 6784   0.684   0.769   9.780  1.3731  1.8471  2.4057
   59CHL1   H7B 6785   0.800   0.638   9.813 -0.1341 -1.0161 -1.5792
   59CHL1    C8 6786   0.601   0.567   9.771 -0.2654 -0.5805  0.4063
   59CHL1    H8 6787   0.507   0.625   9.785  0.2425  0.0237  1.4342
   59CHL1   C14 6788   0.634   0.532   9.629  0.1262 -0.2030  0.0375
   59CHL1   H14 6789   0.739   0.496   9.637  0.2513  0.3219  0.9157
   59CHL1   C15 6790   0.641   0.649   9.532 -0.2405 -0.6429  0.6866
   59CHL1  H15A 6791   0.552   0.715   9.539  0.3610  0.2190  0.3863
   59CHL1  H15B 6792   0.732   0.712   9.530 -0.6581 -0.0483 -0.7017
   59CHL1   C16 6793   0.638   0.581   9.394 -0.0160 -0.0108  0.4668
   59CHL1  H16A 6794   0.553   0.633   9.345 -0.4121 -0.0813  1.0686
   59CHL1  H16B 6795   0.728   0.612   9.335 -0.9124  0.4919 -0.6719
   59CHL1   C17 6796   0.607   0.431   9.415 -0.5498 -0.2223  0.4973
   59CHL1   H17 6797   0.706   0.381   9.425 -0.2590  0.6320  2.4329
   59CHL1   C13 6798   0.547   0.428   9.558  0.1208  0.0318  0.6964
   59CHL1   C18 6799   0.402   0.483   9.546 -0.4823  0.0123 -0.1167
   59CHL1  H18A 6800   0.356   0.526   9.637  1.2187 -0.0508  0.7972
   59CHL1  H18B 6801   0.390   0.563   9.469 -0.3481 -0.8917 -1.1027
   59CHL1  H18C 6802   0.334   0.402   9.513 -0.6899 -0.5643  1.6583
   59CHL1   C12 6803   0.569   0.306   9.640  0.2194 -0.2076 -0.6454
   59CHL1  H12A 6804   0.535   0.211   9.595 -0.8984 -0.3035  0.3512
   59CHL1  H12B 6805   0.676   0.294   9.668 -0.5414  0.8489  3.4812
   59CHL1   C11 6806   0.512   0.328   9.783 -0.0343  0.1964  0.3466
   59CHL1  H11A 6807   0.407   0.364   9.776  0.4855  1.4318 -2.3362
   59CHL1  H11B 6808   0.521   0.236   9.845 -1.5279  0.1536  0.5348
   59CHL1    C9 6809   0.586   0.447   9.859  0.4399 -0.0841 -0.3035
   59CHL1    H9 6810   0.691   0.417   9.876  0.3502 -1.2169 -1.5654
   59CHL1   C10 6811   0.532   0.482  10.005 -0.1490 -0.2467 -0.7056
   59CHL1   C19 6812   0.380   0.499   9.994 -0.4321  0.5824  0.6784
   59CHL1  H19A 6813   0.325   0.405   9.972  0.2583  0.4815 -0.7644
   59CHL1  H19B 6814   0.331   0.531  10.088 -2.5324 -0.7262  0.0822
   59CHL1  H19C 6815   0.356   0.567   9.909  0.4640 -1.6017 -1.4442
   59CHL1    C1 6816   0.565   0.357  10.104 -0.6662 -0.6440  0.9526
   59CHL1   H1A 6817   0.514   0.264  10.069  0.4869 -0.3893 -1.6885
   59CHL1   H1B 6818   0.670   0.327  10.084 -0.5958 -0.0253  0.3744
   59CHL1    C2 6819   0.549   0.380  10.255  0.1363  0.0004 -0.3136
   59CHL1   H2A 6820   0.590   0.297  10.317 -0.4271  0.1307  0.2441
   59CHL1   H2B 6821   0.444   0.403  10.282 -0.1635  1.7746 -2.6690
   59CHL1   C20 6822   0.537   0.364   9.296 -0.1875  0.1072  0.2613
   59CHL1   H20 6823   0.438   0.413   9.288 -0.6482 -1.0702 -2.7297
   59CHL1   C21 6824   0.502   0.218   9.330  0.9536 -0.6885  0.3168
   59CHL1  H21A 6825   0.414   0.198   9.396  0.5611 -2.4570 -0.6858
   59CHL1  H21B 6826   0.593   0.163   9.361  0.5506 -1.0706  0.8462
   59CHL1  H21C 6827   0.470   0.153   9.246  0.7062 -1.9574  1.3519
   59CHL1   C22 6828   0.600   0.383   9.159  0.0516  0.2410  0.0576
   59CHL1  H22A 6829   0.655   0.479   9.151  0.5530  0.2904  2.9769
   59CHL1  H22B 6830   0.668   0.299   9.134 -0.9117  0.1029 -2.4034
   59CHL1   C23 6831   0.493   0.379   9.051 -0.4480 -0.2421 -0.5705
   59CHL1  H23A 6832   0.409   0.308   9.067 -0.6174 -0.3451 -1.8574
   59CHL1  H23B 6833   0.439   0.476   9.039 -0.8422  0.0496  2.6653
   59CHL1   C24 6834   0.556   0.340   8.915 -0.5115  0.5537 -0.6997
   59CHL1  H24A 6835   0.640   0.411   8.895 -0.7198  0.6293 -1.3544
   59CHL1  H24B 6836   0.599   0.238   8.928 -3.3631 -0.4326  2.0113
   59CHL1   C25 6837   0.461   0.350   8.803 -0.2626  0.2988 -0.3885
   59CHL1   H25 6838   0.406   0.446   8.802 -0.9899 -0.1175 -1.0469
   59CHL1   C26 6839   0.534   0.337   8.673 -0.3902  0.8272  0.1374
   59CHL1  H26A 6840   0.597   0.428   8.671  0.8617  0.0045  1.0327
   59CHL1  H26B 6841   0.596   0.245   8.668  0.6747  1.5969 -1.4660
   59CHL1  H26C 6842   0.456   0.349   8.595 -0.3352 -2.2363 -0.5273
   59CHL1   C27 6843   0.361   0.227   8.809  0.2516  0.7889 -0.2317
   59CHL1  H27A 6844   0.277   0.254   8.877 -1.0987  0.1594 -1.5804
   59CHL1  H27B 6845   0.325   0.207   8.706 -1.1691 -0.7382  0.5157
   59CHL1  H27C 6846   0.413   0.137   8.849  0.3125  1.3697  1.0222
   60CHL1    C3 6847   1.012   0.656  10.308  0.1173 -0.2923 -0.0846
   60CHL1    H3 6848   0.902   0.664  10.292  0.4638  0.7890 -2.2843
   60CHL1    O3 6849   1.041   0.707  10.436 -0.0093 -0.0531  0.4290
   60CHL1   H3' 6850   1.119   0.661  10.466  0.1517 -0.4536 -0.5687
   60CHL1    C4 6851   1.052   0.511  10.310 -0.7979  0.8730 -0.0082
   60CHL1   H4A 6852   1.160   0.501  10.337 -0.7638  0.7299 -0.1962
   60CHL1   H4B 6853   0.980   0.467  10.382  0.4027  1.4598  1.6254
   60CHL1    C5 6854   1.044   0.446  10.169  0.7510 -0.7610 -0.0487
   60CHL1    C6 6855   0.969   0.336  10.141  0.8025 -0.0952 -0.1196
   60CHL1    H6 6856   0.936   0.288  10.234 -1.3591 -0.4571 -1.0251
   60CHL1    C7 6857   0.952   0.264  10.013 -0.0862 -0.4468  0.6956
   60CHL1   H7A 6858   0.974   0.156  10.017  0.0995 -0.4336  0.0444
   60CHL1   H7B 6859   0.846   0.257   9.981  0.3892 -0.6935 -0.8843
   60CHL1    C8 6860   1.050   0.334   9.896  0.7016  0.7453 -0.8560
   60CHL1    H8 6861   1.155   0.299   9.905  0.1412 -0.8070  0.1346
   60CHL1   C14 6862   0.993   0.301   9.761  0.9173  0.2954 -0.0570
   60CHL1   H14 6863   0.887   0.333   9.762  0.8229  0.0796  1.7573
   60CHL1   C15 6864   0.977   0.151   9.721 -0.0528 -0.0767 -0.1273
   60CHL1  H15A 6865   1.069   0.095   9.751 -0.2403 -0.8796 -0.9717
   60CHL1  H15B 6866   0.893   0.096   9.769  0.2539 -1.5543 -1.2078
   60CHL1   C16 6867   0.971   0.157   9.565 -0.2705  0.1596 -0.1991
   60CHL1  H16A 6868   1.049   0.089   9.525 -1.0790 -0.9498  0.0574
   60CHL1  H16B 6869   0.871   0.123   9.531 -0.0513  0.6360 -1.3677
   60CHL1   C17 6870   1.000   0.302   9.524  0.2088 -0.4242 -0.3022
   60CHL1   H17 6871   0.905   0.359   9.523 -0.6115 -1.7169  0.8103
   60CHL1   C13 6872   1.076   0.356   9.647  0.4986  0.4398 -1.2227
   60CHL1   C18 6873   1.219   0.288   9.647  0.1883  0.1312 -0.0672
   60CHL1  H18A 6874   1.265   0.336   9.559 -1.1296  1.0705 -0.2901
   60CHL1  H18B 6875   1.278   0.321   9.736  0.5011 -3.9724  1.4870
   60CHL1  H18C 6876   1.229   0.177   9.644  0.2812  0.1421 -3.0462
   60CHL1   C12 6877   1.080   0.502   9.667  0.7926  0.2249 -0.1012
   60CHL1  H12A 6878   1.140   0.547   9.584 -0.0878 -2.4939 -2.3505
   60CHL1  H12B 6879   0.977   0.543   9.660  1.3850  1.5802 -2.0496
   60CHL1   C11 6880   1.150   0.548   9.799  0.1594 -0.1786  0.0899
   60CHL1  H11A 6881   1.251   0.501   9.803 -0.0838 -1.0821 -2.3730
   60CHL1  H11B 6882   1.164   0.658   9.805  1.5826 -0.1541 -2.3021
   60CHL1    C9 6883   1.065   0.481   9.919 -0.2454  0.2133  0.1001
   60CHL1    H9 6884   0.961   0.514   9.899 -0.6675 -0.5869  0.8901
   60CHL1   C10 6885   1.111   0.528  10.057  0.2140 -0.7795  0.2158
   60CHL1   C19 6886   1.259   0.488  10.070  0.1628  0.0013 -0.2862
   60CHL1  H19A 6887   1.309   0.563  10.006 -2.1515  1.5215 -0.4648
   60CHL1  H19B 6888   1.300   0.495  10.173  1.0863 -1.9750 -0.4790
   60CHL1  H19C 6889   1.285   0.384  10.041 -0.2237 -0.4667  0.9421
   60CHL1    C1 6890   1.088   0.685  10.074  0.5847  0.2840 -0.2014
   60CHL1   H1A 6891   1.164   0.740  10.013 -0.4581  1.1005 -0.7927
   60CHL1   H1B 6892   0.985   0.700  10.037  0.0823 -0.4124  0.8836
   60CHL1    C2 6893   1.099   0.739  10.213  0.0811 -0.6290 -0.4971
   60CHL1   H2A 6894   1.067   0.846  10.209  0.6325 -0.3875  1.0843
   60CHL1   H2B 6895   1.199   0.742  10.260 -1.6705  4.5468  4.0043
   60CHL1   C20 6896   1.063   0.312   9.386  0.3767 -0.0318  0.0999
   60CHL1   H20 6897   1.174   0.305   9.388  0.4050 -0.0961 -1.0588
   60CHL1   C21 6898   1.049   0.462   9.338 -0.3608 -0.4567  0.2213
   60CHL1  H21A 6899   1.093   0.478   9.237  0.3872  2.8631  0.9667
   60CHL1  H21B 6900   1.099   0.539   9.400 -0.6773  0.4814 -0.6654
   60CHL1  H21C 6901   0.944   0.496   9.342 -0.5381 -1.1158  3.4252
   60CHL1   C22 6902   1.010   0.212   9.279  0.2004 -0.0471 -0.5513
   60CHL1  H22A 6903   1.034   0.115   9.328  1.3759  1.9076  3.0419
   60CHL1  H22B 6904   0.899   0.217   9.266  0.3383  0.5017 -1.6804
   60CHL1   C23 6905   1.078   0.213   9.144 -0.7047 -0.4809  0.4773
   60CHL1  H23A 6906   1.057   0.314   9.102 -0.8205  0.4672  2.6647
   60CHL1  H23B 6907   1.186   0.201   9.168 -0.8969 -1.1539  1.0489
   60CHL1   C24 6908   1.029   0.108   9.041 -0.0900  1.1741  0.0183
   60CHL1  H24A 6909   1.072   0.011   9.073  2.3839  2.1427 -0.1182
   60CHL1  H24B 6910   0.919   0.105   9.030  0.0823 -2.7407 -2.2593
   60CHL1   C25 6911   1.094   0.129   8.905 -0.0214  0.6499 -0.0646
   60CHL1   H25 6912   1.077   0.237   8.888 -0.3368  0.6269  0.0930
   60CHL1   C26 6913   1.246   0.102   8.908  0.1274  0.9925 -0.6053
   60CHL1  H26A 6914   1.298   0.119   8.811  1.4298 -0.3818 -0.1888
   60CHL1  H26B 6915   1.290   0.156   8.995 -1.3480  1.7006 -0.2630
   60CHL1  H26C 6916   1.261  -0.003   8.939 -3.7410  0.1782 -1.0005
   60CHL1   C27 6917   1.020   0.039   8.800 -0.0135  0.3518 -0.4557
   60CHL1  H27A 6918   1.072   0.047   8.702 -0.8751  0.9420 -0.8712
   60CHL1  H27B 6919   1.015  -0.066   8.836 -2.3025  0.3177 -0.7404
   60CHL1  H27C 6920   0.916   0.074   8.784 -0.6533 -1.0146  0.6033
   61CHL1    C3 6921   5.695   5.933  10.381  0.3114  0.8966  0.0041
   61CHL1    H3 6922   5.804   5.912  10.371  0.0675  0.4392 -2.6444
   61CHL1    O3 6923   5.653   5.885  10.509  0.3543 -0.4048  0.1798
   61CHL1   H3' 6924   5.558   5.880  10.494  0.5285 -0.5577 -1.0227
   61CHL1    C4 6925   5.666   6.081  10.354  0.0426  0.0763  0.4303
   61CHL1   H4A 6926   5.557   6.079  10.377 -0.5537 -2.0435 -2.0597
   61CHL1   H4B 6927   5.731   6.144  10.417 -0.1865  2.6471 -1.7286
   61CHL1    C5 6928   5.678   6.126  10.206 -0.0306  0.0611  0.5746
   61CHL1    C6 6929   5.753   6.230  10.177  0.0059 -0.2856  0.5400
   61CHL1    H6 6930   5.806   6.295  10.248 -0.3038 -1.9600  2.3672
   61CHL1    C7 6931   5.761   6.281  10.037 -0.1196 -0.3424 -0.6094
   61CHL1   H7A 6932   5.729   6.387  10.035 -0.2991 -0.3890 -0.2931
   61CHL1   H7B 6933   5.865   6.283   9.996  0.1741 -1.4492  0.0508
   61CHL1    C8 6934   5.679   6.210   9.928  0.1053 -1.3251  0.5648
   61CHL1    H8 6935   5.580   6.258   9.940  1.6701  2.1557  0.8044
   61CHL1   C14 6936   5.739   6.225   9.785  0.1164 -0.2785  0.3127
   61CHL1   H14 6937   5.842   6.185   9.801 -0.8451 -1.9934  2.7197
   61CHL1   C15 6938   5.747   6.369   9.739 -0.1472  0.2226  0.9006
   61CHL1  H15A 6939   5.659   6.432   9.765 -1.2345 -0.5322 -0.7810
   61CHL1  H15B 6940   5.844   6.414   9.767 -0.5444  0.8602  1.3010
   61CHL1   C16 6941   5.756   6.359   9.583 -0.1955  0.0170 -0.0728
   61CHL1  H16A 6942   5.680   6.432   9.548 -0.9505 -1.4028 -1.4843
   61CHL1  H16B 6943   5.858   6.392   9.553  0.1149 -1.7791 -1.1789
   61CHL1   C17 6944   5.734   6.210   9.543 -0.7350 -0.7040 -0.1446
   61CHL1   H17 6945   5.837   6.169   9.537  0.4500  2.0100  0.0447
   61CHL1   C13 6946   5.664   6.152   9.669 -0.5219 -0.4949 -0.0839
   61CHL1   C18 6947   5.516   6.203   9.662 -0.5650  0.2431  0.8554
   61CHL1  H18A 6948   5.449   6.138   9.601 -0.3422 -0.6673  1.5500
   61CHL1  H18B 6949   5.475   6.203   9.765 -0.2935 -2.1820  1.0379
   61CHL1  H18C 6950   5.520   6.308   9.626  1.8137  0.6213  2.0266
   61CHL1   C12 6951   5.676   6.005   9.700  0.5439  0.4340  0.4605
   61CHL1  H12A 6952   5.636   5.939   9.621 -0.3272  0.7985  0.5916
   61CHL1  H12B 6953   5.784   5.976   9.703  0.3489 -0.8491 -2.1548
   61CHL1   C11 6954   5.631   5.974   9.841  0.0356 -0.5482 -0.1151
   61CHL1  H11A 6955   5.520   5.971   9.837 -0.0735  2.1603 -1.5269
   61CHL1  H11B 6956   5.669   5.873   9.867 -1.0117 -0.1949  3.3245
   61CHL1    C9 6957   5.681   6.065   9.960  0.2728 -0.7440 -0.2031
   61CHL1    H9 6958   5.788   6.035   9.955  0.1639 -1.0180 -1.0438
   61CHL1   C10 6959   5.620   6.031  10.101  0.5106 -0.2496  0.1034
   61CHL1   C19 6960   5.464   6.044  10.087 -0.6941 -0.4938 -0.4975
   61CHL1  H19A 6961   5.414   6.029  10.185  0.2689 -0.2680  0.0459
   61CHL1  H19B 6962   5.444   6.149  10.058  0.7789  0.4250  1.5281
   61CHL1  H19C 6963   5.417   5.974  10.015 -1.3703  1.0600 -1.6371
   61CHL1    C1 6964   5.657   5.890  10.136 -0.1105  0.7288 -0.1346
   61CHL1   H1A 6965   5.621   5.821  10.056  1.7311  1.5978 -1.8127
   61CHL1   H1B 6966   5.768   5.883  10.129 -0.0819  0.8342  0.1863
   61CHL1    C2 6967   5.625   5.850  10.276 -0.2249  0.3134  0.0784
   61CHL1   H2A 6968   5.657   5.744  10.282  2.0249  0.9851  0.7172
   61CHL1   H2B 6969   5.514   5.857  10.278 -0.2023  1.9364 -1.8987
   61CHL1   C20 6970   5.670   6.195   9.408 -0.0231  0.0172  0.5858
   61CHL1   H20 6971   5.567   6.237   9.408 -0.0051  0.3062 -2.7276
   61CHL1   C21 6972   5.661   6.047   9.360 -0.7492  0.3331 -0.5998
   61CHL1  H21A 6973   5.761   5.999   9.363 -1.3846 -0.9726  0.7365
   61CHL1  H21B 6974   5.627   6.052   9.254 -0.6910  2.5769 -0.5592
   61CHL1  H21C 6975   5.596   5.981   9.421 -0.1407 -0.1509 -0.4741
   61CHL1   C22 6976   5.747   6.263   9.295  0.8561  0.1009  0.1248
   61CHL1  H22A 6977   5.692   6.270   9.198 -0.8380  0.0065  1.0336
   61CHL1  H22B 6978   5.757   6.368   9.330  1.2734 -0.7553  2.7514
   61CHL1   C23 6979   5.876   6.196   9.250  1.0956 -0.2452  1.0617
   61CHL1  H23A 6980   5.943   6.177   9.337 -0.5912  0.6238  2.6004
   61CHL1  H23B 6981   5.851   6.099   9.202  1.6087  0.1642 -0.0701
   61CHL1   C24 6982   5.959   6.261   9.139 -1.0467 -0.5325 -0.4991
   61CHL1  H24A 6983   5.969   6.366   9.173  3.3060 -1.1218  0.6320
   61CHL1  H24B 6984   6.063   6.222   9.145 -0.7753  0.4179  1.3334
   61CHL1   C25 6985   5.903   6.256   8.998 -0.6254  0.6266 -0.2900
   61CHL1   H25 6986   5.794   6.278   9.001 -0.4865  1.3669 -0.3185
   61CHL1   C26 6987   5.967   6.366   8.913 -0.0150  0.0657  0.3138
   61CHL1  H26A 6988   5.955   6.466   8.960  2.5993  0.7863 -0.4237
   61CHL1  H26B 6989   6.076   6.344   8.912  0.4195  1.7528  2.4232
   61CHL1  H26C 6990   5.925   6.376   8.811 -1.5135 -0.0967  0.8788
   61CHL1   C27 6991   5.933   6.123   8.934  0.8129 -0.3642 -0.3537
   61CHL1  H27A 6992   6.037   6.095   8.963  0.8930 -0.9199 -1.1432
   61CHL1  H27B 6993   5.866   6.042   8.970  0.1593  0.0554 -0.6151
   61CHL1  H27C 6994   5.913   6.115   8.825  2.1879 -1.8618 -0.5366
   62CHL1    C3 6995   5.584   1.990  10.119  0.3830  0.1754 -0.2458
   62CHL1    H3 6996   5.500   2.060  10.099  0.4887  1.0359  2.0419
   62CHL1    O3 6997   5.597   1.972  10.261 -0.1208  0.8399 -0.3101
   62CHL1   H3' 6998   5.641   2.051  10.294  1.6985 -0.2697  0.0553
   62CHL1    C4 6999   5.544   1.856  10.056  0.0564 -0.0177  0.1417
   62CHL1   H4A 7000   5.622   1.777  10.060 -1.2098 -1.3885 -1.0718
   62CHL1   H4B 7001   5.456   1.824  10.116 -0.0304 -0.2397 -0.1026
   62CHL1    C5 7002   5.504   1.883   9.910 -0.2893 -0.2707  0.3111
   62CHL1    C6 7003   5.383   1.867   9.859  0.2602 -0.2683  0.1475
   62CHL1    H6 7004   5.305   1.820   9.920 -0.7429  0.5343 -0.4887
   62CHL1    C7 7005   5.341   1.891   9.715  0.6325 -0.9391 -0.2073
   62CHL1   H7A 7006   5.278   1.809   9.674 -1.3044 -1.1864  2.8891
   62CHL1   H7B 7007   5.275   1.979   9.731  1.2719 -0.6848  1.1740
   62CHL1    C8 7008   5.455   1.919   9.621 -1.1154 -0.0622 -0.4790
   62CHL1    H8 7009   5.501   1.819   9.604 -1.1929 -0.0577 -0.7162
   62CHL1   C14 7010   5.412   1.982   9.488  0.6714 -0.2130 -0.2893
   62CHL1   H14 7011   5.368   2.080   9.515  1.3230 -0.3601  1.4513
   62CHL1   C15 7012   5.297   1.914   9.403  0.8949  0.0164 -0.0091
   62CHL1  H15A 7013   5.313   1.807   9.376 -0.7609 -0.4889  0.9191
   62CHL1  H15B 7014   5.204   1.926   9.462 -0.3391 -0.9216 -1.6602
   62CHL1   C16 7015   5.302   1.987   9.266  0.1711  0.3592 -0.0547
   62CHL1  H16A 7016   5.297   1.911   9.185 -1.6280  0.4389 -0.0520
   62CHL1  H16B 7017   5.209   2.045   9.253 -0.3631 -0.7369 -1.3725
   62CHL1   C17 7018   5.434   2.069   9.271  0.9029 -0.0497  0.0676
   62CHL1   H17 7019   5.410   2.174   9.296  1.1550 -0.0584  0.3456
   62CHL1   C13 7020   5.520   2.013   9.392 -0.2828 -0.1672  0.2999
   62CHL1   C18 7021   5.592   1.884   9.340 -0.4739  0.4908  0.2193
   62CHL1  H18A 7022   5.640   1.832   9.425  1.5377  0.9120 -0.6068
   62CHL1  H18B 7023   5.527   1.812   9.286  0.3827  0.3852 -0.7021
   62CHL1  H18C 7024   5.676   1.904   9.271  0.8355 -0.6756  1.4105
   62CHL1   C12 7025   5.622   2.108   9.453  0.1490  0.0428  0.3555
   62CHL1  H12A 7026   5.716   2.126   9.396  0.4578  0.7870  1.0676
   62CHL1  H12B 7027   5.577   2.205   9.482 -1.2116  0.5208 -2.9942
   62CHL1   C11 7028   5.674   2.049   9.589 -0.0794 -0.5445 -0.1512
   62CHL1  H11A 7029   5.731   1.957   9.564  1.0446 -0.6099  2.3166
   62CHL1  H11B 7030   5.750   2.115   9.635 -2.8271  1.6830  1.5683
   62CHL1    C9 7031   5.564   2.010   9.693 -0.1777  0.2641  0.2498
   62CHL1    H9 7032   5.510   2.104   9.719 -0.9368 -0.4235  1.2544
   62CHL1   C10 7033   5.617   1.944   9.823 -0.3407  0.6763  0.2001
   62CHL1   C19 7034   5.710   1.824   9.789 -0.1014  0.2188  0.2182
   62CHL1  H19A 7035   5.806   1.865   9.751  0.7282  0.7204  2.6379
   62CHL1  H19B 7036   5.738   1.763   9.878  1.9402  1.0182  0.1663
   62CHL1  H19C 7037   5.664   1.773   9.702  1.4308  1.7844 -1.5968
   62CHL1    C1 7038   5.695   2.057   9.902  0.5501 -0.0084  0.6716
   62CHL1   H1A 7039   5.795   2.076   9.857  0.4191  1.0715  0.8029
   62CHL1   H1B 7040   5.633   2.149   9.891 -1.4417 -1.2529  1.0579
   62CHL1    C2 7041   5.709   2.044  10.051  0.4513  0.0973 -0.1121
   62CHL1   H2A 7042   5.729   2.147  10.089 -2.1365  0.9902 -0.9864
   62CHL1   H2B 7043   5.792   1.977  10.083 -0.6104 -1.3728 -0.3286
   62CHL1   C20 7044   5.507   2.068   9.140 -1.0228  0.2296  0.7417
   62CHL1   H20 7045   5.515   1.962   9.107 -0.8407  0.6326 -0.5585
   62CHL1   C21 7046   5.644   2.146   9.146  0.3583  0.2387  0.2634
   62CHL1  H21A 7047   5.630   2.241   9.202 -2.3223 -1.1897  2.2379
   62CHL1  H21B 7048   5.704   2.148   9.053  0.8820 -0.3832  0.5788
   62CHL1  H21C 7049   5.712   2.086   9.210 -2.5968 -2.8841  0.8318
   62CHL1   C22 7050   5.429   2.144   9.036 -0.4995  0.1291  0.3163
   62CHL1  H22A 7051   5.322   2.114   9.034 -0.3289 -0.4841 -0.1084
   62CHL1  H22B 7052   5.450   2.253   9.031  1.2578 -0.2101 -0.4726
   62CHL1   C23 7053   5.487   2.111   8.897  0.1387 -0.1278  0.5741
   62CHL1  H23A 7054   5.593   2.145   8.893  0.5682 -1.5014 -0.9488
   62CHL1  H23B 7055   5.498   2.000   8.891 -0.7200 -0.1485 -2.2209
   62CHL1   C24 7056   5.400   2.162   8.783 -0.0997 -0.5484 -0.0298
   62CHL1  H24A 7057   5.298   2.118   8.790 -1.1996  2.1132  2.9176
   62CHL1  H24B 7058   5.389   2.272   8.789 -0.3368 -0.4087 -2.0486
   62CHL1   C25 7059   5.448   2.111   8.644 -0.2055  0.3531  0.6977
   62CHL1   H25 7060   5.468   2.002   8.645 -2.1773 -0.1430 -1.9414
   62CHL1   C26 7061   5.335   2.140   8.543 -0.4558  0.9467 -0.4677
   62CHL1  H26A 7062   5.377   2.121   8.442  0.0862 -1.4391  0.1482
   62CHL1  H26B 7063   5.251   2.069   8.557  1.1894 -0.5830  2.5122
   62CHL1  H26C 7064   5.304   2.246   8.556 -1.5850  0.7865 -1.5776
   62CHL1   C27 7065   5.581   2.183   8.602  0.2480  0.0802 -0.5552
   62CHL1  H27A 7066   5.658   2.161   8.680  0.8529  0.8565 -0.9203
   62CHL1  H27B 7067   5.621   2.166   8.500  1.8815 -2.5171  0.4203
   62CHL1  H27C 7068   5.548   2.288   8.615  2.2080  0.8089 -1.1571
   63CHL1    C3 7069   0.253   4.745  10.360  0.9198  0.0947  0.0687
   63CHL1    H3 7070   0.160   4.769  10.304  1.7100  1.5814 -0.6503
   63CHL1    O3 7071   0.224   4.753  10.500  0.2710  0.2270 -0.2886
   63CHL1   H3' 7072   0.190   4.843  10.505 -1.2294 -0.2223 -1.6593
   63CHL1    C4 7073   0.304   4.608  10.330  0.5911 -0.5686 -0.4364
   63CHL1   H4A 7074   0.384   4.570  10.396 -0.7511 -4.8407 -0.9697
   63CHL1   H4B 7075   0.221   4.537  10.352 -0.8084  1.0239 -0.3735
   63CHL1    C5 7076   0.346   4.601  10.185 -0.4941 -0.0632 -0.4329
   63CHL1    C6 7077   0.288   4.510  10.101 -0.3272  0.2123  0.3741
   63CHL1    H6 7078   0.217   4.434  10.138 -3.3369  1.8056 -1.6615
   63CHL1    C7 7079   0.328   4.497   9.956  0.2054  0.7382  0.9056
   63CHL1   H7A 7080   0.353   4.392   9.932  1.2036  1.8536 -4.1975
   63CHL1   H7B 7081   0.237   4.521   9.896  0.4668 -0.9474 -0.2058
   63CHL1    C8 7082   0.450   4.577   9.920  0.3918  0.6847  0.8195
   63CHL1    H8 7083   0.538   4.524   9.962  0.1175 -0.0979  0.4180
   63CHL1   C14 7084   0.450   4.596   9.766  0.5315  0.7166 -0.4842
   63CHL1   H14 7085   0.359   4.657   9.751  0.8177  1.1621 -0.4464
   63CHL1   C15 7086   0.434   4.470   9.678  0.3719  0.0939  0.2671
   63CHL1  H15A 7087   0.496   4.383   9.708 -1.7550 -1.5041  0.2372
   63CHL1  H15B 7088   0.328   4.445   9.658  0.2265  0.6642  0.3032
   63CHL1   C16 7089   0.477   4.530   9.543  0.1559  0.9536  0.0829
   63CHL1  H16A 7090   0.547   4.455   9.501 -1.8533 -0.7306 -0.4339
   63CHL1  H16B 7091   0.385   4.528   9.480 -0.7359  0.3129  1.3671
   63CHL1   C17 7092   0.542   4.669   9.566 -0.3774 -0.3342  0.6189
   63CHL1   H17 7093   0.470   4.752   9.550  0.0004  0.3813  2.4041
   63CHL1   C13 7094   0.569   4.678   9.710  0.3170 -0.0727 -0.2468
   63CHL1   C18 7095   0.697   4.603   9.745 -0.2408 -0.6278 -0.6218
   63CHL1  H18A 7096   0.696   4.583   9.854  2.7421 -1.4607 -0.6368
   63CHL1  H18B 7097   0.694   4.501   9.701  1.4970 -1.0515  0.1450
   63CHL1  H18C 7098   0.782   4.668   9.714  0.1751 -1.3380 -0.9879
   63CHL1   C12 7099   0.559   4.817   9.779  0.3840 -0.2943 -0.2878
   63CHL1  H12A 7100   0.645   4.877   9.743  0.1954  0.3980  0.3989
   63CHL1  H12B 7101   0.462   4.863   9.752  1.1737  0.2656 -2.3775
   63CHL1   C11 7102   0.567   4.803   9.930  0.0570 -0.4211  1.0433
   63CHL1  H11A 7103   0.660   4.748   9.954  0.3572 -0.8018 -0.8456
   63CHL1  H11B 7104   0.565   4.907   9.970 -0.9530  0.4453 -1.1287
   63CHL1    C9 7105   0.447   4.713   9.984 -0.7061 -0.3321  0.0905
   63CHL1    H9 7106   0.363   4.774   9.944  0.9823  1.3895 -0.9485
   63CHL1   C10 7107   0.444   4.706  10.137  0.1264 -0.5809 -0.0524
   63CHL1   C19 7108   0.580   4.669  10.198  0.6310 -0.5896 -0.1719
   63CHL1  H19A 7109   0.650   4.748  10.164 -0.0318  1.6489  3.2353
   63CHL1  H19B 7110   0.570   4.677  10.309 -1.3037 -0.2711 -0.3329
   63CHL1  H19C 7111   0.614   4.566  10.174  1.3468 -1.1944  2.9320
   63CHL1    C1 7112   0.411   4.854  10.181  0.2085  0.0886 -0.1955
   63CHL1   H1A 7113   0.492   4.928  10.166 -0.9275  1.4215 -0.0014
   63CHL1   H1B 7114   0.323   4.891  10.125 -1.1212  1.4154  2.5543
   63CHL1    C2 7115   0.363   4.850  10.332 -0.2066 -0.0772 -0.3495
   63CHL1   H2A 7116   0.335   4.950  10.370  1.3373 -0.6094  2.4440
   63CHL1   H2B 7117   0.452   4.821  10.391 -0.7093 -0.7306  0.0998
   63CHL1   C20 7118   0.654   4.703   9.469 -0.5812  0.8032 -0.0192
   63CHL1   H20 7119   0.741   4.635   9.484 -2.1216 -1.7404 -1.8148
   63CHL1   C21 7120   0.697   4.849   9.471  0.2302  0.2974 -0.8523
   63CHL1  H21A 7121   0.602   4.906   9.461 -0.2944  0.4549  3.2954
   63CHL1  H21B 7122   0.759   4.887   9.387 -0.6694  1.3728 -1.0618
   63CHL1  H21C 7123   0.732   4.870   9.575 -2.7691  2.2365 -0.0995
   63CHL1   C22 7124   0.596   4.667   9.329  0.9657  0.1777 -0.7278
   63CHL1  H22A 7125   0.610   4.557   9.320  0.2864 -0.4996  4.0074
   63CHL1  H22B 7126   0.489   4.694   9.316  1.2632  2.6743  1.1657
   63CHL1   C23 7127   0.671   4.728   9.210 -0.4792 -0.3955 -0.4263
   63CHL1  H23A 7128   0.651   4.837   9.204  0.2670 -0.2290 -0.0662
   63CHL1  H23B 7129   0.782   4.717   9.217 -0.2758  0.9784 -1.0917
   63CHL1   C24 7130   0.630   4.669   9.082 -0.0044 -0.2743 -0.4673
   63CHL1  H24A 7131   0.603   4.561   9.088 -2.6075  0.3698  2.1266
   63CHL1  H24B 7132   0.527   4.704   9.060 -0.1031 -0.0922  0.2620
   63CHL1   C25 7133   0.725   4.694   8.958  0.1744  0.1114  0.0701
   63CHL1   H25 7134   0.734   4.805   8.955 -1.3205  0.2636  0.5287
   63CHL1   C26 7135   0.860   4.617   8.948 -0.5600 -0.3024  0.0233
   63CHL1  H26A 7136   0.912   4.631   9.045 -1.3617 -1.4454  0.6358
   63CHL1  H26B 7137   0.854   4.508   8.925  1.2188 -0.4969  0.2872
   63CHL1  H26C 7138   0.915   4.664   8.863  2.1528 -1.6948  0.8841
   63CHL1   C27 7139   0.649   4.665   8.827 -0.0126 -0.1905 -0.7030
   63CHL1  H27A 7140   0.561   4.731   8.839  0.7151  0.6305  0.3712
   63CHL1  H27B 7141   0.702   4.707   8.740  0.1934  3.9075  1.1765
   63CHL1  H27C 7142   0.612   4.560   8.822  1.3979 -0.6495 -2.8885
   64CHL1    C3 7143   6.774   4.662   9.979 -0.5824 -0.1168 -0.9466
   64CHL1    H3 7144   6.878   4.638  10.009 -0.7049 -0.4147 -0.7457
   64CHL1    O3 7145   6.706   4.666  10.101 -0.3234 -0.2077  0.3952
   64CHL1   H3' 7146   6.714   4.759  10.124  1.2024 -0.0943 -0.4628
   64CHL1    C4 7147   6.782   4.791   9.901  0.3919 -0.1941  0.0914
   64CHL1   H4A 7148   6.677   4.825   9.899  0.9607  1.9364  2.0430
   64CHL1   H4B 7149   6.840   4.865   9.960 -1.7535  0.5268  1.4031
   64CHL1    C5 7150   6.838   4.773   9.759  0.3167  0.0705 -0.4627
   64CHL1    C6 7151   6.939   4.844   9.713 -0.7053 -0.3368 -0.1290
   64CHL1    H6 7152   6.986   4.908   9.790  0.0737 -0.3240 -0.6070
   64CHL1    C7 7153   7.003   4.844   9.582 -0.9578 -0.3628 -0.7431
   64CHL1   H7A 7154   7.039   4.942   9.544 -1.0529 -0.8144 -2.0364
   64CHL1   H7B 7155   7.092   4.778   9.577 -0.2380  0.6596 -2.2120
   64CHL1    C8 7156   6.907   4.776   9.478  0.5506  0.1884 -0.3330
   64CHL1    H8 7157   6.834   4.857   9.462 -0.4076 -0.3641  1.0817
   64CHL1   C14 7158   6.968   4.734   9.342 -0.8345 -0.6827  0.8437
   64CHL1   H14 7159   7.061   4.676   9.363  1.9506  2.0483 -2.5936
   64CHL1   C15 7160   7.026   4.848   9.259 -0.2160 -0.4118 -0.0696
   64CHL1  H15A 7161   6.968   4.943   9.263  0.3306 -0.1034  2.7719
   64CHL1  H15B 7162   7.125   4.868   9.306  1.7279 -1.4224 -3.4125
   64CHL1   C16 7163   7.036   4.794   9.119 -0.6573 -0.3150 -0.5668
   64CHL1  H16A 7164   6.989   4.871   9.053 -0.7580  0.0478 -0.0730
   64CHL1  H16B 7165   7.144   4.789   9.093 -0.6767  0.1343 -0.7524
   64CHL1   C17 7166   6.968   4.662   9.114  0.2681 -0.0249 -0.4778
   64CHL1   H17 7167   7.049   4.587   9.122  1.0070  0.8619  0.5915
   64CHL1   C13 7168   6.881   4.656   9.241 -0.2558 -0.6061 -0.1786
   64CHL1   C18 7169   6.753   4.733   9.217  0.2114 -0.2301 -0.3534
   64CHL1  H18A 7170   6.769   4.835   9.176  0.6182  0.9463  2.5199
   64CHL1  H18B 7171   6.684   4.678   9.149  0.2866 -1.3077  0.4219
   64CHL1  H18C 7172   6.692   4.748   9.308 -0.9513 -0.0772 -1.1277
   64CHL1   C12 7173   6.855   4.522   9.303 -0.4183 -0.2086 -0.0104
   64CHL1  H12A 7174   6.778   4.465   9.248 -0.0950 -0.0355 -0.6503
   64CHL1  H12B 7175   6.950   4.466   9.317 -1.1437 -1.4609  0.0394
   64CHL1   C11 7176   6.792   4.538   9.443 -0.3535 -0.4279 -0.3083
   64CHL1  H11A 7177   6.684   4.555   9.418 -0.4373 -0.9231 -0.2879
   64CHL1  H11B 7178   6.802   4.441   9.495 -1.8890 -0.2549  0.3786
   64CHL1    C9 7179   6.852   4.643   9.545  0.3166  0.3326 -0.0787
   64CHL1    H9 7180   6.942   4.588   9.581 -0.4316  0.3611  2.0078
   64CHL1   C10 7181   6.771   4.674   9.677  0.4569 -0.0409  0.1878
   64CHL1   C19 7182   6.628   4.715   9.638 -0.1831 -0.1759  0.4354
   64CHL1  H19A 7183   6.568   4.639   9.583  0.1716  0.5127 -0.9490
   64CHL1  H19B 7184   6.563   4.751   9.721  0.6469  0.7268  0.7000
   64CHL1  H19C 7185   6.625   4.799   9.566 -0.5629 -0.7185 -0.1985
   64CHL1    C1 7186   6.767   4.545   9.763  0.6878 -0.4542  0.7761
   64CHL1   H1A 7187   6.712   4.463   9.712  1.0148  0.4865 -1.1577
   64CHL1   H1B 7188   6.874   4.516   9.774  1.8042  3.7139  3.0302
   64CHL1    C2 7189   6.705   4.558   9.897  0.0699 -0.5461  0.0366
   64CHL1   H2A 7190   6.705   4.465   9.958  2.6509  0.0352  1.0441
   64CHL1   H2B 7191   6.597   4.580   9.894  0.1583 -0.1720 -0.6670
   64CHL1   C20 7192   6.898   4.636   8.981  0.7596  0.2867  0.1577
   64CHL1   H20 7193   6.823   4.715   8.959  1.0999  0.2396 -1.3060
   64CHL1   C21 7194   6.810   4.503   8.985 -0.6359 -0.0497 -0.4349
   64CHL1  H21A 7195   6.793   4.447   8.891  3.0832 -1.4663 -0.4340
   64CHL1  H21B 7196   6.716   4.510   9.043  0.2119  2.2750  0.7949
   64CHL1  H21C 7197   6.873   4.436   9.048 -0.9629 -0.8223 -0.9132
   64CHL1   C22 7198   6.993   4.640   8.863 -0.0888  0.2768  0.1862
   64CHL1  H22A 7199   7.097   4.668   8.892  0.4440 -2.7290  1.4878
   64CHL1  H22B 7200   7.002   4.533   8.835  3.8276 -0.2184  2.5280
   64CHL1   C23 7201   6.943   4.724   8.738 -0.5892 -0.0266 -0.3371
   64CHL1  H23A 7202   6.841   4.680   8.727  0.3204 -1.9530 -1.6239
   64CHL1  H23B 7203   6.937   4.833   8.759 -0.6794 -0.1783  0.4675
   64CHL1   C24 7204   7.019   4.707   8.599 -0.0263  0.0508 -0.6239
   64CHL1  H24A 7205   7.018   4.598   8.578 -0.7648 -0.3635  1.3248
   64CHL1  H24B 7206   6.963   4.760   8.519  2.0374  2.7563 -0.4243
   64CHL1   C25 7207   7.168   4.752   8.577 -0.0543 -0.9406 -0.8081
   64CHL1   H25 7208   7.224   4.713   8.664 -1.1309 -0.1404  0.2731
   64CHL1   C26 7209   7.236   4.693   8.458  1.2754 -0.4845  0.2049
   64CHL1  H26A 7210   7.224   4.582   8.467  0.9775 -0.3270  2.0007
   64CHL1  H26B 7211   7.179   4.713   8.365  0.3306  0.5213  0.9882
   64CHL1  H26C 7212   7.342   4.726   8.453  0.4504  2.6670  1.6157
   64CHL1   C27 7213   7.196   4.905   8.582 -0.0488 -0.3591  0.2660
   64CHL1  H27A 7214   7.157   4.952   8.675  1.9721  0.6689  0.6289
   64CHL1  H27B 7215   7.302   4.922   8.555  0.9872 -2.3315  2.6166
   64CHL1  H27C 7216   7.137   4.950   8.500 -0.8428 -1.8119  0.0043
   65CHL1    C3 7217   1.816   0.357  10.219  0.1439 -0.5913 -0.0486
   65CHL1    H3 7218   1.922   0.386  10.206  0.3770 -1.5052 -0.2306
   65CHL1    O3 7219   1.783   0.318  10.355 -0.4269 -0.2980  0.4548
   65CHL1   H3' 7220   1.691   0.292  10.355 -0.7639  0.7587 -0.9490
   65CHL1    C4 7221   1.739   0.478  10.170 -0.3077 -0.0039  0.0645
   65CHL1   H4A 7222   1.630   0.463  10.178 -0.1115 -0.6918  2.0942
   65CHL1   H4B 7223   1.756   0.556  10.248  1.4028 -0.9294  0.6890
   65CHL1    C5 7224   1.776   0.528  10.027 -0.1655 -0.1712 -0.6751
   65CHL1    C6 7225   1.839   0.645  10.000  0.2716  0.3023 -0.3186
   65CHL1    H6 7226   1.860   0.710  10.086  0.1260  0.8641 -0.7007
   65CHL1    C7 7227   1.878   0.691   9.862  0.1449 -0.9875 -0.2924
   65CHL1   H7A 7228   1.842   0.796   9.851  0.6991 -0.7538  0.0789
   65CHL1   H7B 7229   1.986   0.676   9.840  0.4339 -2.0864  1.7000
   65CHL1    C8 7230   1.818   0.601   9.747 -1.2403  0.1066  0.0339
   65CHL1    H8 7231   1.711   0.625   9.730 -1.6553 -1.6590 -0.0016
   65CHL1   C14 7232   1.885   0.614   9.605  0.4787 -0.2991 -0.3153
   65CHL1   H14 7233   1.989   0.574   9.611 -0.0202 -1.5278  0.8277
   65CHL1   C15 7234   1.908   0.759   9.558  0.7464  0.6946 -0.1833
   65CHL1  H15A 7235   1.820   0.827   9.550 -0.0948 -0.5714 -3.1712
   65CHL1  H15B 7236   1.995   0.798   9.615  0.5608 -0.9907  1.3126
   65CHL1   C16 7237   1.937   0.743   9.407  0.3207  0.7415 -0.3374
   65CHL1  H16A 7238   1.873   0.802   9.338  0.5207 -1.1672 -2.2930
   65CHL1  H16B 7239   2.039   0.782   9.384  0.8735  0.1145  0.9586
   65CHL1   C17 7240   1.915   0.585   9.370  0.5976 -0.2729 -0.8533
   65CHL1   H17 7241   2.010   0.531   9.387 -0.2537 -1.5583 -0.0250
   65CHL1   C13 7242   1.823   0.542   9.491 -0.0880  0.4409  0.1046
   65CHL1   C18 7243   1.675   0.578   9.461  0.1208 -0.1571 -0.0916
   65CHL1  H18A 7244   1.604   0.569   9.546 -2.9237  0.5623 -2.3744
   65CHL1  H18B 7245   1.672   0.688   9.444  2.9178 -0.3877 -2.8931
   65CHL1  H18C 7246   1.628   0.520   9.380 -0.3858  0.2879 -0.1272
   65CHL1   C12 7247   1.825   0.387   9.528  0.2362 -0.1817 -0.8653
   65CHL1  H12A 7248   1.758   0.328   9.462 -1.6163  0.0890  0.6899
   65CHL1  H12B 7249   1.928   0.347   9.524 -0.8811 -3.2016 -2.9364
   65CHL1   C11 7250   1.762   0.370   9.671  0.1950 -0.6979 -0.0022
   65CHL1  H11A 7251   1.654   0.395   9.662  0.5717  0.3527 -2.5260
   65CHL1  H11B 7252   1.777   0.261   9.688  0.8923 -0.3124  2.1230
   65CHL1    C9 7253   1.816   0.451   9.784  0.2375 -1.3254 -0.1468
   65CHL1    H9 7254   1.924   0.426   9.779  0.4094 -0.3831 -2.7651
   65CHL1   C10 7255   1.750   0.420   9.922  0.0031 -1.0167 -0.4260
   65CHL1   C19 7256   1.594   0.402   9.912  0.1057 -0.1705 -0.0865
   65CHL1  H19A 7257   1.554   0.491   9.860 -3.1700 -0.6045  1.4294
   65CHL1  H19B 7258   1.577   0.316   9.842  0.0560 -1.4830  1.4737
   65CHL1  H19C 7259   1.532   0.374   9.999  1.5189 -2.2409  0.3232
   65CHL1    C1 7260   1.814   0.288   9.980  0.6433  0.0286  0.7175
   65CHL1   H1A 7261   1.803   0.205   9.906  2.9544  0.9344 -0.7762
   65CHL1   H1B 7262   1.921   0.318   9.974  0.9316 -0.6559  2.0738
   65CHL1    C2 7263   1.776   0.249  10.120  0.1293 -0.0319 -0.2983
   65CHL1   H2A 7264   1.839   0.159  10.140  2.5117  1.4900 -0.4920
   65CHL1   H2B 7265   1.670   0.219  10.125  0.2687 -0.3873  0.6489
   65CHL1   C20 7266   1.859   0.575   9.226  0.2882  0.0723 -0.3044
   65CHL1   H20 7267   1.757   0.620   9.220  0.6928  1.4609  1.9896
   65CHL1   C21 7268   1.846   0.426   9.186  0.3872  0.1467  0.0281
   65CHL1  H21A 7269   1.941   0.369   9.176  0.2954  0.2518 -1.8473
   65CHL1  H21B 7270   1.778   0.420   9.098  1.1948 -0.6658 -0.5565
   65CHL1  H21C 7271   1.793   0.361   9.260  0.7512 -1.5808 -1.1579
   65CHL1   C22 7272   1.949   0.647   9.115  0.0466 -0.6105 -0.9719
   65CHL1  H22A 7273   2.005   0.734   9.156  2.6718 -1.9351 -1.5425
   65CHL1  H22B 7274   2.025   0.567   9.100  2.1624  1.0889  0.0418
   65CHL1   C23 7275   1.874   0.714   9.005 -0.4176 -0.7970 -0.4631
   65CHL1  H23A 7276   1.817   0.640   8.944 -0.9030 -0.5520 -0.3176
   65CHL1  H23B 7277   1.791   0.775   9.048 -0.2823  1.1392 -2.7874
   65CHL1   C24 7278   1.976   0.798   8.923  0.3403 -0.3006 -0.0369
   65CHL1  H24A 7279   2.032   0.877   8.978 -2.5106  1.5515  0.4052
   65CHL1  H24B 7280   2.057   0.734   8.883  2.4009  3.0257 -1.5832
   65CHL1   C25 7281   1.913   0.880   8.801 -0.1442 -0.2776  0.5917
   65CHL1   H25 7282   1.846   0.954   8.849 -0.7822 -1.0391  0.8857
   65CHL1   C26 7283   2.022   0.960   8.731 -0.5640 -0.0479  0.9814
   65CHL1  H26A 7284   2.091   1.004   8.806  0.7042 -1.5324  0.7300
   65CHL1  H26B 7285   2.072   0.904   8.650 -1.6534  0.5472 -0.1343
   65CHL1  H26C 7286   1.987   1.052   8.680  2.1294  0.5847  0.1206
   65CHL1   C27 7287   1.838   0.793   8.702 -0.2900  0.6472 -0.4553
   65CHL1  H27A 7288   1.826   0.851   8.608  1.1967  0.8678 -0.5328
   65CHL1  H27B 7289   1.899   0.702   8.686 -1.6991 -0.9948  2.6676
   65CHL1  H27C 7290   1.741   0.757   8.742  0.1226 -2.2158 -1.7940
   66CHL1    C3 7291   1.437   6.426  10.589  0.2265  0.4624 -0.9447
   66CHL1    H3 7292   1.458   6.533  10.567  1.1639  0.3609 -0.6002
   66CHL1    O3 7293   1.475   6.390  10.725 -0.0118 -0.2347  0.6477
   66CHL1   H3' 7294   1.490   6.474  10.769 -0.8267  0.2317  0.0523
   66CHL1    C4 7295   1.289   6.401  10.574  0.7292  0.4755  1.0002
   66CHL1   H4A 7296   1.273   6.292  10.592  0.7565  0.1872 -0.5967
   66CHL1   H4B 7297   1.218   6.457  10.638 -1.7194  1.2100 -2.0845
   66CHL1    C5 7298   1.243   6.423  10.431  0.0932 -0.3019 -0.0226
   66CHL1    C6 7299   1.143   6.503  10.392 -0.1383 -1.3521  0.3710
   66CHL1    H6 7300   1.082   6.568  10.455  0.5968  1.2342 -1.4379
   66CHL1    C7 7301   1.090   6.518  10.251 -0.3923 -0.6574  0.2087
   66CHL1   H7A 7302   0.979   6.519  10.249 -0.5177  2.6212 -2.4272
   66CHL1   H7B 7303   1.108   6.616  10.201 -0.2019 -1.7636 -2.0340
   66CHL1    C8 7304   1.147   6.408  10.159  0.3609 -0.6020  0.2091
   66CHL1    H8 7305   1.096   6.313  10.184  0.8359 -0.6293  1.1138
   66CHL1   C14 7306   1.119   6.457  10.013  0.3086  0.8237 -0.2649
   66CHL1   H14 7307   1.193   6.538  10.000  2.3008 -0.5558  1.6409
   66CHL1   C15 7308   0.982   6.514   9.974 -0.5928  0.5060 -0.0647
   66CHL1  H15A 7309   0.902   6.437   9.978  0.2523 -0.8023 -3.9234
   66CHL1  H15B 7310   0.958   6.607  10.030  1.0200  0.2140  1.1868
   66CHL1   C16 7311   1.002   6.523   9.825 -0.7461 -1.4303  0.4652
   66CHL1  H16A 7312   0.909   6.483   9.778 -2.1071 -1.1178  2.7709
   66CHL1  H16B 7313   1.017   6.629   9.797 -2.2554 -0.6957  2.2301
   66CHL1   C17 7314   1.128   6.451   9.783  0.1622  0.4714  0.0148
   66CHL1   H17 7315   1.214   6.520   9.767  1.0437 -0.5171  0.3001
   66CHL1   C13 7316   1.165   6.360   9.910 -0.5245  0.4092  0.8766
   66CHL1   C18 7317   1.083   6.226   9.909  0.1425 -0.3453  0.1346
   66CHL1  H18A 7318   0.988   6.253   9.859 -0.1691 -0.2131  0.7883
   66CHL1  H18B 7319   1.143   6.149   9.856  1.2322  1.5831 -1.5929
   66CHL1  H18C 7320   1.044   6.198  10.009 -2.1693  0.2698 -0.5259
   66CHL1   C12 7321   1.318   6.338   9.926  0.2153 -0.2487  0.3983
   66CHL1  H12A 7322   1.351   6.260   9.855 -1.9294  0.9187 -2.0420
   66CHL1  H12B 7323   1.371   6.433   9.905 -0.2079 -0.1673 -0.3415
   66CHL1   C11 7324   1.352   6.297  10.067 -0.7165  0.0184 -0.6970
   66CHL1  H11A 7325   1.326   6.190  10.082  0.8034 -0.2957 -0.1651
   66CHL1  H11B 7326   1.462   6.297  10.074 -0.5370 -2.2982 -2.3422
   66CHL1    C9 7327   1.300   6.380  10.178 -0.2082 -0.1474 -0.7663
   66CHL1    H9 7328   1.346   6.480  10.179 -1.1803  0.3094 -0.4648
   66CHL1   C10 7329   1.328   6.342  10.321 -0.4807 -0.4660  0.4769
   66CHL1   C19 7330   1.303   6.187  10.342  0.0579  0.1394 -0.7918
   66CHL1  H19A 7331   1.200   6.151  10.320  0.3435 -0.6198 -0.9192
   66CHL1  H19B 7332   1.382   6.127  10.292  2.1539  3.5960 -1.9846
   66CHL1  H19C 7333   1.314   6.157  10.448  2.0697 -0.1991 -1.0592
   66CHL1    C1 7334   1.477   6.363  10.350 -0.1682 -0.4129 -0.8884
   66CHL1   H1A 7335   1.540   6.291  10.293  0.2563 -0.6964 -0.0781
   66CHL1   H1B 7336   1.513   6.458  10.304  2.2152  0.2617  2.0904
   66CHL1    C2 7337   1.522   6.346  10.491 -0.3756 -0.0883  0.3521
   66CHL1   H2A 7338   1.630   6.370  10.499 -0.4739 -0.3051  4.1720
   66CHL1   H2B 7339   1.518   6.240  10.524 -0.3889  0.4036  1.9781
   66CHL1   C20 7340   1.113   6.373   9.648 -0.7180  0.0066 -0.1565
   66CHL1   H20 7341   1.036   6.296   9.669 -1.9303  1.5251  1.2177
   66CHL1   C21 7342   1.246   6.308   9.597  0.4102 -0.3670 -0.0806
   66CHL1  H21A 7343   1.269   6.217   9.656 -1.0907 -0.0019  1.1504
   66CHL1  H21B 7344   1.331   6.378   9.609  0.0369 -0.3405  3.6633
   66CHL1  H21C 7345   1.248   6.284   9.489 -0.8354  1.0922 -0.4655
   66CHL1   C22 7346   1.062   6.460   9.526  0.4726  0.1603 -1.2656
   66CHL1  H22A 7347   1.044   6.391   9.441 -0.4160  0.7485 -1.5726
   66CHL1  H22B 7348   0.966   6.505   9.557  0.5908  0.1446 -0.8737
   66CHL1   C23 7349   1.161   6.575   9.478  0.0027 -0.2253 -0.0934
   66CHL1  H23A 7350   1.147   6.658   9.550 -0.0222 -0.6425  0.3840
   66CHL1  H23B 7351   1.263   6.533   9.487  0.7128  0.7726 -2.4980
   66CHL1   C24 7352   1.134   6.616   9.333  0.2504 -0.2091  0.1211
   66CHL1  H24A 7353   1.026   6.638   9.328  0.4254  0.5326 -0.7763
   66CHL1  H24B 7354   1.195   6.709   9.319 -2.3876  1.3310 -2.0724
   66CHL1   C25 7355   1.167   6.515   9.216  1.2279 -0.3541  0.3842
   66CHL1   H25 7356   1.097   6.431   9.238 -0.2322  1.2581  2.2213
   66CHL1   C26 7357   1.135   6.569   9.076 -1.1451 -0.4190  0.8811
   66CHL1  H26A 7358   1.206   6.652   9.054 -0.8745 -0.8586  0.0655
   66CHL1  H26B 7359   1.141   6.496   8.993  3.5166 -0.0042  0.5700
   66CHL1  H26C 7360   1.032   6.612   9.075 -0.0252  2.5630 -0.3484
   66CHL1   C27 7361   1.313   6.463   9.233  0.4119 -0.3414  0.0917
   66CHL1  H27A 7362   1.330   6.425   9.336 -0.5962 -0.4706  0.2216
   66CHL1  H27B 7363   1.332   6.384   9.156  1.7843 -1.2220  1.2746
   66CHL1  H27C 7364   1.377   6.552   9.214  1.1510 -0.2437  2.6697
   67CHL1    C3 7365   3.155   6.204  10.211  0.1800  0.2641  0.1700
   67CHL1    H3 7366   3.207   6.300  10.232  1.7061 -0.4858 -0.0419
   67CHL1    O3 7367   3.102   6.155  10.331 -0.1636 -0.8669  0.3369
   67CHL1   H3' 7368   3.049   6.080  10.301  0.2053 -0.3159 -1.8931
   67CHL1    C4 7369   3.038   6.227  10.116 -0.3408 -0.0061 -0.0595
   67CHL1   H4A 7370   2.975   6.137  10.098  1.6896 -1.3197 -0.8751
   67CHL1   H4B 7371   2.977   6.296  10.178 -0.1745 -0.1094  0.2166
   67CHL1    C5 7372   3.086   6.281   9.984 -0.7970  0.4958 -0.1417
   67CHL1    C6 7373   3.059   6.398   9.936 -0.0031 -0.4805  0.0182
   67CHL1    H6 7374   2.995   6.466   9.994 -0.2484  0.4506 -1.3134
   67CHL1    C7 7375   3.103   6.453   9.802 -0.1821 -0.7409 -0.3255
   67CHL1   H7A 7376   3.011   6.482   9.747 -0.3505  0.8519  0.7232
   67CHL1   H7B 7377   3.171   6.540   9.814  0.3037 -1.1817  0.1453
   67CHL1    C8 7378   3.167   6.344   9.714 -0.8348  0.1835  0.1245
   67CHL1    H8 7379   3.079   6.285   9.681 -0.3571 -0.7498  0.4940
   67CHL1   C14 7380   3.242   6.410   9.597 -0.7661  1.2294 -0.4635
   67CHL1   H14 7381   3.322   6.476   9.636 -0.1355  0.0312  0.3179
   67CHL1   C15 7382   3.170   6.500   9.501 -0.2408  0.0881  0.0829
   67CHL1  H15A 7383   3.068   6.470   9.470  0.6562 -2.1417 -0.9303
   67CHL1  H15B 7384   3.141   6.597   9.547  0.7247  1.2400 -1.6390
   67CHL1   C16 7385   3.261   6.516   9.373 -0.4873 -0.0139  0.5940
   67CHL1  H16A 7386   3.199   6.508   9.282 -0.3381 -0.2518  0.5102
   67CHL1  H16B 7387   3.313   6.614   9.376  1.7424 -1.1183  2.5604
   67CHL1   C17 7388   3.369   6.411   9.387  0.1883 -0.0574 -0.5541
   67CHL1   H17 7389   3.456   6.465   9.431  0.2228 -0.3931 -0.2045
   67CHL1   C13 7390   3.319   6.314   9.502  0.5790  0.5201  0.0454
   67CHL1   C18 7391   3.210   6.222   9.442  0.3746 -0.1144 -0.1975
   67CHL1  H18A 7392   3.246   6.140   9.375  0.1427 -0.7210  0.4045
   67CHL1  H18B 7393   3.160   6.166   9.524  0.5757 -1.0104 -0.6666
   67CHL1  H18C 7394   3.141   6.285   9.382  2.0114 -1.4733 -3.8335
   67CHL1   C12 7395   3.419   6.247   9.592 -0.1297  0.4715  0.3824
   67CHL1  H12A 7396   3.462   6.160   9.538  0.5323  0.5611  0.7552
   67CHL1  H12B 7397   3.504   6.314   9.617  0.3644  0.6217 -1.5743
   67CHL1   C11 7398   3.368   6.180   9.723  0.1048 -0.5410  0.6559
   67CHL1  H11A 7399   3.307   6.090   9.701  2.5252 -2.8038  2.5873
   67CHL1  H11B 7400   3.455   6.140   9.779 -0.3608  1.0635  2.6280
   67CHL1    C9 7401   3.264   6.264   9.800  0.1253  0.7678 -0.6901
   67CHL1    H9 7402   3.329   6.335   9.854  1.9723 -0.7695 -0.7825
   67CHL1   C10 7403   3.189   6.187   9.913 -0.4939  0.2385  0.0388
   67CHL1   C19 7404   3.118   6.061   9.864  0.0031  0.2812 -0.5367
   67CHL1  H19A 7405   3.095   5.997   9.952  0.5693 -0.3557 -0.8459
   67CHL1  H19B 7406   3.025   6.088   9.810  0.4804  0.4358 -1.2977
   67CHL1  H19C 7407   3.179   6.000   9.794  2.7766  1.2786  0.8134
   67CHL1    C1 7408   3.298   6.154  10.013 -0.6720  0.3194  0.6688
   67CHL1   H1A 7409   3.370   6.078   9.975 -0.3321 -0.0360  1.9889
   67CHL1   H1B 7410   3.355   6.248  10.029  3.4757 -1.7218 -0.7271
   67CHL1    C2 7411   3.249   6.103  10.151  0.3590  0.0766  0.0479
   67CHL1   H2A 7412   3.322   6.088  10.233 -1.3192  1.8247  1.9697
   67CHL1   H2B 7413   3.207   6.004  10.123  3.2994 -0.8317 -1.5256
   67CHL1   C20 7414   3.430   6.361   9.251 -0.0330  0.8010 -0.3563
   67CHL1   H20 7415   3.367   6.279   9.210  0.1301  0.4979 -0.0172
   67CHL1   C21 7416   3.576   6.300   9.278  0.2806  0.3279  0.3349
   67CHL1  H21A 7417   3.589   6.243   9.373  1.1329 -0.6238 -0.3267
   67CHL1  H21B 7418   3.656   6.376   9.273 -0.9296  1.7014  1.1825
   67CHL1  H21C 7419   3.596   6.223   9.201  0.2233  0.8425 -0.1996
   67CHL1   C22 7420   3.432   6.464   9.139  0.1705 -0.4242 -0.7395
   67CHL1  H22A 7421   3.326   6.478   9.112  0.1830  0.1926 -0.4617
   67CHL1  H22B 7422   3.473   6.557   9.184 -1.1153 -0.2639  0.1445
   67CHL1   C23 7423   3.504   6.425   9.010 -0.7860 -0.7479  0.6251
   67CHL1  H23A 7424   3.614   6.439   9.011 -1.0218  2.6076 -1.8360
   67CHL1  H23B 7425   3.490   6.318   8.986  1.6189 -0.9979  0.0363
   67CHL1   C24 7426   3.467   6.506   8.882  0.0353 -0.0112  0.0778
   67CHL1  H24A 7427   3.360   6.480   8.864 -0.0426 -0.0440  0.5769
   67CHL1  H24B 7428   3.456   6.615   8.896 -0.6682  0.1072 -1.2317
   67CHL1   C25 7429   3.571   6.497   8.764 -0.1995  0.2987 -0.3556
   67CHL1   H25 7430   3.656   6.548   8.814  0.5298 -1.5094  0.3347
   67CHL1   C26 7431   3.615   6.361   8.725  0.4311 -0.5457  0.3663
   67CHL1  H26A 7432   3.694   6.374   8.648  2.2623 -2.0697  1.8814
   67CHL1  H26B 7433   3.671   6.294   8.794  0.4618  0.2393  1.1178
   67CHL1  H26C 7434   3.530   6.301   8.686 -1.9428  3.0841 -0.5318
   67CHL1   C27 7435   3.512   6.573   8.649 -0.3026  0.9036 -0.4594
   67CHL1  H27A 7436   3.420   6.523   8.611  0.3758 -0.2472 -0.6607
   67CHL1  H27B 7437   3.490   6.678   8.676  2.4254  1.2757  0.7086
   67CHL1  H27C 7438   3.585   6.581   8.566 -2.0472 -0.3647 -2.2216
   68CHL1    C3 7439   0.743   1.115  10.270  0.1451 -0.6895 -1.0351
   68CHL1    H3 7440   0.744   1.004  10.273 -0.3519 -0.6903  1.5722
   68CHL1    O3 7441   0.726   1.160  10.404 -0.4278 -0.3720  0.3472
   68CHL1   H3' 7442   0.660   1.230  10.409 -0.5502 -0.3273 -1.3000
   68CHL1    C4 7443   0.871   1.180  10.204  0.5898  0.2393 -1.0457
   68CHL1   H4A 7444   0.862   1.290  10.205 -0.1527  0.2910 -4.0510
   68CHL1   H4B 7445   0.957   1.151  10.268  0.9670  0.0571 -1.6318
   68CHL1    C5 7446   0.882   1.136  10.061 -0.5208  0.2678 -0.8527
   68CHL1    C6 7447   0.994   1.075  10.016 -0.1916 -0.0574 -0.4645
   68CHL1    H6 7448   1.081   1.076  10.084 -0.5623  2.1622  0.0735
   68CHL1    C7 7449   1.015   1.032   9.877  1.3064  0.2777  0.5982
   68CHL1   H7A 7450   1.111   1.058   9.827  0.2630  0.9044 -1.1837
   68CHL1   H7B 7451   1.007   0.921   9.867  0.8433  0.4624 -1.6309
   68CHL1    C8 7452   0.909   1.095   9.788 -0.8231  0.1582  0.9270
   68CHL1    H8 7453   0.934   1.203   9.778 -1.0232  0.1271 -0.0100
   68CHL1   C14 7454   0.909   1.032   9.645  1.0441  0.5597 -0.2509
   68CHL1   H14 7455   0.879   0.927   9.662  0.4865  0.1450 -3.1980
   68CHL1   C15 7456   1.039   1.022   9.563  0.3031 -0.0810 -0.0230
   68CHL1  H15A 7457   1.096   1.117   9.570 -0.2397  0.3046 -0.6750
   68CHL1  H15B 7458   1.111   0.950   9.605  0.1619  0.8063  1.8557
   68CHL1   C16 7459   0.987   0.997   9.424 -0.6887  0.2804 -0.5300
   68CHL1  H16A 7460   1.037   1.068   9.354  3.5299 -1.8043  0.0519
   68CHL1  H16B 7461   1.013   0.898   9.381  0.0708  0.0400  0.4467
   68CHL1   C17 7462   0.833   1.031   9.417  0.8473 -0.8791  0.1449
   68CHL1   H17 7463   0.779   0.934   9.422  0.4031 -0.6103  0.7991
   68CHL1   C13 7464   0.806   1.098   9.550  0.4809  0.4553 -0.8797
   68CHL1   C18 7465   0.809   1.254   9.556  0.1836 -0.5554  0.7714
   68CHL1  H18A 7466   0.912   1.289   9.538 -0.0689  0.5999  1.4919
   68CHL1  H18B 7467   0.744   1.293   9.474  1.2914  0.6732  0.4494
   68CHL1  H18C 7468   0.775   1.304   9.649  0.3422  0.8880  0.0804
   68CHL1   C12 7469   0.668   1.050   9.606 -0.0939  1.0515  0.2611
   68CHL1  H12A 7470   0.578   1.079   9.548 -1.2813  0.6751  1.8270
   68CHL1  H12B 7471   0.672   0.940   9.613  1.5235  1.0847  0.2941
   68CHL1   C11 7472   0.647   1.108   9.753  0.4997  0.0785 -0.0178
   68CHL1  H11A 7473   0.615   1.215   9.749 -0.8311 -0.3208 -0.6698
   68CHL1  H11B 7474   0.554   1.052   9.777  0.1340 -0.0856 -1.6551
   68CHL1    C9 7475   0.761   1.091   9.852 -0.8587  1.0673 -0.0296
   68CHL1    H9 7476   0.753   0.982   9.872  1.5594  0.6206 -1.1116
   68CHL1   C10 7477   0.750   1.157   9.983  0.0237 -0.3885 -0.3047
   68CHL1   C19 7478   0.738   1.309   9.964 -0.0582  0.3801  0.5498
   68CHL1  H19A 7479   0.644   1.332   9.910 -0.6417 -0.6366  1.1061
   68CHL1  H19B 7480   0.752   1.366  10.059  0.6810 -3.0516  2.7098
   68CHL1  H19C 7481   0.813   1.342   9.889  0.9464 -1.0124  0.8850
   68CHL1    C1 7482   0.618   1.106  10.051  0.1769 -1.4674  0.1333
   68CHL1   H1A 7483   0.534   1.159  10.002 -0.0832  0.1041  2.1295
   68CHL1   H1B 7484   0.618   0.995  10.041  2.7211 -1.7087  1.6913
   68CHL1    C2 7485   0.615   1.151  10.199  0.4965  0.3262 -0.0270
   68CHL1   H2A 7486   0.527   1.103  10.248  1.2764 -0.2200  0.8706
   68CHL1   H2B 7487   0.596   1.260  10.211 -1.9332 -0.0662  0.2593
   68CHL1   C20 7488   0.785   1.105   9.286 -0.5238 -0.4311  0.3880
   68CHL1   H20 7489   0.836   1.204   9.294 -0.9522 -0.1125 -0.6435
   68CHL1   C21 7490   0.637   1.125   9.271  0.2402  0.5623  0.4300
   68CHL1  H21A 7491   0.588   1.026   9.270 -0.1315  0.7291 -1.6323
   68CHL1  H21B 7492   0.608   1.173   9.176 -1.0512  0.8894  0.9725
   68CHL1  H21C 7493   0.605   1.182   9.361 -0.4159  1.5616 -0.4149
   68CHL1   C22 7494   0.831   1.043   9.146 -0.5401  0.1994 -0.5482
   68CHL1  H22A 7495   0.782   1.096   9.062 -0.8380 -0.2406 -0.6532
   68CHL1  H22B 7496   0.937   1.043   9.112 -0.4525  0.1132 -0.2858
   68CHL1   C23 7497   0.792   0.895   9.119 -0.2227  0.3193  0.4885
   68CHL1  H23A 7498   0.862   0.825   9.170  2.9317  0.2694 -3.4149
   68CHL1  H23B 7499   0.690   0.886   9.161 -1.0675  1.2256 -1.2839
   68CHL1   C24 7500   0.785   0.869   8.966  0.2419  0.4617 -0.3190
   68CHL1  H24A 7501   0.706   0.938   8.928 -1.3429  0.8080  3.2244
   68CHL1  H24B 7502   0.882   0.899   8.921  0.7096 -0.4873  0.0343
   68CHL1   C25 7503   0.761   0.719   8.922 -0.2786  0.6554 -0.0443
   68CHL1   H25 7504   0.682   0.679   8.990  0.3649 -0.5661  0.0146
   68CHL1   C26 7505   0.711   0.714   8.773 -0.1811  0.4017 -0.3782
   68CHL1  H26A 7506   0.640   0.799   8.774 -1.3186 -0.5190 -1.0335
   68CHL1  H26B 7507   0.796   0.733   8.704  1.2774 -3.5813  0.0623
   68CHL1  H26C 7508   0.666   0.620   8.736  0.1603  0.2671 -0.4580
   68CHL1   C27 7509   0.889   0.636   8.945 -0.1078 -0.0317 -0.1677
   68CHL1  H27A 7510   0.867   0.528   8.928  2.0847 -0.5892  0.2893
   68CHL1  H27B 7511   0.958   0.663   8.863 -0.1392  1.6422  0.3315
   68CHL1  H27C 7512   0.937   0.645   9.044 -0.2894  0.1001 -0.0912
   69CHL1    C3 7513   6.418   6.505   6.646 -0.8049  0.6287  0.0083
   69CHL1    H3 7514   6.458   6.606   6.669 -0.5715  0.6234 -0.3712
   69CHL1    O3 7515   6.408   6.514   6.505 -0.1447 -0.1176 -0.2085
   69CHL1   H3' 7516   6.365   6.433   6.477  3.6489 -2.9003  1.0711
   69CHL1    C4 7517   6.521   6.390   6.689  0.5438  0.0029  0.0754
   69CHL1   H4A 7518   6.481   6.293   6.652 -2.1141  1.8425 -2.2644
   69CHL1   H4B 7519   6.618   6.409   6.639 -0.0145 -0.4911 -1.2523
   69CHL1    C5 7520   6.531   6.379   6.838  0.6847 -0.8114 -0.5212
   69CHL1    C6 7521   6.650   6.397   6.896  0.1840  0.0296 -0.4067
   69CHL1    H6 7522   6.742   6.401   6.836 -0.2009  0.5802 -0.9742
   69CHL1    C7 7523   6.676   6.392   7.042  0.6164 -0.3051  0.4624
   69CHL1   H7A 7524   6.763   6.328   7.068  0.3736 -0.6727  0.3635
   69CHL1   H7B 7525   6.692   6.495   7.080 -2.4465  1.9195 -3.4891
   69CHL1    C8 7526   6.559   6.335   7.126 -0.3609 -0.1182  0.0900
   69CHL1    H8 7527   6.551   6.228   7.098 -1.4757 -0.7647  2.6338
   69CHL1   C14 7528   6.575   6.347   7.272 -0.5090 -0.2831 -0.7083
   69CHL1   H14 7529   6.566   6.456   7.290 -0.0447 -0.2355 -0.7516
   69CHL1   C15 7530   6.715   6.309   7.337  0.5252  0.5948  0.6353
   69CHL1  H15A 7531   6.741   6.211   7.294 -2.3452 -0.8461  1.8942
   69CHL1  H15B 7532   6.782   6.397   7.321 -1.0842  1.8682  0.5695
   69CHL1   C16 7533   6.686   6.300   7.487 -0.5145  0.4924  0.3930
   69CHL1  H16A 7534   6.730   6.210   7.534  1.0058  1.5815  1.1051
   69CHL1  H16B 7535   6.737   6.376   7.549  0.2353  0.8340 -0.6077
   69CHL1   C17 7536   6.528   6.318   7.498  0.0319  0.0339  0.1363
   69CHL1   H17 7537   6.498   6.424   7.513 -1.8641 -0.5761  1.0514
   69CHL1   C13 7538   6.471   6.282   7.357  0.4168 -0.1415 -0.0091
   69CHL1   C18 7539   6.460   6.131   7.342  0.0614  0.0681  0.0132
   69CHL1  H18A 7540   6.363   6.099   7.384 -0.9637 -0.4261 -2.5372
   69CHL1  H18B 7541   6.444   6.086   7.241  3.4461 -1.3869 -0.0131
   69CHL1  H18C 7542   6.545   6.080   7.393 -0.9167 -0.6485  0.9729
   69CHL1   C12 7543   6.343   6.357   7.317  0.1230  0.3504  1.2090
   69CHL1  H12A 7544   6.258   6.313   7.374 -0.8544  1.3969  0.6064
   69CHL1  H12B 7545   6.346   6.466   7.341 -0.3917  1.0126 -1.3949
   69CHL1   C11 7546   6.313   6.339   7.166 -0.9831 -0.6416 -0.1747
   69CHL1  H11A 7547   6.306   6.230   7.144  2.7381 -0.8348 -1.1824
   69CHL1  H11B 7548   6.222   6.397   7.141 -0.5080 -0.6291 -2.0446
   69CHL1    C9 7549   6.426   6.396   7.072  0.3860  0.6577 -0.7218
   69CHL1    H9 7550   6.438   6.505   7.091 -1.8406  0.7119  0.7019
   69CHL1   C10 7551   6.401   6.380   6.923 -0.6315  0.6541 -0.3019
   69CHL1   C19 7552   6.356   6.238   6.903  0.6494  0.5036  0.0751
   69CHL1  H19A 7553   6.356   6.185   6.805  0.7658 -1.3140  1.0203
   69CHL1  H19B 7554   6.421   6.164   6.955 -0.0693 -0.0661  0.1828
   69CHL1  H19C 7555   6.251   6.233   6.940  0.3342 -0.7725 -0.9132
   69CHL1    C1 7556   6.298   6.488   6.870  0.9674  0.2162 -0.0311
   69CHL1   H1A 7557   6.201   6.468   6.920  1.7353  0.6788  1.7394
   69CHL1   H1B 7558   6.329   6.589   6.904 -1.4626  0.8363  0.5715
   69CHL1    C2 7559   6.286   6.476   6.719  0.2980 -0.5100 -0.7616
   69CHL1   H2A 7560   6.220   6.560   6.685  2.4737  1.0607 -1.3234
   69CHL1   H2B 7561   6.242   6.383   6.677 -0.4535  0.2494 -1.7331
   69CHL1   C20 7562   6.471   6.240   7.620 -0.0352 -0.7859 -0.7071
   69CHL1   H20 7563   6.492   6.133   7.601  1.1667 -0.7469  0.3085
   69CHL1   C21 7564   6.314   6.249   7.626  0.1846 -0.1599  0.1669
   69CHL1  H21A 7565   6.279   6.206   7.723 -2.5857  1.0093 -0.2308
   69CHL1  H21B 7566   6.272   6.184   7.546 -1.0781  0.2177  0.4969
   69CHL1  H21C 7567   6.279   6.354   7.624 -4.2915 -1.4077  1.3367
   69CHL1   C22 7568   6.526   6.287   7.757 -0.5143  0.0135  0.0572
   69CHL1  H22A 7569   6.469   6.228   7.831 -0.5623 -0.2282 -0.1703
   69CHL1  H22B 7570   6.634   6.260   7.757 -0.1282  1.5104  0.0984
   69CHL1   C23 7571   6.516   6.440   7.785  0.5383  0.3984 -0.4660
   69CHL1  H23A 7572   6.584   6.500   7.721  1.0886 -1.3939 -1.6381
   69CHL1  H23B 7573   6.413   6.473   7.762  0.6291 -0.0453 -1.5557
   69CHL1   C24 7574   6.554   6.481   7.932 -0.4591 -0.1277  0.2856
   69CHL1  H24A 7575   6.663   6.467   7.947 -0.7209  0.1700  3.0158
   69CHL1  H24B 7576   6.524   6.587   7.947 -0.4306 -0.0351 -0.3061
   69CHL1   C25 7577   6.480   6.402   8.043 -0.8386  0.4805 -0.7504
   69CHL1   H25 7578   6.481   6.295   8.013 -2.4932 -0.4140  2.0640
   69CHL1   C26 7579   6.552   6.411   8.179  0.8208 -0.0639 -0.4141
   69CHL1  H26A 7580   6.494   6.345   8.248  0.9588  0.2792  0.0315
   69CHL1  H26B 7581   6.655   6.370   8.171  1.5314  1.1558  1.8154
   69CHL1  H26C 7582   6.547   6.517   8.211 -0.0402 -0.6889  1.6853
   69CHL1   C27 7583   6.335   6.455   8.056 -0.0565 -0.5384 -0.0191
   69CHL1  H27A 7584   6.267   6.379   8.100  0.7567 -1.0449  0.3989
   69CHL1  H27B 7585   6.335   6.552   8.110  0.1727  0.7464 -2.1676
   69CHL1  H27C 7586   6.292   6.468   7.954 -1.6913  0.8584  0.7993
   70CHL1    C3 7587   6.766   3.229   7.168  0.6277  0.4699 -0.9238
   70CHL1    H3 7588   6.682   3.157   7.161  0.1461  1.0058 -0.7613
   70CHL1    O3 7589   6.803   3.260   7.034 -0.0058  0.4375 -0.0624
   70CHL1   H3' 7590   6.777   3.181   6.987 -1.2614  0.5333  0.4158
   70CHL1    C4 7591   6.709   3.359   7.229 -0.6308  0.0060  0.3445
   70CHL1   H4A 7592   6.784   3.440   7.222 -1.2356  0.5024 -0.6268
   70CHL1   H4B 7593   6.625   3.381   7.159 -1.0918 -0.0273  0.8829
   70CHL1    C5 7594   6.673   3.342   7.372  0.4307 -0.4146 -0.4634
   70CHL1    C6 7595   6.553   3.378   7.412 -0.1840 -0.1008 -1.0607
   70CHL1    H6 7596   6.482   3.416   7.336 -1.9170 -0.4678  0.2992
   70CHL1    C7 7597   6.503   3.368   7.553  0.0422 -0.0494 -0.2345
   70CHL1   H7A 7598   6.442   3.455   7.584 -1.5619 -1.4228  0.6341
   70CHL1   H7B 7599   6.453   3.270   7.571 -1.6096  1.1225  1.8832
   70CHL1    C8 7600   6.620   3.351   7.659  0.1075  0.2378  0.9951
   70CHL1    H8 7601   6.675   3.447   7.658  1.2371 -0.3430 -1.3869
   70CHL1   C14 7602   6.579   3.300   7.795  0.0747 -0.4425 -0.2169
   70CHL1   H14 7603   6.523   3.206   7.774  0.0762 -1.1336  2.5035
   70CHL1   C15 7604   6.470   3.377   7.869  0.6284 -0.1929 -0.5788
   70CHL1  H15A 7605   6.501   3.483   7.861 -1.7667  0.6254  0.0503
   70CHL1  H15B 7606   6.369   3.347   7.832  0.7279 -3.3598  1.3137
   70CHL1   C16 7607   6.472   3.319   8.016  0.4534  0.2166  0.7724
   70CHL1  H16A 7608   6.500   3.399   8.088  0.2388  0.7141  0.3122
   70CHL1  H16B 7609   6.381   3.275   8.061  0.8408  1.9628  3.5203
   70CHL1   C17 7610   6.593   3.217   8.014 -0.1784  0.1121  0.2082
   70CHL1   H17 7611   6.535   3.127   7.985 -0.2369  0.6762 -1.5169
   70CHL1   C13 7612   6.682   3.261   7.895  0.5461 -0.7408  0.4099
   70CHL1   C18 7613   6.768   3.383   7.935  0.5813  0.2861  0.6019
   70CHL1  H18A 7614   6.719   3.447   8.012 -1.7459  0.2432 -0.7489
   70CHL1  H18B 7615   6.863   3.348   7.981  0.0789  0.4078  1.7759
   70CHL1  H18C 7616   6.790   3.436   7.840  1.1156 -2.1359 -0.7026
   70CHL1   C12 7617   6.765   3.156   7.840  0.6642  0.1817  0.5348
   70CHL1  H12A 7618   6.841   3.122   7.913  0.1567  1.1621  1.5416
   70CHL1  H12B 7619   6.708   3.064   7.815  2.7971 -1.0188 -0.2305
   70CHL1   C11 7620   6.825   3.197   7.700  0.7774 -0.4089 -0.8535
   70CHL1  H11A 7621   6.892   3.282   7.728  1.1050 -0.0518 -2.5798
   70CHL1  H11B 7622   6.887   3.109   7.672  2.0918 -0.9617  3.1399
   70CHL1    C9 7623   6.721   3.243   7.600  0.9765  0.2260 -0.3216
   70CHL1    H9 7624   6.661   3.152   7.583  2.2524 -0.8705  0.7562
   70CHL1   C10 7625   6.783   3.284   7.458  0.0509  0.7916 -0.3626
   70CHL1   C19 7626   6.892   3.388   7.487 -0.4812 -0.3802 -0.6287
   70CHL1  H19A 7627   6.855   3.479   7.540  1.7848  0.4386 -0.3502
   70CHL1  H19B 7628   6.977   3.349   7.546 -0.7615  1.1868  0.9014
   70CHL1  H19C 7629   6.943   3.417   7.393  1.3042  0.4729  0.5311
   70CHL1    C1 7630   6.847   3.152   7.391  0.7671  0.3859  0.3945
   70CHL1   H1A 7631   6.934   3.120   7.452 -0.0226  0.0530  1.3699
   70CHL1   H1B 7632   6.768   3.074   7.398 -0.4581  1.3723 -1.4513
   70CHL1    C2 7633   6.882   3.173   7.243 -0.0342 -0.8215  0.0005
   70CHL1   H2A 7634   6.918   3.077   7.199  0.9325 -1.1618  1.4565
   70CHL1   H2B 7635   6.966   3.245   7.231  0.7394 -1.6554  0.2989
   70CHL1   C20 7636   6.657   3.176   8.148 -0.9525  0.8663 -0.1439
   70CHL1   H20 7637   6.756   3.130   8.129 -0.9975 -0.0861  1.7011
   70CHL1   C21 7638   6.571   3.058   8.201  0.0220  0.2261 -0.1581
   70CHL1  H21A 7639   6.626   3.028   8.293  1.4150 -3.5039 -2.0305
   70CHL1  H21B 7640   6.566   2.974   8.129  2.8239 -0.6062  0.4975
   70CHL1  H21C 7641   6.468   3.096   8.216 -0.2589 -0.7100  0.3310
   70CHL1   C22 7642   6.673   3.284   8.257 -0.4358  0.2150  0.2616
   70CHL1  H22A 7643   6.710   3.380   8.216 -0.8410  0.5083  0.5650
   70CHL1  H22B 7644   6.575   3.308   8.303  0.4198  1.9702  1.2622
   70CHL1   C23 7645   6.759   3.242   8.380  1.0002  0.0904 -0.4949
   70CHL1  H23A 7646   6.738   3.142   8.423  0.7743 -0.0431 -0.9132
   70CHL1  H23B 7647   6.868   3.248   8.359  1.3203 -1.9514  0.4187
   70CHL1   C24 7648   6.726   3.334   8.508 -0.3972 -0.5809  0.7448
   70CHL1  H24A 7649   6.753   3.439   8.485  0.7585 -1.1597 -0.6988
   70CHL1  H24B 7650   6.619   3.317   8.532 -0.2196 -0.2600  1.8106
   70CHL1   C25 7651   6.812   3.304   8.632 -0.6813 -0.4721 -0.8254
   70CHL1   H25 7652   6.917   3.296   8.598 -0.1919 -0.6514  0.6491
   70CHL1   C26 7653   6.798   3.417   8.739  0.0048 -0.5992  0.0184
   70CHL1  H26A 7654   6.878   3.491   8.715 -0.2096  0.5837  2.6403
   70CHL1  H26B 7655   6.694   3.456   8.736  0.7539  1.4599 -1.6433
   70CHL1  H26C 7656   6.823   3.388   8.843  4.0642  0.8469 -0.3627
   70CHL1   C27 7657   6.767   3.179   8.695 -0.1955 -0.1747 -0.1545
   70CHL1  H27A 7658   6.808   3.171   8.798  0.0242 -2.4206 -0.3631
   70CHL1  H27B 7659   6.657   3.178   8.712 -0.0957  0.9012  0.6316
   70CHL1  H27C 7660   6.800   3.090   8.638  0.5558  1.7001 -2.8511
   71CHL1    C3 7661   0.025   5.652   6.635  0.7527 -0.5153 -1.1144
   71CHL1    H3 7662  -0.055   5.717   6.679  0.9745 -0.9947  0.0281
   71CHL1    O3 7663   0.091   5.708   6.521  0.2210 -0.4274 -0.1260
   71CHL1   H3' 7664   0.136   5.637   6.476  0.4811  0.2755 -1.0108
   71CHL1    C4 7665   0.135   5.617   6.743 -0.2117  0.4046 -0.7881
   71CHL1   H4A 7666   0.223   5.582   6.684 -1.6411 -0.8773 -2.2430
   71CHL1   H4B 7667   0.168   5.717   6.778 -1.1066  1.4192 -2.6730
   71CHL1    C5 7668   0.102   5.527   6.858 -0.1948 -0.5431  0.2035
   71CHL1    C6 7669   0.130   5.570   6.981  0.2128 -0.6074  0.7525
   71CHL1    H6 7670   0.182   5.666   6.989 -1.4186  0.4643 -0.7448
   71CHL1    C7 7671   0.083   5.505   7.105 -0.1072 -0.1672 -0.0695
   71CHL1   H7A 7672   0.169   5.488   7.174 -1.1574  0.1358  1.3601
   71CHL1   H7B 7673   0.007   5.568   7.157 -0.6276 -1.0725  0.2827
   71CHL1    C8 7674   0.014   5.368   7.073 -0.8506  0.0500 -0.4155
   71CHL1    H8 7675   0.101   5.300   7.066 -1.4506 -1.1339  2.2687
   71CHL1   C14 7676  -0.062   5.326   7.197 -1.0711 -0.1995  0.0398
   71CHL1   H14 7677  -0.149   5.395   7.205 -0.4468  1.8570 -5.9701
   71CHL1   C15 7678   0.016   5.327   7.333  0.5453  0.3695  0.1820
   71CHL1  H15A 7679   0.121   5.291   7.325  1.0523  1.9435 -0.9337
   71CHL1  H15B 7680   0.001   5.429   7.374 -1.9925  1.4120 -2.9132
   71CHL1   C16 7681  -0.072   5.226   7.412  0.3608 -0.0151  0.5898
   71CHL1  H16A 7682  -0.014   5.142   7.456 -2.5753 -1.3000  2.2885
   71CHL1  H16B 7683  -0.112   5.280   7.501 -1.2288 -0.5185  0.2270
   71CHL1   C17 7684  -0.185   5.172   7.325  1.2909  0.0069  0.2780
   71CHL1   H17 7685  -0.258   5.254   7.336  1.2508  0.1601 -1.0451
   71CHL1   C13 7686  -0.129   5.183   7.182  0.3681 -0.4952 -0.1417
   71CHL1   C18 7687  -0.021   5.072   7.162 -0.2985 -1.0870 -0.2991
   71CHL1  H18A 7688  -0.077   4.980   7.139 -0.9421 -0.8859  0.4075
   71CHL1  H18B 7689   0.042   5.094   7.073 -1.1066 -3.1531 -1.4509
   71CHL1  H18C 7690   0.036   5.065   7.257  0.2977  1.4018 -0.3869
   71CHL1   C12 7691  -0.227   5.193   7.065  0.1921  0.2692  0.4872
   71CHL1  H12A 7692  -0.259   5.089   7.039  1.4582 -0.1310  0.4443
   71CHL1  H12B 7693  -0.315   5.258   7.085 -1.2338 -1.0267 -1.2583
   71CHL1   C11 7694  -0.148   5.237   6.937 -0.0691 -0.3329 -0.3319
   71CHL1  H11A 7695  -0.075   5.160   6.905  0.6998  0.4282 -0.4229
   71CHL1  H11B 7696  -0.230   5.253   6.864 -1.4143 -2.1930  0.6635
   71CHL1    C9 7697  -0.074   5.374   6.951 -0.0153  0.8232  0.4455
   71CHL1    H9 7698  -0.159   5.444   6.963 -0.7539  0.3308 -1.4487
   71CHL1   C10 7699   0.009   5.416   6.824  0.3907 -0.0342  0.1480
   71CHL1   C19 7700   0.106   5.305   6.783 -1.1434  0.6629 -0.1150
   71CHL1  H19A 7701   0.045   5.215   6.759 -0.4792  0.5107 -1.3064
   71CHL1  H19B 7702   0.171   5.340   6.699  0.2576 -0.5154  0.4409
   71CHL1  H19C 7703   0.179   5.277   6.862  1.5125  2.1444 -1.8648
   71CHL1    C1 7704  -0.088   5.440   6.703  1.0781 -0.4071 -0.2365
   71CHL1   H1A 7705  -0.117   5.343   6.658  0.5971  0.4568 -1.8659
   71CHL1   H1B 7706  -0.185   5.481   6.741  2.7730  2.0915  1.7355
   71CHL1    C2 7707  -0.032   5.518   6.589  0.2094 -0.5324  0.1227
   71CHL1   H2A 7708  -0.115   5.532   6.516 -1.1134 -1.6291  1.3429
   71CHL1   H2B 7709   0.035   5.447   6.536 -1.9249 -2.0746 -0.6829
   71CHL1   C20 7710  -0.236   5.038   7.383 -0.1118  0.6059  0.6802
   71CHL1   H20 7711  -0.158   4.962   7.362 -1.1891 -0.5934  0.8972
   71CHL1   C21 7712  -0.366   4.998   7.302  0.5680 -0.5555  0.3418
   71CHL1  H21A 7713  -0.436   5.082   7.284 -0.7968 -1.7362 -0.0592
   71CHL1  H21B 7714  -0.413   4.918   7.363 -1.1331  1.8400  2.4025
   71CHL1  H21C 7715  -0.338   4.957   7.203  1.7845  1.1798 -0.0899
   71CHL1   C22 7716  -0.261   5.046   7.534  0.1351 -0.4864  0.3301
   71CHL1  H22A 7717  -0.164   5.073   7.581  0.7260 -1.1116 -0.4978
   71CHL1  H22B 7718  -0.345   5.117   7.548  0.4338  0.5942 -2.6847
   71CHL1   C23 7719  -0.294   4.919   7.606 -0.5515  0.3619  0.1779
   71CHL1  H23A 7720  -0.396   4.885   7.576 -0.7492 -0.1172  1.3252
   71CHL1  H23B 7721  -0.220   4.841   7.578 -1.3128 -0.4218  0.3022
   71CHL1   C24 7722  -0.300   4.938   7.762 -0.1395  0.7687 -0.0041
   71CHL1  H24A 7723  -0.215   5.006   7.781 -0.2433  0.7955  0.3721
   71CHL1  H24B 7724  -0.393   4.994   7.785 -0.6647 -0.0650 -0.0535
   71CHL1   C25 7725  -0.291   4.811   7.843  0.2248  1.3698 -0.0508
   71CHL1   H25 7726  -0.193   4.764   7.821 -1.2328 -1.7338 -0.4636
   71CHL1   C26 7727  -0.279   4.843   7.994 -0.2897 -0.3030  0.8585
   71CHL1  H26A 7728  -0.206   4.925   8.010  1.3141 -1.2899 -0.9345
   71CHL1  H26B 7729  -0.378   4.863   8.039 -1.1193 -0.3896 -0.8395
   71CHL1  H26C 7730  -0.260   4.749   8.050  0.9740 -1.5337 -1.4755
   71CHL1   C27 7731  -0.392   4.702   7.825  0.0147 -0.1142 -0.2449
   71CHL1  H27A 7732  -0.485   4.732   7.879  0.4075 -2.4058  1.9217
   71CHL1  H27B 7733  -0.432   4.696   7.722 -0.4153 -3.1711 -0.0037
   71CHL1  H27C 7734  -0.352   4.602   7.853  0.8174  0.2552 -0.0554
   72CHL1    C3 7735   6.402   2.334   7.009  0.4111 -0.4567  0.2350
   72CHL1    H3 7736   6.305   2.381   6.983  0.2916 -1.7050 -1.7510
   72CHL1    O3 7737   6.435   2.248   6.900  0.1452  0.4926  0.1338
   72CHL1   H3' 7738   6.482   2.173   6.937 -0.3162 -0.5985 -1.4047
   72CHL1    C4 7739   6.496   2.457   7.034 -0.3058  0.4913  0.2469
   72CHL1   H4A 7740   6.598   2.418   7.055 -0.8661 -2.1998 -1.4919
   72CHL1   H4B 7741   6.504   2.520   6.943  2.4213 -0.8165 -0.5188
   72CHL1    C5 7742   6.474   2.548   7.156  0.3327 -0.1355  0.1854
   72CHL1    C6 7743   6.470   2.687   7.147 -0.1018 -0.0225  0.1730
   72CHL1    H6 7744   6.475   2.741   7.051 -2.3331 -1.0366 -0.5945
   72CHL1    C7 7745   6.468   2.780   7.269  0.3554  0.1483  0.6291
   72CHL1   H7A 7746   6.563   2.838   7.266  0.0624  0.5749 -1.1283
   72CHL1   H7B 7747   6.380   2.848   7.258 -0.9279 -1.2511  1.7043
   72CHL1    C8 7748   6.471   2.706   7.398  0.1182 -0.4719  0.2968
   72CHL1    H8 7749   6.580   2.699   7.416  0.1456 -1.8743 -0.2891
   72CHL1   C14 7750   6.399   2.784   7.512 -0.2327 -0.9804 -0.2071
   72CHL1   H14 7751   6.294   2.788   7.477 -0.6738 -1.5925  0.9742
   72CHL1   C15 7752   6.435   2.931   7.523 -0.4958 -0.1442 -0.4231
   72CHL1  H15A 7753   6.543   2.955   7.518 -0.6387  0.3236 -1.8354
   72CHL1  H15B 7754   6.379   2.984   7.443 -3.3448 -1.2522  0.7095
   72CHL1   C16 7755   6.370   2.971   7.658 -0.4184  1.0205  0.3314
   72CHL1  H16A 7756   6.452   3.012   7.722 -0.1205 -0.5467  1.0074
   72CHL1  H16B 7757   6.289   3.045   7.645 -0.6487  0.6423 -0.4538
   72CHL1   C17 7758   6.328   2.838   7.729 -0.1387 -0.6585 -0.6667
   72CHL1   H17 7759   6.218   2.832   7.719 -0.0541 -1.4574 -1.2296
   72CHL1   C13 7760   6.391   2.720   7.649 -0.6022  0.4505  0.1124
   72CHL1   C18 7761   6.538   2.688   7.698  0.1364 -0.0377 -0.5638
   72CHL1  H18A 7762   6.590   2.778   7.738  1.8130 -1.8095  1.4271
   72CHL1  H18B 7763   6.535   2.602   7.768 -0.2395  0.4497  0.0290
   72CHL1  H18C 7764   6.599   2.648   7.614  0.1934  0.2162 -0.6461
   72CHL1   C12 7765   6.317   2.587   7.635  0.0044 -0.2453 -1.0061
   72CHL1  H12A 7766   6.322   2.539   7.735  0.2992  0.0314 -0.8845
   72CHL1  H12B 7767   6.213   2.602   7.600  0.4297  1.0291 -1.7702
   72CHL1   C11 7768   6.386   2.504   7.532  0.3267  0.4679 -0.9826
   72CHL1  H11A 7769   6.492   2.491   7.563  1.4686  2.1836 -3.7379
   72CHL1  H11B 7770   6.334   2.407   7.520  1.3831 -0.3293  0.5937
   72CHL1    C9 7771   6.402   2.565   7.392  0.2516 -0.7303  1.1194
   72CHL1    H9 7772   6.296   2.583   7.364  0.6674  0.7569  0.4036
   72CHL1   C10 7773   6.459   2.474   7.286 -0.0813  0.0728 -0.7892
   72CHL1   C19 7774   6.602   2.421   7.337  0.3568  0.4149  0.4959
   72CHL1  H19A 7775   6.602   2.380   7.441  1.0374 -2.2519 -0.4754
   72CHL1  H19B 7776   6.642   2.338   7.276 -0.5324 -1.4232  2.2789
   72CHL1  H19C 7777   6.671   2.508   7.336  2.4479 -1.1734 -1.0839
   72CHL1    C1 7778   6.361   2.349   7.262  0.3583 -0.5442 -0.0174
   72CHL1   H1A 7779   6.367   2.273   7.343  0.2061 -1.2282 -0.6310
   72CHL1   H1B 7780   6.259   2.391   7.254  0.1511 -0.4490  2.3347
   72CHL1    C2 7781   6.391   2.259   7.140 -0.6258  0.2517 -0.2589
   72CHL1   H2A 7782   6.320   2.174   7.142 -0.1846 -0.1245  2.5963
   72CHL1   H2B 7783   6.495   2.222   7.154 -0.1277  1.4455 -0.6934
   72CHL1   C20 7784   6.342   2.846   7.875  0.4671 -0.1692  0.3174
   72CHL1   H20 7785   6.449   2.841   7.905  0.9072 -0.1276 -1.2003
   72CHL1   C21 7786   6.273   2.724   7.937 -0.3290 -0.4652  0.0867
   72CHL1  H21A 7787   6.233   2.757   8.035  0.7489 -3.2369  1.6020
   72CHL1  H21B 7788   6.343   2.638   7.951 -2.6488 -2.8778 -2.1044
   72CHL1  H21C 7789   6.195   2.686   7.868  0.8941 -1.0902 -1.0039
   72CHL1   C22 7790   6.288   2.985   7.927 -0.5546 -0.8336 -0.5976
   72CHL1  H22A 7791   6.292   2.991   8.037  0.2639  1.5302 -0.6961
   72CHL1  H22B 7792   6.341   3.077   7.891 -1.4828 -0.7520 -1.8364
   72CHL1   C23 7793   6.131   3.022   7.907 -1.0437 -0.1190  0.8660
   72CHL1  H23A 7794   6.113   3.038   7.799  1.1007 -1.0048  0.3264
   72CHL1  H23B 7795   6.071   2.935   7.941  0.7795 -3.0882 -2.7438
   72CHL1   C24 7796   6.094   3.153   7.973  0.2950  0.0761  0.5044
   72CHL1  H24A 7797   6.115   3.136   8.081 -2.9670  1.0066  1.3849
   72CHL1  H24B 7798   6.156   3.235   7.932  1.5654 -0.3998  1.4111
   72CHL1   C25 7799   5.948   3.178   7.964  0.2582 -0.8357 -0.1329
   72CHL1   H25 7800   5.892   3.091   8.006  0.5617 -0.7350  0.4938
   72CHL1   C26 7801   5.902   3.298   8.056  0.3218 -0.4709 -1.0471
   72CHL1  H26A 7802   5.923   3.280   8.164  0.8072  2.5989 -0.5440
   72CHL1  H26B 7803   5.963   3.387   8.033  1.5669 -0.6942  1.1245
   72CHL1  H26C 7804   5.795   3.322   8.036  0.1218 -0.9088 -0.5311
   72CHL1   C27 7805   5.909   3.210   7.821  0.2672 -0.1761 -0.2900
   72CHL1  H27A 7806   5.804   3.247   7.811  0.1411 -0.4023  0.1889
   72CHL1  H27B 7807   5.967   3.292   7.774 -0.5606 -0.4207 -1.8150
   72CHL1  H27C 7808   5.927   3.122   7.755  0.6177  0.1867 -0.6878
   73CHL1    C3 7809   0.510   4.511   6.928  0.5053 -0.2241  0.6325
   73CHL1    H3 7810   0.429   4.439   6.950 -1.6226  1.3546 -1.3869
   73CHL1    O3 7811   0.565   4.473   6.802 -0.0340 -0.0868  0.5944
   73CHL1   H3' 7812   0.661   4.484   6.802 -0.2826  3.0476  0.0582
   73CHL1    C4 7813   0.437   4.644   6.926  0.4038  0.2468  0.6449
   73CHL1   H4A 7814   0.507   4.727   6.904  0.9461 -0.1588  0.8108
   73CHL1   H4B 7815   0.358   4.638   6.848  0.9061 -0.7454  0.1931
   73CHL1    C5 7816   0.381   4.668   7.064 -0.5341  0.1708 -0.4803
   73CHL1    C6 7817   0.254   4.695   7.079  0.0054 -0.5277  0.1982
   73CHL1    H6 7818   0.193   4.684   6.988  1.3348 -4.1545 -0.4195
   73CHL1    C7 7819   0.197   4.730   7.210  0.3186 -0.2214 -0.3144
   73CHL1   H7A 7820   0.123   4.813   7.204  0.3504 -0.1983 -0.3848
   73CHL1   H7B 7821   0.144   4.638   7.244 -1.1629  1.3324  1.8380
   73CHL1    C8 7822   0.296   4.763   7.320  1.4368  0.4185  0.3064
   73CHL1    H8 7823   0.328   4.867   7.300  1.6680 -0.0913 -2.3447
   73CHL1   C14 7824   0.235   4.748   7.459  0.5075  0.3656 -0.7973
   73CHL1   H14 7825   0.208   4.641   7.472  0.5739  0.2504 -1.5950
   73CHL1   C15 7826   0.112   4.826   7.481  0.1000  0.0231  0.5276
   73CHL1  H15A 7827   0.143   4.924   7.437  1.2279 -1.0142 -1.0743
   73CHL1  H15B 7828   0.034   4.781   7.415 -0.0583  0.4372  0.4238
   73CHL1   C16 7829   0.088   4.833   7.628 -0.5349 -0.4397 -0.1542
   73CHL1  H16A 7830   0.056   4.935   7.658  0.7810 -0.3080  0.8865
   73CHL1  H16B 7831   0.005   4.771   7.670 -0.6385 -1.1971 -1.4196
   73CHL1   C17 7832   0.221   4.776   7.687  0.5103  0.2548 -0.1403
   73CHL1   H17 7833   0.199   4.669   7.704  1.2506  0.4373  2.2323
   73CHL1   C13 7834   0.325   4.782   7.573 -0.0050  0.4097 -0.0159
   73CHL1   C18 7835   0.375   4.927   7.571 -0.4687  0.6585 -0.3096
   73CHL1  H18A 7836   0.293   5.002   7.562 -1.5469 -0.6772 -3.0550
   73CHL1  H18B 7837   0.436   4.949   7.660 -1.0499  1.0789 -0.0121
   73CHL1  H18C 7838   0.432   4.946   7.478 -1.0211 -0.5421 -0.9278
   73CHL1   C12 7839   0.433   4.672   7.569  0.4149  0.2832 -0.0949
   73CHL1  H12A 7840   0.504   4.683   7.654 -1.7096  0.3926  1.7487
   73CHL1  H12B 7841   0.377   4.579   7.593  0.6556  0.7045  2.4069
   73CHL1   C11 7842   0.508   4.674   7.434  0.1091 -0.0084 -0.1204
   73CHL1  H11A 7843   0.556   4.773   7.448  1.8016 -1.0849  2.2957
   73CHL1  H11B 7844   0.592   4.602   7.438 -0.0492 -0.2024 -0.2186
   73CHL1    C9 7845   0.413   4.661   7.316  0.3712  0.3105 -0.4486
   73CHL1    H9 7846   0.376   4.557   7.328 -0.6385  0.7951  0.8613
   73CHL1   C10 7847   0.485   4.664   7.176  0.2702 -0.1269  0.3401
   73CHL1   C19 7848   0.565   4.801   7.164  0.4608 -0.0940  0.4575
   73CHL1  H19A 7849   0.632   4.805   7.076 -1.0010  2.3568 -0.6358
   73CHL1  H19B 7850   0.492   4.885   7.164 -0.0045 -0.4563 -1.1509
   73CHL1  H19C 7851   0.624   4.809   7.258 -2.2483  1.6865  2.1755
   73CHL1    C1 7852   0.579   4.545   7.168  0.6249 -0.5146 -0.3119
   73CHL1   H1A 7853   0.670   4.564   7.230 -0.8974  2.3042  1.2862
   73CHL1   H1B 7854   0.513   4.461   7.198  0.9418 -1.8229 -3.0548
   73CHL1    C2 7855   0.623   4.526   7.024  0.1481  0.4314  0.2462
   73CHL1   H2A 7856   0.689   4.436   7.017 -0.9906 -0.4704  0.7041
   73CHL1   H2B 7857   0.671   4.615   6.980  0.6517  0.8890  1.6455
   73CHL1   C20 7858   0.254   4.827   7.832 -0.3048 -0.1116  0.0917
   73CHL1   H20 7859   0.293   4.931   7.831 -0.2255 -0.1411  0.1110
   73CHL1   C21 7860   0.351   4.723   7.888  0.0398  0.0819 -0.1423
   73CHL1  H21A 7861   0.370   4.714   7.997 -1.1161  0.2866  0.0913
   73CHL1  H21B 7862   0.450   4.736   7.840 -0.9699  2.0545 -1.8157
   73CHL1  H21C 7863   0.312   4.620   7.869  2.4059 -0.6823 -1.1414
   73CHL1   C22 7864   0.128   4.834   7.924  0.8329  0.3254 -0.0875
   73CHL1  H22A 7865   0.042   4.883   7.876  1.4225 -0.5464 -2.1229
   73CHL1  H22B 7866   0.113   4.725   7.942  1.3699  0.5076  1.7323
   73CHL1   C23 7867   0.165   4.903   8.061  0.2335  0.4099  0.0118
   73CHL1  H23A 7868   0.257   4.851   8.096 -0.0373 -1.9203 -2.4421
   73CHL1  H23B 7869   0.202   5.006   8.040  0.3232  0.5125  0.6316
   73CHL1   C24 7870   0.044   4.899   8.150 -0.3307  0.4491  0.2805
   73CHL1  H24A 7871  -0.022   4.977   8.107  1.6207  1.8663 -0.2517
   73CHL1  H24B 7872  -0.004   4.800   8.133  2.0632 -0.6552 -0.3623
   73CHL1   C25 7873   0.069   4.920   8.294  0.7698 -0.1650 -0.4486
   73CHL1   H25 7874   0.141   4.847   8.337 -0.7704 -0.3957  1.9528
   73CHL1   C26 7875   0.133   5.063   8.311  0.4469  0.0606 -0.0756
   73CHL1  H26A 7876   0.219   5.074   8.242  0.0636  0.3541 -0.5213
   73CHL1  H26B 7877   0.066   5.146   8.278  2.3625  1.5355 -0.4065
   73CHL1  H26C 7878   0.173   5.084   8.412  2.5532  0.1773 -0.8841
   73CHL1   C27 7879  -0.055   4.905   8.381 -0.3501 -0.3953  0.1855
   73CHL1  H27A 7880  -0.095   4.802   8.376 -0.4697 -0.3425  0.0525
   73CHL1  H27B 7881  -0.034   4.936   8.486  0.5255  1.1275 -0.4054
   73CHL1  H27C 7882  -0.125   4.976   8.331 -0.7000 -1.5650 -1.0262
   74CHL1    C3 7883   5.662   4.470   6.740  0.3620 -0.3122  0.5430
   74CHL1    H3 7884   5.719   4.564   6.723  0.7660 -0.5010  0.8483
   74CHL1    O3 7885   5.603   4.433   6.615 -0.2568  0.1382  0.1192
   74CHL1   H3' 7886   5.582   4.339   6.621 -2.4595  0.4788 -1.1324
   74CHL1    C4 7887   5.745   4.355   6.794  0.1241 -0.2796  0.2275
   74CHL1   H4A 7888   5.683   4.265   6.815  0.8127 -0.0228  4.2866
   74CHL1   H4B 7889   5.822   4.337   6.716 -0.5257  2.3659 -1.1346
   74CHL1    C5 7890   5.799   4.383   6.931  0.4880  0.1464 -0.7974
   74CHL1    C6 7891   5.927   4.377   6.967  0.5716 -0.4829  0.3539
   74CHL1    H6 7892   6.002   4.347   6.892  0.4890  3.1405 -1.3743
   74CHL1    C7 7893   5.976   4.397   7.110 -0.4361 -0.0398  0.1120
   74CHL1   H7A 7894   6.052   4.326   7.150 -1.7977 -0.4705  2.0630
   74CHL1   H7B 7895   6.023   4.497   7.115  0.0819 -0.1851 -1.3483
   74CHL1    C8 7896   5.863   4.398   7.217  0.2895 -0.1640  0.0759
   74CHL1    H8 7897   5.835   4.292   7.237 -1.5506  0.4392  0.8625
   74CHL1   C14 7898   5.916   4.460   7.345 -0.1651  0.5565  0.4824
   74CHL1   H14 7899   5.941   4.565   7.318 -1.5549  0.2663 -2.2413
   74CHL1   C15 7900   6.056   4.410   7.411  0.3931 -0.3165  0.4609
   74CHL1  H15A 7901   6.059   4.307   7.453 -0.4432 -0.4240  0.2932
   74CHL1  H15B 7902   6.144   4.420   7.344  1.5116 -0.9706  1.7872
   74CHL1   C16 7903   6.051   4.490   7.540 -0.5503  0.0589 -0.1801
   74CHL1  H16A 7904   6.095   4.421   7.615 -0.6436 -1.1933 -1.2373
   74CHL1  H16B 7905   6.127   4.568   7.521  1.2788 -1.4492  0.6719
   74CHL1   C17 7906   5.903   4.534   7.567  0.0129 -0.0531 -0.6436
   74CHL1   H17 7907   5.906   4.645   7.554  1.7118 -0.0582 -0.6139
   74CHL1   C13 7908   5.821   4.468   7.460  0.3833 -0.0654  0.9114
   74CHL1   C18 7909   5.782   4.324   7.506  0.0930 -0.3851  0.2710
   74CHL1  H18A 7910   5.715   4.273   7.434  0.9850  0.0503 -0.9022
   74CHL1  H18B 7911   5.872   4.259   7.514 -0.9760 -1.9162  0.3270
   74CHL1  H18C 7912   5.723   4.318   7.600  0.2725 -0.5701  0.3725
   74CHL1   C12 7913   5.700   4.553   7.407 -0.3235 -0.1773  0.0560
   74CHL1  H12A 7914   5.616   4.580   7.474 -0.2091  0.9120 -0.2176
   74CHL1  H12B 7915   5.733   4.654   7.376 -2.8958  1.4568  2.2690
   74CHL1   C11 7916   5.633   4.496   7.281  0.5217  1.0073 -0.0082
   74CHL1  H11A 7917   5.597   4.395   7.311 -1.3757  1.4076 -0.8010
   74CHL1  H11B 7918   5.547   4.556   7.245  1.8228  2.0308 -1.5784
   74CHL1    C9 7919   5.739   4.478   7.166 -0.1355 -0.0872  0.0644
   74CHL1    H9 7920   5.771   4.583   7.152 -1.9740  0.4986 -0.0458
   74CHL1   C10 7921   5.686   4.422   7.036 -0.2678  0.2319  1.0613
   74CHL1   C19 7922   5.592   4.301   7.068  0.0256  0.0683 -0.5694
   74CHL1  H19A 7923   5.485   4.330   7.081 -0.2236 -0.9954 -0.1680
   74CHL1  H19B 7924   5.598   4.220   6.993 -0.5504  0.8385 -1.4675
   74CHL1  H19C 7925   5.623   4.250   7.162  1.7069 -2.1055 -2.2201
   74CHL1    C1 7926   5.601   4.526   6.970  0.1562 -0.3315  0.0481
   74CHL1   H1A 7927   5.516   4.547   7.038  0.3095 -1.3805  0.5905
   74CHL1   H1B 7928   5.649   4.626   6.965  0.6733 -0.5939 -0.3344
   74CHL1    C2 7929   5.544   4.487   6.833 -0.4400  0.0384 -0.0957
   74CHL1   H2A 7930   5.480   4.565   6.786 -0.3824 -0.7534 -1.5428
   74CHL1   H2B 7931   5.491   4.390   6.839  0.2994 -0.4979 -1.7251
   74CHL1   C20 7932   5.863   4.528   7.710  0.3734  0.3063 -0.0472
   74CHL1   H20 7933   5.881   4.422   7.737 -1.6468 -0.9370 -3.0639
   74CHL1   C21 7934   5.711   4.568   7.741 -0.6494  0.2448  0.0785
   74CHL1  H21A 7935   5.637   4.504   7.689  0.3685  0.8969 -2.3564
   74CHL1  H21B 7936   5.709   4.662   7.681 -1.0177 -0.1544 -0.5463
   74CHL1  H21C 7937   5.694   4.568   7.851  1.9595  1.4241  0.5571
   74CHL1   C22 7938   5.954   4.611   7.805 -0.6820 -0.0068 -0.3080
   74CHL1  H22A 7939   6.057   4.607   7.764 -0.4146 -2.7067  0.3931
   74CHL1  H22B 7940   5.911   4.713   7.799 -1.8659 -0.4976 -0.5365
   74CHL1   C23 7941   5.961   4.548   7.950 -0.8491 -0.3808  0.1718
   74CHL1  H23A 7942   5.863   4.553   8.003 -0.4442  2.1638  0.8010
   74CHL1  H23B 7943   5.978   4.439   7.936 -1.8475 -0.6131  0.7057
   74CHL1   C24 7944   6.077   4.608   8.032  1.1773 -0.4648  0.2055
   74CHL1  H24A 7945   6.166   4.595   7.966  0.5768 -2.4116 -0.2822
   74CHL1  H24B 7946   6.068   4.718   8.037  0.0815 -0.4733 -1.0457
   74CHL1   C25 7947   6.110   4.535   8.161 -0.2849 -0.4624  0.3141
   74CHL1   H25 7948   6.017   4.515   8.219  0.0100 -0.0639  0.9218
   74CHL1   C26 7949   6.165   4.391   8.137 -0.2186 -0.5249  0.2957
   74CHL1  H26A 7950   6.215   4.347   8.226  0.8418  0.9410  0.4494
   74CHL1  H26B 7951   6.072   4.333   8.113 -0.8956  0.8693 -0.5588
   74CHL1  H26C 7952   6.253   4.399   8.070  0.0646 -1.1901  0.5773
   74CHL1   C27 7953   6.209   4.611   8.242 -0.0887 -0.3411  0.0999
   74CHL1  H27A 7954   6.209   4.580   8.349 -1.5474  1.3980  0.6652
   74CHL1  H27B 7955   6.314   4.614   8.206  0.5278 -0.6867  1.7734
   74CHL1  H27C 7956   6.182   4.718   8.232 -1.8580 -0.6731  0.7941
   75CHL1    C3 7957   1.103   0.294   6.901  1.0120 -0.2329  0.5259
   75CHL1    H3 7958   1.214   0.280   6.898  0.8756 -1.3377 -0.1236
   75CHL1    O3 7959   1.062   0.297   6.764 -0.2507 -0.2664  0.3368
   75CHL1   H3' 7960   1.054   0.388   6.734 -2.1089 -0.5022  0.0492
   75CHL1    C4 7961   1.039   0.172   6.973 -0.0571 -0.3030  0.4310
   75CHL1   H4A 7962   0.934   0.153   6.942  0.4430  1.0265 -2.4485
   75CHL1   H4B 7963   1.074   0.072   6.939 -1.8878 -0.5370 -0.9449
   75CHL1    C5 7964   1.042   0.170   7.123  0.2939  0.5139  0.6225
   75CHL1    C6 7965   1.094   0.059   7.183  0.5418  0.2781  0.3708
   75CHL1    H6 7966   1.119  -0.032   7.127  1.0539  0.6176  0.0453
   75CHL1    C7 7967   1.097   0.053   7.337 -1.0740  0.3503  0.3688
   75CHL1   H7A 7968   1.068  -0.047   7.376  2.3030 -0.8878  0.0232
   75CHL1   H7B 7969   1.204   0.076   7.357  0.2459 -1.4983 -3.5409
   75CHL1    C8 7970   1.018   0.169   7.405 -0.4585 -0.4378  0.5432
   75CHL1    H8 7971   0.911   0.144   7.395 -0.0827 -2.1695  0.5254
   75CHL1   C14 7972   1.062   0.187   7.554  0.0132  0.4233 -0.4814
   75CHL1   H14 7973   1.170   0.211   7.551  0.2470 -0.3763  0.7058
   75CHL1   C15 7974   1.049   0.055   7.643 -0.2370 -0.5870  0.3861
   75CHL1  H15A 7975   0.945   0.021   7.622 -0.7862  1.1079  0.1622
   75CHL1  H15B 7976   1.123  -0.017   7.602 -0.6749 -0.4735 -0.6615
   75CHL1   C16 7977   1.069   0.114   7.778 -0.1094 -0.1645 -0.3930
   75CHL1  H16A 7978   0.991   0.072   7.845  1.2901  0.1904  1.5481
   75CHL1  H16B 7979   1.166   0.074   7.814 -1.2082 -2.9081 -0.1932
   75CHL1   C17 7980   1.065   0.268   7.765 -0.3967 -0.0507 -0.5812
   75CHL1   H17 7981   1.172   0.297   7.757 -0.7688  0.8254 -4.4910
   75CHL1   C13 7982   0.999   0.297   7.633 -0.4196 -0.4609 -0.0793
   75CHL1   C18 7983   0.845   0.281   7.646  0.0236 -0.2540  0.2551
   75CHL1  H18A 7984   0.786   0.278   7.551 -0.6252 -2.1344  0.6829
   75CHL1  H18B 7985   0.821   0.187   7.699 -0.2272 -1.9113 -2.5823
   75CHL1  H18C 7986   0.815   0.373   7.701  0.2301  0.1470 -0.2905
   75CHL1   C12 7987   1.036   0.427   7.562 -0.4959 -0.6480  0.2898
   75CHL1  H12A 7988   0.974   0.511   7.600 -1.1099 -1.5826  1.4014
   75CHL1  H12B 7989   1.146   0.442   7.570 -0.5830 -0.3595  0.9947
   75CHL1   C11 7990   0.994   0.426   7.412  0.2351 -0.6143  0.4421
   75CHL1  H11A 7991   0.886   0.406   7.425  0.1738  0.0027  0.9736
   75CHL1  H11B 7992   1.007   0.523   7.360 -1.7541  0.7562  2.3062
   75CHL1    C9 7993   1.057   0.304   7.338  0.2247 -0.5242 -0.3149
   75CHL1    H9 7994   1.167   0.317   7.348  0.3278 -2.1848  1.0319
   75CHL1   C10 7995   1.005   0.304   7.190  0.2074  0.3119 -0.2538
   75CHL1   C19 7996   0.854   0.319   7.186 -0.0753 -0.4413  0.3401
   75CHL1  H19A 7997   0.831   0.426   7.202 -0.1076 -0.6566  1.8526
   75CHL1  H19B 7998   0.819   0.285   7.086 -0.2545  1.1271 -0.1567
   75CHL1  H19C 7999   0.799   0.253   7.256 -0.5903  0.6828  1.0205
   75CHL1    C1 8000   1.077   0.421   7.124 -0.8500 -0.9530  0.5957
   75CHL1   H1A 8001   1.046   0.523   7.156 -2.3585 -1.5146  1.0029
   75CHL1   H1B 8002   1.187   0.409   7.134 -0.6839  0.9341  1.4355
   75CHL1    C2 8003   1.051   0.420   6.972 -0.0983 -0.6605  0.2111
   75CHL1   H2A 8004   1.087   0.515   6.926  0.8902 -0.9140  0.4387
   75CHL1   H2B 8005   0.940   0.422   6.966 -0.1565  2.6712  0.5732
   75CHL1   C20 8006   1.019   0.334   7.896  0.4419  0.5559 -0.5561
   75CHL1   H20 8007   0.908   0.325   7.896  0.5783 -1.5863  0.6590
   75CHL1   C21 8008   1.057   0.480   7.890  0.3517  0.5047  0.5891
   75CHL1  H21A 8009   1.031   0.528   7.793 -0.0381 -0.0945  0.3931
   75CHL1  H21B 8010   1.166   0.501   7.897  0.5269 -0.2883  0.3300
   75CHL1  H21C 8011   1.005   0.530   7.974  1.2583 -0.3668  1.6944
   75CHL1   C22 8012   1.081   0.261   8.023 -0.0889  0.0267  0.1951
   75CHL1  H22A 8013   1.034   0.161   8.041 -0.4242  0.4312  1.7762
   75CHL1  H22B 8014   1.192   0.256   8.022 -0.0879  0.1137 -0.1103
   75CHL1   C23 8015   1.041   0.329   8.161  0.0416  0.1763 -0.1521
   75CHL1  H23A 8016   1.092   0.428   8.169  3.8313 -1.6628  0.9219
   75CHL1  H23B 8017   0.935   0.360   8.152  0.0071  0.4040  0.8932
   75CHL1   C24 8018   1.069   0.241   8.282 -0.1287  0.4554 -0.1525
   75CHL1  H24A 8019   1.027   0.285   8.374  1.4285  1.6316  0.0398
   75CHL1  H24B 8020   1.029   0.141   8.254 -1.1492  0.7243  0.3131
   75CHL1   C25 8021   1.217   0.233   8.318 -0.4585 -0.3610 -0.1229
   75CHL1   H25 8022   1.270   0.186   8.232  0.4757 -1.8213  1.1876
   75CHL1   C26 8023   1.284   0.368   8.358 -0.4945  0.3505  0.7144
   75CHL1  H26A 8024   1.287   0.447   8.280 -1.5241  1.1891  1.5101
   75CHL1  H26B 8025   1.230   0.416   8.442  1.3137  1.5770  1.2276
   75CHL1  H26C 8026   1.381   0.334   8.400  0.9176  0.7455 -1.9805
   75CHL1   C27 8027   1.247   0.121   8.420  0.0474 -0.2257 -0.7304
   75CHL1  H27A 8028   1.242   0.024   8.367 -2.0582 -0.2812 -0.5178
   75CHL1  H27B 8029   1.350   0.132   8.461 -0.5596 -0.3142  0.8917
   75CHL1  H27C 8030   1.176   0.113   8.505  1.8279 -0.5223  0.7977
   76CHL1    C3 8031   6.224   1.471   7.295 -0.4483 -0.3814  0.3520
   76CHL1    H3 8032   6.280   1.375   7.291 -1.3318 -0.9066  0.2882
   76CHL1    O3 8033   6.240   1.543   7.170 -0.1745  0.1002 -0.3974
   76CHL1   H3' 8034   6.331   1.529   7.144 -0.2443  1.7571 -1.6768
   76CHL1    C4 8035   6.081   1.459   7.328  0.3478  0.3109 -0.0684
   76CHL1   H4A 8036   6.032   1.558   7.322 -1.5184 -0.5726 -0.1239
   76CHL1   H4B 8037   6.036   1.393   7.251  0.6028 -0.1084  0.1382
   76CHL1    C5 8038   6.058   1.399   7.467  0.1044  0.1639 -0.1851
   76CHL1    C6 8039   5.986   1.287   7.483 -0.3035  0.0680  0.0589
   76CHL1    H6 8040   5.927   1.250   7.398 -1.0396 -0.3368  0.7318
   76CHL1    C7 8041   5.963   1.211   7.615  0.7845 -0.7959  0.2484
   76CHL1   H7A 8042   5.855   1.194   7.634  0.6293 -1.8915 -1.3973
   76CHL1   H7B 8043   6.006   1.109   7.610  1.3905 -0.5076 -0.5474
   76CHL1    C8 8044   6.006   1.295   7.735 -0.0724 -0.2557 -0.4942
   76CHL1    H8 8045   5.929   1.370   7.762  1.6446  0.9013  1.4009
   76CHL1   C14 8046   6.029   1.206   7.855  0.2786  0.8171 -0.0119
   76CHL1   H14 8047   6.099   1.125   7.824 -2.3808 -1.7944  0.3445
   76CHL1   C15 8048   5.908   1.118   7.895 -0.1381 -0.1269  0.1978
   76CHL1  H15A 8049   5.818   1.183   7.889  0.7314  0.9994 -1.5381
   76CHL1  H15B 8050   5.900   1.028   7.831 -1.3962  0.4821 -0.5306
   76CHL1   C16 8051   5.944   1.073   8.032  0.3794 -0.5682 -0.1998
   76CHL1  H16A 8052   5.854   1.097   8.092 -0.3328  1.5892 -2.0157
   76CHL1  H16B 8053   5.951   0.962   8.032 -0.7536 -0.6976 -2.5594
   76CHL1   C17 8054   6.069   1.154   8.076  0.6803 -0.1605 -0.0892
   76CHL1   H17 8055   6.155   1.098   8.034  2.1153  0.9607  1.2170
   76CHL1   C13 8056   6.071   1.276   7.981  0.1523 -0.0004 -0.2426
   76CHL1   C18 8057   5.957   1.377   8.020  0.0230 -0.1331 -0.9460
   76CHL1  H18A 8058   5.994   1.442   8.102 -0.5763  1.1120 -1.6150
   76CHL1  H18B 8059   5.937   1.446   7.934 -0.2414 -0.4458 -1.1394
   76CHL1  H18C 8060   5.864   1.325   8.052 -1.1330  1.4806 -1.4921
   76CHL1   C12 8061   6.209   1.348   7.959  0.9952  0.0415  0.8179
   76CHL1  H12A 8062   6.254   1.405   8.042  0.1372  0.6173  0.8996
   76CHL1  H12B 8063   6.275   1.265   7.925 -2.0663 -2.7435  1.1818
   76CHL1   C11 8064   6.200   1.442   7.837  0.4933 -0.6048  1.0409
   76CHL1  H11A 8065   6.139   1.529   7.867  1.3587  1.1646 -1.9040
   76CHL1  H11B 8066   6.294   1.490   7.803  0.4777 -0.3779  1.3143
   76CHL1    C9 8067   6.134   1.368   7.712 -0.3035 -0.4233  0.0260
   76CHL1    H9 8068   6.204   1.283   7.694 -0.0164  0.0636 -1.3012
   76CHL1   C10 8069   6.138   1.462   7.587  0.5148  0.3040 -0.6834
   76CHL1   C19 8070   6.073   1.599   7.627  0.1574  0.3213 -0.1326
   76CHL1  H19A 8071   5.964   1.594   7.648 -0.0429 -2.0690 -1.4878
   76CHL1  H19B 8072   6.122   1.645   7.716 -0.5383  2.8627 -0.9847
   76CHL1  H19C 8073   6.091   1.668   7.542  0.0119  1.7622  0.9438
   76CHL1    C1 8074   6.280   1.492   7.540 -0.5868 -0.2166  0.7044
   76CHL1   H1A 8075   6.339   1.556   7.610 -0.2118  2.4508 -1.8413
   76CHL1   H1B 8076   6.340   1.399   7.535 -2.9635 -1.8083  0.4375
   76CHL1    C2 8077   6.294   1.557   7.400  0.3517 -0.7336 -0.8028
   76CHL1   H2A 8078   6.400   1.573   7.368 -0.3482  1.6329 -2.1468
   76CHL1   H2B 8079   6.247   1.657   7.411  1.3870 -0.1960 -1.1501
   76CHL1   C20 8080   6.081   1.170   8.221 -0.0988 -0.3423 -0.3270
   76CHL1   H20 8081   5.977   1.194   8.253 -0.1523 -0.8597 -0.0981
   76CHL1   C21 8082   6.181   1.276   8.265  0.4425 -0.0124  0.5115
   76CHL1  H21A 8083   6.282   1.258   8.221 -0.1356 -0.6595 -0.5929
   76CHL1  H21B 8084   6.189   1.271   8.376 -2.7599 -2.8610  0.7810
   76CHL1  H21C 8085   6.160   1.383   8.244  2.0870  0.5716  1.6408
   76CHL1   C22 8086   6.109   1.024   8.277 -0.4575 -0.2410 -0.4858
   76CHL1  H22A 8087   6.019   0.964   8.252 -0.5695  0.3554 -1.5847
   76CHL1  H22B 8088   6.184   0.966   8.219 -2.3353 -0.3602 -2.9890
   76CHL1   C23 8089   6.139   0.998   8.431 -0.8587 -0.1103 -0.0112
   76CHL1  H23A 8090   6.215   1.074   8.459 -0.1056  1.1485 -4.6339
   76CHL1  H23B 8091   6.043   1.023   8.480  0.4170  0.3480  2.4337
   76CHL1   C24 8092   6.188   0.857   8.459  0.2850 -0.2703  0.9201
   76CHL1  H24A 8093   6.122   0.791   8.399 -0.3832 -0.2472  1.6180
   76CHL1  H24B 8094   6.287   0.836   8.413  0.2902  0.6466  0.4755
   76CHL1   C25 8095   6.158   0.816   8.605 -0.6048  0.5544  0.1565
   76CHL1   H25 8096   6.185   0.708   8.603  0.7231  0.8738  0.3008
   76CHL1   C26 8097   6.255   0.879   8.709 -0.5327  0.3614 -0.7187
   76CHL1  H26A 8098   6.232   0.852   8.814 -1.3323  1.7525 -0.5001
   76CHL1  H26B 8099   6.365   0.862   8.707 -0.7369 -1.8368  1.8571
   76CHL1  H26C 8100   6.248   0.990   8.711 -0.1549  0.3735  1.1798
   76CHL1   C27 8101   6.012   0.825   8.652 -0.3907  0.5705  0.3303
   76CHL1  H27A 8102   5.986   0.933   8.649  0.2895  0.7516  0.7594
   76CHL1  H27B 8103   5.958   0.756   8.584  3.7434 -3.0798  0.3214
   76CHL1  H27C 8104   6.002   0.782   8.754 -0.3089  2.4225  1.1553
   77CHL1    C3 8105   6.166   5.602   6.613  0.4003  0.6671 -0.2302
   77CHL1    H3 8106   6.114   5.515   6.658  0.2379  0.7816 -0.1971
   77CHL1    O3 8107   6.191   5.577   6.473  0.0640 -0.3897 -0.0282
   77CHL1   H3' 8108   6.104   5.579   6.433 -0.1071  0.9395  0.3338
   77CHL1    C4 8109   6.082   5.738   6.624 -0.2484  0.5744 -0.6839
   77CHL1   H4A 8110   6.149   5.816   6.582  1.2259  0.5225  1.4033
   77CHL1   H4B 8111   5.990   5.736   6.562 -0.2089  1.2849 -0.7753
   77CHL1    C5 8112   6.054   5.790   6.767 -0.2259  0.2928  0.6091
   77CHL1    C6 8113   5.928   5.787   6.813  0.0443  0.0827  0.1021
   77CHL1    H6 8114   5.856   5.748   6.739 -1.5514 -0.8062  2.0277
   77CHL1    C7 8115   5.884   5.826   6.950  0.4488 -0.1617  0.1144
   77CHL1   H7A 8116   5.796   5.893   6.957  2.2333  2.4420 -0.6213
   77CHL1   H7B 8117   5.851   5.736   7.006 -1.0925 -0.5850 -1.3996
   77CHL1    C8 8118   6.003   5.885   7.039  0.9330 -0.3760 -0.6030
   77CHL1    H8 8119   6.023   5.989   7.007 -0.8665 -0.1818 -1.2213
   77CHL1   C14 8120   5.957   5.868   7.183 -0.1980 -0.7299 -0.4349
   77CHL1   H14 8121   5.951   5.759   7.201  0.9684 -1.0098 -1.5958
   77CHL1   C15 8122   5.825   5.939   7.224  0.4896  0.3376  0.2761
   77CHL1  H15A 8123   5.824   6.045   7.190  0.4837  0.2623  0.0405
   77CHL1  H15B 8124   5.735   5.892   7.180 -1.4164  2.7840  1.3593
   77CHL1   C16 8125   5.832   5.931   7.377  0.3055 -0.4130  0.5816
   77CHL1  H16A 8126   5.804   6.027   7.425 -0.6071 -0.1738 -0.4183
   77CHL1  H16B 8127   5.775   5.846   7.420 -1.4343 -0.6420 -1.9985
   77CHL1   C17 8128   5.975   5.898   7.417  0.2459  0.4737 -0.2743
   77CHL1   H17 8129   5.967   5.792   7.451  1.2441  1.1927  2.5074
   77CHL1   C13 8130   6.056   5.923   7.283  0.4024  0.2513 -0.0327
   77CHL1   C18 8131   6.082   6.072   7.271 -0.7427 -0.1172 -0.6165
   77CHL1  H18A 8132   5.989   6.132   7.278 -1.4407 -1.1494 -0.8067
   77CHL1  H18B 8133   6.151   6.109   7.350  0.6042  1.9150 -2.6324
   77CHL1  H18C 8134   6.130   6.100   7.175 -0.2908 -0.8315 -0.6040
   77CHL1   C12 8135   6.182   5.838   7.267  0.0547 -0.1240  0.4395
   77CHL1  H12A 8136   6.258   5.875   7.338  2.6141 -2.6421 -0.7937
   77CHL1  H12B 8137   6.167   5.729   7.284  1.8496 -0.2279  1.5665
   77CHL1   C11 8138   6.236   5.838   7.122 -0.1208 -0.0407  1.0053
   77CHL1  H11A 8139   6.266   5.945   7.115 -0.6999  0.0090 -1.0214
   77CHL1  H11B 8140   6.321   5.767   7.108 -0.4659 -0.2688  0.0388
   77CHL1    C9 8141   6.131   5.807   7.014 -0.1397  0.2447 -0.2378
   77CHL1    H9 8142   6.104   5.703   7.040  1.3355  0.0974  0.8475
   77CHL1   C10 8143   6.175   5.792   6.866  0.7987  0.7955 -0.4884
   77CHL1   C19 8144   6.260   5.914   6.831 -0.1782 -0.9766  0.3374
   77CHL1  H19A 8145   6.292   5.923   6.725  0.9943 -0.0714  0.7368
   77CHL1  H19B 8146   6.198   6.005   6.845  1.2244  0.4197 -1.9468
   77CHL1  H19C 8147   6.355   5.901   6.888  0.1559 -0.1355 -0.0028
   77CHL1    C1 8148   6.253   5.662   6.844 -0.2724 -0.1136 -0.3005
   77CHL1   H1A 8149   6.343   5.665   6.910  1.3004 -0.6368 -2.3065
   77CHL1   H1B 8150   6.200   5.574   6.886  0.8041 -0.2986  0.7237
   77CHL1    C2 8151   6.294   5.622   6.699 -0.0381  0.5886 -0.3575
   77CHL1   H2A 8152   6.344   5.523   6.696 -2.6720 -0.9109  0.8559
   77CHL1   H2B 8153   6.358   5.701   6.654 -0.6173  2.1691  1.4705
   77CHL1   C20 8154   6.024   5.964   7.550 -0.3511 -0.5532 -0.7847
   77CHL1   H20 8155   6.025   6.074   7.540 -0.0098 -0.5173 -0.3785
   77CHL1   C21 8156   6.171   5.917   7.577 -0.2879 -1.2020 -0.4282
   77CHL1  H21A 8157   6.213   5.966   7.668  2.3101  1.7551 -2.9927
   77CHL1  H21B 8158   6.249   5.957   7.509  0.2846 -0.7015  0.4978
   77CHL1  H21C 8159   6.177   5.806   7.584  0.1416 -1.1488  0.1737
   77CHL1   C22 8160   5.939   5.913   7.671  0.2840 -0.8155  0.1316
   77CHL1  H22A 8161   5.829   5.914   7.653  0.3517 -1.2259 -0.3334
   77CHL1  H22B 8162   5.969   5.808   7.688  1.1785 -0.4647  0.7903
   77CHL1   C23 8163   5.962   5.996   7.801 -1.0697  0.2662  0.2588
   77CHL1  H23A 8164   6.069   5.986   7.826 -0.9769  1.2900  0.3054
   77CHL1  H23B 8165   5.925   6.101   7.789  2.1212  1.7866  2.4460
   77CHL1   C24 8166   5.881   5.945   7.926 -0.2775 -0.7230 -0.3475
   77CHL1  H24A 8167   5.779   5.936   7.885  0.3746 -1.6641 -1.8781
   77CHL1  H24B 8168   5.919   5.843   7.950  0.3181 -0.1560  1.2775
   77CHL1   C25 8169   5.877   6.037   8.046 -0.2181  0.0408 -0.7780
   77CHL1   H25 8170   5.846   6.138   8.013 -4.4668  0.3388  3.0552
   77CHL1   C26 8171   5.768   5.997   8.147  0.1824 -0.1081  1.1593
   77CHL1  H26A 8172   5.674   6.039   8.106  0.7346  1.2940  1.2796
   77CHL1  H26B 8173   5.742   5.889   8.148 -0.8908  0.0825 -1.1244
   77CHL1  H26C 8174   5.798   6.046   8.242  3.6951 -0.9386  0.6071
   77CHL1   C27 8175   6.017   6.055   8.114  0.6790 -0.3998  0.6145
   77CHL1  H27A 8176   6.012   6.108   8.211  2.2469 -0.1310  0.5723
   77CHL1  H27B 8177   6.069   5.958   8.128  1.2954 -0.0402  0.8390
   77CHL1  H27C 8178   6.078   6.117   8.045 -0.8178  0.7845  0.3118
   78CHL1    C3 8179   2.165   1.455   6.686 -0.4235  0.1083 -0.1126
   78CHL1    H3 8180   2.236   1.372   6.702 -0.1541 -0.3730 -3.1981
   78CHL1    O3 8181   2.133   1.452   6.552 -0.1944 -0.1863 -0.7566
   78CHL1   H3' 8182   2.172   1.368   6.526  0.8096  0.3141 -0.8773
   78CHL1    C4 8183   2.028   1.429   6.769 -0.0736 -0.4034 -0.0105
   78CHL1   H4A 8184   1.954   1.499   6.726  0.6142 -0.2329 -0.9692
   78CHL1   H4B 8185   1.999   1.324   6.750  0.2518 -0.5793  0.4489
   78CHL1    C5 8186   2.051   1.448   6.921  0.3046  0.2190 -0.1235
   78CHL1    C6 8187   2.015   1.348   7.007 -0.0490 -0.5466 -0.2201
   78CHL1    H6 8188   1.980   1.253   6.966  1.3109 -0.8520 -0.7264
   78CHL1    C7 8189   2.024   1.365   7.156  0.2079 -0.3914  0.1100
   78CHL1   H7A 8190   1.938   1.320   7.209 -0.4863 -1.0050 -1.4771
   78CHL1   H7B 8191   2.115   1.309   7.187 -1.1204 -2.3810  0.5756
   78CHL1    C8 8192   2.056   1.509   7.205  0.0844  0.0047 -0.2033
   78CHL1    H8 8193   1.959   1.564   7.203  0.5339  0.8511  0.4456
   78CHL1   C14 8194   2.095   1.518   7.355 -0.1549 -0.1857 -0.3728
   78CHL1   H14 8195   2.200   1.481   7.358 -0.5448 -1.5051 -1.7991
   78CHL1   C15 8196   2.016   1.439   7.460  0.0584  0.1614  0.3494
   78CHL1  H15A 8197   1.905   1.438   7.455  0.0673 -1.9026 -0.8040
   78CHL1  H15B 8198   2.046   1.332   7.465 -1.0458 -0.1278  1.4399
   78CHL1   C16 8199   2.055   1.505   7.593 -0.2473 -0.3755 -0.2374
   78CHL1  H16A 8200   1.967   1.556   7.639 -2.2511 -2.4604 -1.4955
   78CHL1  H16B 8201   2.111   1.443   7.666  2.9827  2.3412 -0.1798
   78CHL1   C17 8202   2.150   1.625   7.555  0.7888 -0.3354  0.5459
   78CHL1   H17 8203   2.254   1.586   7.552  1.1084  0.4726  0.6993
   78CHL1   C13 8204   2.110   1.658   7.409  0.8097 -0.7988 -0.3026
   78CHL1   C18 8205   1.970   1.732   7.416 -0.2564  0.2402  0.2354
   78CHL1  H18A 8206   1.919   1.739   7.318 -0.0406  0.3429  0.1315
   78CHL1  H18B 8207   1.906   1.675   7.488 -0.2603  0.4246  0.3785
   78CHL1  H18C 8208   1.991   1.834   7.454  0.3404  0.0471  0.4448
   78CHL1   C12 8209   2.217   1.733   7.322 -0.0937  0.5787  0.1908
   78CHL1  H12A 8210   2.225   1.839   7.352  1.1655  0.6276 -0.2642
   78CHL1  H12B 8211   2.315   1.682   7.333  0.8895  2.2340 -0.5817
   78CHL1   C11 8212   2.181   1.728   7.175  0.2910 -0.1350  0.3830
   78CHL1  H11A 8213   2.090   1.792   7.166 -1.3519 -2.0595  2.2303
   78CHL1  H11B 8214   2.265   1.768   7.115  1.2403 -1.7720  0.5631
   78CHL1    C9 8215   2.156   1.587   7.116  0.3981  0.0419  0.4859
   78CHL1    H9 8216   2.250   1.529   7.118  0.2592 -0.3314 -1.5811
   78CHL1   C10 8217   2.114   1.590   6.965  0.0076  0.3018  0.3601
   78CHL1   C19 8218   2.015   1.700   6.937  0.1959 -0.7940  0.4989
   78CHL1  H19A 8219   1.985   1.709   6.831 -0.0741  1.7507  0.7312
   78CHL1  H19B 8220   1.920   1.683   6.993 -0.0186  0.6868  0.6286
   78CHL1  H19C 8221   2.057   1.802   6.955  1.1659 -0.3615 -3.3499
   78CHL1    C1 8222   2.239   1.610   6.874  0.7309 -0.0673 -0.2853
   78CHL1   H1A 8223   2.276   1.713   6.894  0.4708 -0.2731  1.4044
   78CHL1   H1B 8224   2.320   1.539   6.900  0.9325  0.2338 -0.0880
   78CHL1    C2 8225   2.223   1.584   6.717  0.4376 -0.4805  0.2431
   78CHL1   H2A 8226   2.317   1.604   6.662  0.1752  0.1427  0.0103
   78CHL1   H2B 8227   2.157   1.661   6.672  2.5873  0.8070 -0.8295
   78CHL1   C20 8228   2.165   1.731   7.656 -1.1669 -0.0362 -0.3102
   78CHL1   H20 8229   2.082   1.805   7.644 -1.4245 -0.2516  0.1182
   78CHL1   C21 8230   2.291   1.813   7.639 -0.3102 -0.3503  0.0605
   78CHL1  H21A 8231   2.385   1.755   7.654  0.9077  0.8960 -2.2504
   78CHL1  H21B 8232   2.287   1.893   7.717 -1.0843 -1.0434  0.7569
   78CHL1  H21C 8233   2.293   1.867   7.542  2.5228  1.3518  0.9311
   78CHL1   C22 8234   2.159   1.676   7.799 -0.1369 -0.4001  0.8144
   78CHL1  H22A 8235   2.085   1.596   7.822  2.4355 -2.2200  3.4490
   78CHL1  H22B 8236   2.257   1.625   7.809  0.2519 -0.2385 -1.6179
   78CHL1   C23 8237   2.138   1.786   7.907  0.0389 -1.0634  1.8533
   78CHL1  H23A 8238   2.225   1.855   7.904  0.9819 -2.2344  1.0580
   78CHL1  H23B 8239   2.049   1.850   7.887 -0.0062 -0.9465  2.4302
   78CHL1   C24 8240   2.138   1.723   8.045 -0.4300  0.2596  0.0491
   78CHL1  H24A 8241   2.062   1.643   8.040  1.5204 -1.6748 -0.1810
   78CHL1  H24B 8242   2.230   1.668   8.075  0.0590  0.8039 -0.4084
   78CHL1   C25 8243   2.090   1.813   8.164 -0.0624  0.0025  0.0787
   78CHL1   H25 8244   1.991   1.851   8.130  0.8844  2.6887  0.1436
   78CHL1   C26 8245   2.089   1.734   8.296  0.1848  0.5247 -0.3465
   78CHL1  H26A 8246   2.029   1.643   8.275 -0.6558  0.4298  2.1081
   78CHL1  H26B 8247   2.193   1.709   8.328 -0.9790 -1.2838  2.3564
   78CHL1  H26C 8248   2.044   1.792   8.379  0.2859 -1.3526  1.1000
   78CHL1   C27 8249   2.181   1.938   8.182 -0.0143 -0.3178  0.0277
   78CHL1  H27A 8250   2.138   1.996   8.266  1.5163  0.3062  0.4144
   78CHL1  H27B 8251   2.284   1.906   8.209  0.2054  0.4788  0.1476
   78CHL1  H27C 8252   2.196   2.003   8.094 -0.5457  0.6035  0.5953
   79CHL1    C3 8253   6.775   1.353   7.167 -0.4109 -0.8657 -0.9656
   79CHL1    H3 8254   6.786   1.244   7.145  0.7408 -2.3249  4.8738
   79CHL1    O3 8255   6.770   1.428   7.049 -0.0158  0.4575 -0.3801
   79CHL1   H3' 8256   6.701   1.383   7.000  1.3486 -1.5701 -0.5493
   79CHL1    C4 8257   6.640   1.371   7.238  0.6965 -0.1712 -0.1529
   79CHL1   H4A 8258   6.609   1.478   7.242 -0.4330 -0.4168 -1.6372
   79CHL1   H4B 8259   6.569   1.325   7.166  2.4343 -1.0831 -1.3554
   79CHL1    C5 8260   6.646   1.303   7.374 -0.0935  0.1772 -0.4633
   79CHL1    C6 8261   6.563   1.200   7.403  0.4029  0.4986  0.6277
   79CHL1    H6 8262   6.480   1.178   7.334  0.4349 -0.1883  0.8033
   79CHL1    C7 8263   6.551   1.145   7.538  0.2689 -0.4060 -0.7608
   79CHL1   H7A 8264   6.444   1.146   7.566  0.3742  1.2568 -0.2739
   79CHL1   H7B 8265   6.581   1.039   7.548 -1.3856 -0.7392  1.5461
   79CHL1    C8 8266   6.622   1.231   7.656 -0.4088 -0.0555  0.7643
   79CHL1    H8 8267   6.563   1.325   7.663  0.7453  0.6949  0.6275
   79CHL1   C14 8268   6.633   1.161   7.788 -0.3000 -0.4436  0.2488
   79CHL1   H14 8269   6.707   1.079   7.775 -1.1881 -1.0818 -0.8474
   79CHL1   C15 8270   6.509   1.087   7.841 -0.4566  0.2489  0.7535
   79CHL1  H15A 8271   6.418   1.150   7.832 -1.4682 -1.3404 -0.6037
   79CHL1  H15B 8272   6.501   0.994   7.781 -2.3510  1.7300 -1.4355
   79CHL1   C16 8273   6.533   1.073   7.992 -0.7889  0.9185  0.0162
   79CHL1  H16A 8274   6.455   1.111   8.061  0.8236 -2.4464  4.1566
   79CHL1  H16B 8275   6.546   0.970   8.031  1.2794  1.8272  1.9776
   79CHL1   C17 8276   6.670   1.144   8.020 -0.2807  0.5839  0.0447
   79CHL1   H17 8277   6.744   1.066   7.992 -2.2869 -0.6120 -2.3608
   79CHL1   C13 8278   6.690   1.250   7.905 -0.3715  0.0603 -0.3847
   79CHL1   C18 8279   6.596   1.368   7.930  0.7970  0.4393  0.5645
   79CHL1  H18A 8280   6.642   1.442   7.998  1.6496  0.8046 -0.3817
   79CHL1  H18B 8281   6.577   1.437   7.845 -0.1570 -0.4538  0.0268
   79CHL1  H18C 8282   6.497   1.333   7.965  1.2839 -1.6484  0.0361
   79CHL1   C12 8283   6.834   1.300   7.863 -0.6684  0.0259 -0.7796
   79CHL1  H12A 8284   6.874   1.375   7.934  2.4790 -0.9236 -1.4094
   79CHL1  H12B 8285   6.903   1.213   7.866 -1.0051 -0.2283  0.2740
   79CHL1   C11 8286   6.838   1.359   7.723  0.2224  0.3136 -0.1611
   79CHL1  H11A 8287   6.789   1.459   7.720 -1.7263 -0.6227 -3.1560
   79CHL1  H11B 8288   6.943   1.385   7.697  0.4973 -0.2279  0.3579
   79CHL1    C9 8289   6.766   1.281   7.614 -0.5844  0.6495 -0.1336
   79CHL1    H9 8290   6.815   1.183   7.600 -1.0844  0.1499  1.3776
   79CHL1   C10 8291   6.755   1.356   7.476  0.4894  0.4937  0.2358
   79CHL1   C19 8292   6.712   1.510   7.492 -0.6970  0.1355  0.1809
   79CHL1  H19A 8293   6.797   1.560   7.544  0.0190 -0.5948 -0.2532
   79CHL1  H19B 8294   6.689   1.562   7.396 -0.1909  2.0980  1.0706
   79CHL1  H19C 8295   6.624   1.532   7.556 -0.2569  1.7320  0.2849
   79CHL1    C1 8296   6.886   1.342   7.401 -1.2987  0.1668  0.5541
   79CHL1   H1A 8297   6.973   1.392   7.449  0.9880 -1.9609 -1.1550
   79CHL1   H1B 8298   6.901   1.233   7.393  0.7144  0.3030  1.8106
   79CHL1    C2 8299   6.895   1.396   7.252  0.0865  0.0746 -0.1422
   79CHL1   H2A 8300   6.997   1.378   7.211  0.2375 -1.0754  0.7007
   79CHL1   H2B 8301   6.889   1.506   7.270  1.2933 -0.0453  1.2235
   79CHL1   C20 8302   6.689   1.181   8.166 -0.3836 -0.1855 -0.2512
   79CHL1   H20 8303   6.603   1.242   8.201  0.2657  0.5800  0.0199
   79CHL1   C21 8304   6.809   1.266   8.183 -0.5888  0.1077  0.6005
   79CHL1  H21A 8305   6.790   1.364   8.133 -0.1329 -0.3070 -0.4148
   79CHL1  H21B 8306   6.896   1.213   8.138 -0.1131  2.5588 -1.6000
   79CHL1  H21C 8307   6.832   1.289   8.289  2.6680  0.3384 -0.0514
   79CHL1   C22 8308   6.678   1.064   8.266 -1.3190  0.1563  0.0193
   79CHL1  H22A 8309   6.572   1.032   8.255 -0.2952 -2.9761 -2.2270
   79CHL1  H22B 8310   6.745   0.983   8.232 -1.0279  0.7230 -0.8040
   79CHL1   C23 8311   6.704   1.102   8.416  0.2633 -0.0994  0.0503
   79CHL1  H23A 8312   6.815   1.101   8.423  0.1829  1.3639  3.0968
   79CHL1  H23B 8313   6.654   1.199   8.438 -0.4327 -0.4983  0.2673
   79CHL1   C24 8314   6.639   0.996   8.515 -0.1765  0.4405 -0.3561
   79CHL1  H24A 8315   6.529   0.984   8.501 -0.1244 -1.1616  0.4411
   79CHL1  H24B 8316   6.679   0.895   8.493 -0.0151  0.2798  0.6346
   79CHL1   C25 8317   6.653   1.035   8.665 -0.2348 -0.6079  0.1159
   79CHL1   H25 8318   6.609   0.951   8.723  0.8915 -0.1995  1.6128
   79CHL1   C26 8319   6.797   1.035   8.710 -0.0189 -0.2315  0.3735
   79CHL1  H26A 8320   6.856   1.110   8.653 -0.5129 -0.9324 -1.0995
   79CHL1  H26B 8321   6.795   1.050   8.820 -1.5758 -1.4486  0.5390
   79CHL1  H26C 8322   6.845   0.937   8.690 -0.1686 -0.1218 -0.5360
   79CHL1   C27 8323   6.570   1.162   8.691 -0.0478  0.2867 -0.1844
   79CHL1  H27A 8324   6.471   1.161   8.640  0.0606  0.1464 -0.3920
   79CHL1  H27B 8325   6.529   1.166   8.794 -0.1681  1.0188 -0.2538
   79CHL1  H27C 8326   6.636   1.247   8.666 -1.4979  0.8147 -2.4872
   80CHL1    C3 8327   3.938   5.448   6.911 -0.8455  0.1331 -0.8080
   80CHL1    H3 8328   4.040   5.412   6.939 -1.9540 -1.8091  0.9714
   80CHL1    O3 8329   3.929   5.482   6.774 -0.6938 -0.1380 -0.0371
   80CHL1   H3' 8330   3.897   5.405   6.728 -3.7130  0.4154  0.9101
   80CHL1    C4 8331   3.837   5.332   6.941  0.4181 -0.3650  0.0488
   80CHL1   H4A 8332   3.734   5.359   6.910  0.6933 -0.5454 -1.0901
   80CHL1   H4B 8333   3.873   5.246   6.881  1.5422 -0.3566  0.6717
   80CHL1    C5 8334   3.848   5.294   7.084 -0.4170  0.2504  0.5659
   80CHL1    C6 8335   3.888   5.167   7.125  0.2850 -0.5450  0.1742
   80CHL1    H6 8336   3.912   5.098   7.044  1.0804 -0.8418  0.6496
   80CHL1    C7 8337   3.902   5.118   7.265  0.5878 -0.1355  0.0571
   80CHL1   H7A 8338   3.850   5.020   7.273 -1.6787  0.9169 -0.7078
   80CHL1   H7B 8339   4.007   5.103   7.296  0.2061  0.7889  1.9898
   80CHL1    C8 8340   3.842   5.222   7.367 -0.0011 -0.3940  0.5097
   80CHL1    H8 8341   3.733   5.203   7.360 -0.6898  3.1755 -1.0828
   80CHL1   C14 8342   3.898   5.185   7.503 -0.9267 -0.0917  0.4328
   80CHL1   H14 8343   4.006   5.210   7.503 -0.7394 -0.7768 -1.0784
   80CHL1   C15 8344   3.902   5.033   7.535  1.2560 -0.2182  0.1374
   80CHL1  H15A 8345   3.806   4.978   7.525  0.1347  1.7948 -0.8709
   80CHL1  H15B 8346   3.983   4.983   7.478  1.1597  0.8401 -0.9710
   80CHL1   C16 8347   3.922   5.045   7.688  0.2517 -0.1106  0.1205
   80CHL1  H16A 8348   3.840   4.991   7.739 -1.8991  2.2604 -0.6250
   80CHL1  H16B 8349   4.022   5.003   7.710  0.9434  1.7099  0.6076
   80CHL1   C17 8350   3.918   5.194   7.732 -0.0641 -0.4115 -0.6481
   80CHL1   H17 8351   4.024   5.227   7.729  0.0430 -0.8084 -1.9146
   80CHL1   C13 8352   3.843   5.268   7.621 -0.0593  0.9748 -0.1799
   80CHL1   C18 8353   3.692   5.229   7.637 -0.0985  0.3064 -0.4095
   80CHL1  H18A 8354   3.637   5.258   7.546  0.7754  2.5369 -0.2975
   80CHL1  H18B 8355   3.677   5.120   7.655  3.2173  0.0100  1.3173
   80CHL1  H18C 8356   3.639   5.287   7.715  0.7477  0.6027 -0.0397
   80CHL1   C12 8357   3.869   5.416   7.592  0.6140 -0.3798 -0.4358
   80CHL1  H12A 8358   3.831   5.487   7.669  0.5700 -2.2905  1.3783
   80CHL1  H12B 8359   3.980   5.423   7.589  0.8346 -1.8531  2.0903
   80CHL1   C11 8360   3.815   5.455   7.454 -0.1375 -0.5486 -0.2167
   80CHL1  H11A 8361   3.705   5.441   7.458 -0.1724 -0.5341 -0.9509
   80CHL1  H11B 8362   3.830   5.562   7.428  0.7591  0.0783  2.5230
   80CHL1    C9 8363   3.866   5.368   7.340  0.0523 -0.2411 -0.1158
   80CHL1    H9 8364   3.975   5.389   7.345 -0.1031  0.4629  0.5192
   80CHL1   C10 8365   3.820   5.403   7.191  0.6425  0.7138  0.4693
   80CHL1   C19 8366   3.669   5.448   7.190 -1.0448 -1.1428 -0.1046
   80CHL1  H19A 8367   3.635   5.466   7.086 -0.6681  0.6528  0.0562
   80CHL1  H19B 8368   3.599   5.377   7.238 -1.6598  0.2646  1.1408
   80CHL1  H19C 8369   3.652   5.542   7.247  0.7824 -1.0789  0.4015
   80CHL1    C1 8370   3.910   5.529   7.150  0.0952 -0.3337  0.0567
   80CHL1   H1A 8371   3.898   5.612   7.223 -2.3072 -1.3291  0.8873
   80CHL1   H1B 8372   4.016   5.502   7.171  0.0688  0.6067  1.5263
   80CHL1    C2 8373   3.912   5.572   6.996  0.2835  0.9067 -0.5075
   80CHL1   H2A 8374   3.998   5.642   6.993  1.1607  0.0581  1.9990
   80CHL1   H2B 8375   3.821   5.631   6.975 -0.5529  0.2398  1.0391
   80CHL1   C20 8376   3.867   5.207   7.871 -0.5300 -0.6090 -0.0715
   80CHL1   H20 8377   3.761   5.172   7.881 -1.1305  1.2194  0.3783
   80CHL1   C21 8378   3.882   5.361   7.926 -0.3712 -0.3991  0.3322
   80CHL1  H21A 8379   3.850   5.371   8.032 -0.4994 -0.7562  0.3310
   80CHL1  H21B 8380   3.810   5.425   7.870 -0.1574 -1.8127 -1.6538
   80CHL1  H21C 8381   3.987   5.387   7.903 -0.3233 -0.9158 -0.0528
   80CHL1   C22 8382   3.939   5.127   7.984  0.0794 -0.4812  0.2273
   80CHL1  H22A 8383   3.972   5.028   7.945 -1.3330 -0.8864  0.0097
   80CHL1  H22B 8384   4.033   5.180   8.013 -0.8159  1.9122 -0.9633
   80CHL1   C23 8385   3.847   5.101   8.099  0.3548 -0.2918  0.4628
   80CHL1  H23A 8386   3.805   5.195   8.140 -0.5619 -1.5039  2.4837
   80CHL1  H23B 8387   3.757   5.049   8.058  0.2309 -0.7733  1.3166
   80CHL1   C24 8388   3.914   5.024   8.209 -0.5256 -0.8443  0.5715
   80CHL1  H24A 8389   3.842   4.946   8.240  0.6769 -3.2332 -2.2369
   80CHL1  H24B 8390   3.999   4.962   8.174 -0.5033 -0.0206 -0.9294
   80CHL1   C25 8391   3.978   5.101   8.328  0.3351  0.4782  0.0886
   80CHL1   H25 8392   4.031   5.194   8.301  0.8355  0.5956  1.3971
   80CHL1   C26 8393   3.883   5.160   8.424 -0.1893  0.6266 -1.0641
   80CHL1  H26A 8394   3.824   5.077   8.468  0.4730  0.6385 -0.1355
   80CHL1  H26B 8395   3.943   5.214   8.500 -0.7157 -1.7569  1.2005
   80CHL1  H26C 8396   3.801   5.220   8.378 -0.1950  1.8364  0.4353
   80CHL1   C27 8397   4.073   5.001   8.399  1.2231  0.1640  0.1941
   80CHL1  H27A 8398   4.133   4.955   8.319  0.7177  2.0373 -1.3530
   80CHL1  H27B 8399   4.133   5.049   8.480  0.8864 -1.1824  1.2852
   80CHL1  H27C 8400   4.013   4.927   8.456  5.5581 -1.4018  3.2745
   81CHL1    C3 8401   2.630   5.439   6.647 -0.0200  0.2105 -0.1598
   81CHL1    H3 8402   2.520   5.426   6.655  0.2122 -1.1754  1.0420
   81CHL1    O3 8403   2.661   5.437   6.511 -0.2387 -0.4194  0.2778
   81CHL1   H3' 8404   2.755   5.457   6.515  0.1578 -2.0893  0.1617
   81CHL1    C4 8405   2.675   5.571   6.713  0.0339 -0.3035 -0.1516
   81CHL1   H4A 8406   2.777   5.593   6.676  0.2150  1.4803  1.2823
   81CHL1   H4B 8407   2.611   5.650   6.669 -0.0779 -0.9605 -1.2046
   81CHL1    C5 8408   2.687   5.571   6.863 -0.2503 -0.2011 -0.0314
   81CHL1    C6 8409   2.640   5.673   6.936  0.1220  0.6646  0.3912
   81CHL1    H6 8410   2.595   5.757   6.880  0.6646 -1.2157 -3.2159
   81CHL1    C7 8411   2.650   5.681   7.088  0.0155  0.2064  0.1944
   81CHL1   H7A 8412   2.679   5.780   7.130 -2.2503  0.3771  1.5074
   81CHL1   H7B 8413   2.564   5.642   7.146  1.4628 -1.0217  1.6369
   81CHL1    C8 8414   2.760   5.583   7.147 -0.0165 -0.5555  0.6480
   81CHL1    H8 8415   2.861   5.613   7.113 -1.1479  1.2260 -1.3144
   81CHL1   C14 8416   2.742   5.584   7.297  0.4523  0.2865  0.4949
   81CHL1   H14 8417   2.644   5.537   7.320 -0.3579  2.3295  1.4120
   81CHL1   C15 8418   2.741   5.718   7.378  0.5492  0.9570 -0.0018
   81CHL1  H15A 8419   2.817   5.784   7.331 -0.5029  1.5539 -0.8974
   81CHL1  H15B 8420   2.638   5.758   7.369  0.2484 -0.1072 -1.8151
   81CHL1   C16 8421   2.779   5.668   7.522 -0.1928 -0.5218 -0.9077
   81CHL1  H16A 8422   2.877   5.717   7.541 -0.5369 -0.9279  2.5443
   81CHL1  H16B 8423   2.708   5.698   7.602  0.9368 -0.2128  0.0103
   81CHL1   C17 8424   2.802   5.522   7.511  0.1263 -0.1030  0.2079
   81CHL1   H17 8425   2.704   5.473   7.526  0.1437  0.4862  2.6591
   81CHL1   C13 8426   2.848   5.491   7.365  0.2562  0.4601  0.5996
   81CHL1   C18 8427   2.996   5.546   7.349  0.4385 -0.2994  0.2605
   81CHL1  H18A 8428   3.016   5.552   7.240 -1.3386  2.9093 -0.0278
   81CHL1  H18B 8429   3.010   5.648   7.392 -2.4800 -0.2283  1.2374
   81CHL1  H18C 8430   3.073   5.480   7.394  0.7675  0.1445  0.3560
   81CHL1   C12 8431   2.830   5.348   7.315 -0.5000 -0.0829  0.3355
   81CHL1  H12A 8432   2.919   5.295   7.354 -0.4331  1.2649  2.1244
   81CHL1  H12B 8433   2.742   5.300   7.363 -0.3836 -0.2531  0.3797
   81CHL1   C11 8434   2.832   5.343   7.161 -0.1208 -0.4929  0.3273
   81CHL1  H11A 8435   2.936   5.363   7.128 -0.7615 -0.4551 -1.8382
   81CHL1  H11B 8436   2.816   5.238   7.127 -1.3166 -0.0925 -0.4265
   81CHL1    C9 8437   2.742   5.445   7.088  0.9373 -0.6904  0.2006
   81CHL1    H9 8438   2.635   5.420   7.104  0.5966 -0.5230 -1.5862
   81CHL1   C10 8439   2.754   5.449   6.926 -0.3581 -0.0617 -0.4417
   81CHL1   C19 8440   2.907   5.448   6.894 -0.0829  0.3573 -0.1489
   81CHL1  H19A 8441   2.969   5.528   6.941  0.9125 -0.1862 -0.5220
   81CHL1  H19B 8442   2.957   5.350   6.905 -0.3379  0.0192 -1.7585
   81CHL1  H19C 8443   2.903   5.472   6.786 -1.6989  1.8597  0.1802
   81CHL1    C1 8444   2.682   5.320   6.868  0.1212 -0.4215  0.3058
   81CHL1   H1A 8445   2.717   5.229   6.920 -0.2128 -1.3272 -1.0168
   81CHL1   H1B 8446   2.582   5.339   6.913  0.3887 -0.7594  1.0570
   81CHL1    C2 8447   2.686   5.315   6.715  0.6518  0.2694  0.7136
   81CHL1   H2A 8448   2.626   5.230   6.677 -0.0253 -0.6159  3.4786
   81CHL1   H2B 8449   2.787   5.304   6.670 -0.1772  1.8712 -1.7386
   81CHL1   C20 8450   2.883   5.464   7.630 -0.6336 -0.3329  0.3909
   81CHL1   H20 8451   2.995   5.467   7.628 -0.6155  0.3808  1.3949
   81CHL1   C21 8452   2.854   5.313   7.638 -0.2800  0.2302 -1.0648
   81CHL1  H21A 8453   2.751   5.292   7.673  0.1938  2.6920  2.2138
   81CHL1  H21B 8454   2.919   5.274   7.720  1.2496 -0.9755 -2.7556
   81CHL1  H21C 8455   2.880   5.260   7.543 -0.2345 -0.5757 -0.6170
   81CHL1   C22 8456   2.866   5.536   7.771  0.4912 -0.0401  0.0300
   81CHL1  H22A 8457   2.911   5.638   7.763  0.1456  0.2047  1.0489
   81CHL1  H22B 8458   2.758   5.557   7.785  0.7393  0.7416  0.8849
   81CHL1   C23 8459   2.932   5.468   7.895  0.1261 -0.2599 -0.0673
   81CHL1  H23A 8460   2.888   5.366   7.895  1.2099 -0.8555 -3.4707
   81CHL1  H23B 8461   3.038   5.456   7.864  0.0896 -0.5118 -0.0992
   81CHL1   C24 8462   2.909   5.541   8.024  0.6834 -0.2504  0.3289
   81CHL1  H24A 8463   2.990   5.510   8.094  1.4695 -0.6498 -0.7381
   81CHL1  H24B 8464   2.932   5.649   8.018 -1.2865  0.1406 -0.9309
   81CHL1   C25 8465   2.774   5.522   8.098 -0.4861  0.4053  0.6605
   81CHL1   H25 8466   2.687   5.545   8.032 -0.9507 -3.1074 -0.1569
   81CHL1   C26 8467   2.762   5.377   8.140  0.0882  0.2146 -0.1468
   81CHL1  H26A 8468   2.846   5.353   8.209  0.5198 -0.4746 -0.8994
   81CHL1  H26B 8469   2.667   5.347   8.190 -0.4317  0.3271 -1.0481
   81CHL1  H26C 8470   2.773   5.303   8.059  0.8170 -1.6911  1.6026
   81CHL1   C27 8471   2.768   5.625   8.213  0.2645  0.6480 -0.1285
   81CHL1  H27A 8472   2.868   5.654   8.252 -0.2863  2.8428 -0.2470
   81CHL1  H27B 8473   2.729   5.719   8.169  0.0341 -0.0582 -1.4924
   81CHL1  H27C 8474   2.698   5.592   8.293 -0.6841  2.8253 -0.0014
   82CHL1    C3 8475   3.968   6.786   7.044 -0.7733  0.9581  0.4418
   82CHL1    H3 8476   3.859   6.767   7.039 -0.5386 -0.7880  1.2250
   82CHL1    O3 8477   4.031   6.782   6.913 -0.3541  0.2724 -0.4485
   82CHL1   H3' 8478   4.003   6.697   6.878  1.3575 -0.3932 -0.2807
   82CHL1    C4 8479   3.983   6.925   7.104 -0.2025  0.0599  0.3391
   82CHL1   H4A 8480   4.091   6.951   7.108  0.1832 -1.4738  0.7896
   82CHL1   H4B 8481   3.925   6.998   7.044  1.2701 -1.7456 -3.6742
   82CHL1    C5 8482   3.923   6.932   7.241 -0.4793 -0.6559  0.2867
   82CHL1    C6 8483   3.817   7.006   7.274 -0.3162  0.0902  0.6613
   82CHL1    H6 8484   3.768   7.058   7.190 -0.5145 -1.8237 -0.4771
   82CHL1    C7 8485   3.768   7.036   7.414 -0.3801  0.0735 -0.0640
   82CHL1   H7A 8486   3.750   7.145   7.417  5.0968  1.2640 -0.5318
   82CHL1   H7B 8487   3.671   6.983   7.422 -0.7622  0.6803 -0.5638
   82CHL1    C8 8488   3.864   6.975   7.518 -0.2408  0.2439 -0.4925
   82CHL1    H8 8489   3.961   7.029   7.530  1.3326 -2.9188  3.2432
   82CHL1   C14 8490   3.783   6.967   7.648  0.1600 -0.1737 -0.2348
   82CHL1   H14 8491   3.706   6.893   7.620  0.1842 -0.9287  1.5587
   82CHL1   C15 8492   3.704   7.090   7.711  0.2355  0.4728 -0.0463
   82CHL1  H15A 8493   3.768   7.181   7.703  2.2280 -0.7734  0.8959
   82CHL1  H15B 8494   3.608   7.101   7.657  1.7253 -0.6950 -3.1881
   82CHL1   C16 8495   3.681   7.047   7.856 -0.7965  0.3817  0.0956
   82CHL1  H16A 8496   3.738   7.114   7.925  1.3492 -1.1622 -0.0919
   82CHL1  H16B 8497   3.571   7.046   7.873 -1.0884  1.4422 -1.5072
   82CHL1   C17 8498   3.743   6.904   7.879  0.5922 -0.7009 -0.4167
   82CHL1   H17 8499   3.672   6.824   7.850 -1.0075 -0.1737  1.8069
   82CHL1   C13 8500   3.853   6.901   7.775 -0.3888 -0.5181 -0.1383
   82CHL1   C18 8501   3.972   6.986   7.809 -0.2830 -0.0843 -0.0199
   82CHL1  H18A 8502   4.027   6.933   7.890  0.9866 -0.7206 -1.2543
   82CHL1  H18B 8503   4.040   6.985   7.721 -0.5322 -0.6739 -0.2059
   82CHL1  H18C 8504   3.944   7.092   7.830  1.8612  0.7671 -1.1335
   82CHL1   C12 8505   3.896   6.759   7.728  0.3565  0.2873  0.1458
   82CHL1  H12A 8506   3.964   6.705   7.798 -2.2363 -0.2805  2.3808
   82CHL1  H12B 8507   3.808   6.695   7.705  0.3207  1.2823 -3.0876
   82CHL1   C11 8508   3.970   6.754   7.595  0.2036  0.0521 -0.1245
   82CHL1  H11A 8509   4.075   6.783   7.614 -0.1371  1.0986  0.2322
   82CHL1  H11B 8510   3.978   6.649   7.562 -1.0390  0.5155 -2.0641
   82CHL1    C9 8511   3.900   6.831   7.475 -0.3898  0.0640 -0.3267
   82CHL1    H9 8512   3.803   6.779   7.457  1.0033 -2.0791 -2.0020
   82CHL1   C10 8513   3.982   6.835   7.341 -0.5347  0.3925 -0.8699
   82CHL1   C19 8514   4.133   6.870   7.361  0.1139 -0.2299  0.3991
   82CHL1  H19A 8515   4.140   6.957   7.430 -0.7833  1.3403 -1.3673
   82CHL1  H19B 8516   4.179   6.779   7.404 -0.6062 -1.5455 -1.4608
   82CHL1  H19C 8517   4.201   6.882   7.274  0.7187 -0.7098  0.8042
   82CHL1    C1 8518   3.968   6.697   7.275  0.6778  0.4549 -0.3588
   82CHL1   H1A 8519   4.014   6.619   7.341 -1.3176 -0.6656 -0.2158
   82CHL1   H1B 8520   3.862   6.666   7.267  0.9112 -0.9188  1.2074
   82CHL1    C2 8521   4.036   6.682   7.141 -0.3120 -0.5248 -0.1744
   82CHL1   H2A 8522   4.014   6.577   7.110  1.1106 -1.0740  0.5680
   82CHL1   H2B 8523   4.146   6.700   7.143 -0.3891 -0.0873  0.4735
   82CHL1   C20 8524   3.779   6.878   8.022  1.0107  0.8919 -0.9330
   82CHL1   H20 8525   3.851   6.954   8.058  0.7409 -0.2245  2.3319
   82CHL1   C21 8526   3.839   6.736   8.039 -0.1113  0.4408 -0.4569
   82CHL1  H21A 8527   3.937   6.730   7.987  0.1137  0.6857 -0.0686
   82CHL1  H21B 8528   3.762   6.664   8.005 -0.4353 -1.3998  3.5806
   82CHL1  H21C 8529   3.850   6.712   8.147 -0.5708 -0.2777 -0.5660
   82CHL1   C22 8530   3.657   6.903   8.125  0.0506  0.8201  0.1465
   82CHL1  H22A 8531   3.620   7.002   8.092  2.4697  1.3961 -1.0913
   82CHL1  H22B 8532   3.578   6.825   8.119  2.0039 -1.1683 -1.5593
   82CHL1   C23 8533   3.707   6.918   8.274 -0.2119  0.2477 -0.4917
   82CHL1  H23A 8534   3.770   6.835   8.312 -0.8488  0.6841  1.6119
   82CHL1  H23B 8535   3.769   7.010   8.269 -1.2590  1.0365  0.7179
   82CHL1   C24 8536   3.586   6.927   8.373 -0.0849  0.2300  0.0646
   82CHL1  H24A 8537   3.518   7.008   8.338 -0.9682 -0.1743  0.8040
   82CHL1  H24B 8538   3.526   6.834   8.367  0.8644 -0.4389  0.7345
   82CHL1   C25 8539   3.623   6.945   8.525 -0.4507  0.5455  0.2803
   82CHL1   H25 8540   3.685   6.857   8.553  2.2892  2.0319 -0.7288
   82CHL1   C26 8541   3.712   7.072   8.543 -0.2522 -0.0772 -0.9330
   82CHL1  H26A 8542   3.761   7.073   8.642 -1.9884 -0.5030 -0.0148
   82CHL1  H26B 8543   3.791   7.072   8.466  0.5106 -0.7823 -0.1625
   82CHL1  H26C 8544   3.657   7.168   8.527 -3.9215 -2.2524 -2.6132
   82CHL1   C27 8545   3.504   6.953   8.617  0.3126  0.7308  0.4627
   82CHL1  H27A 8546   3.444   7.046   8.607 -1.2344 -0.1846  0.7338
   82CHL1  H27B 8547   3.428   6.876   8.592  0.8372  0.6951 -1.1351
   82CHL1  H27C 8548   3.541   6.938   8.720  1.3024 -1.8091 -0.1789
   83CHL1    C3 8549   0.205   6.511   6.754  0.0690 -0.7619 -0.3145
   83CHL1    H3 8550   0.100   6.529   6.786  0.0355 -1.5848  0.0640
   83CHL1    O3 8551   0.223   6.571   6.628 -0.1784 -0.8034 -0.2638
   83CHL1   H3' 8552   0.272   6.651   6.648 -0.5743 -0.3686 -0.9820
   83CHL1    C4 8553   0.307   6.579   6.851  0.2078  0.4130 -0.5400
   83CHL1   H4A 8554   0.404   6.568   6.797 -1.0107  2.4476 -3.4259
   83CHL1   H4B 8555   0.288   6.689   6.856 -0.8945  0.2412 -0.7597
   83CHL1    C5 8556   0.304   6.516   6.987  0.5948  0.8188 -0.6851
   83CHL1    C6 8557   0.298   6.591   7.103 -0.0416  0.5761 -0.1773
   83CHL1    H6 8558   0.290   6.700   7.094 -0.5884  0.5529 -0.0158
   83CHL1    C7 8559   0.312   6.532   7.239 -0.3607 -0.2015 -0.2917
   83CHL1   H7A 8560   0.392   6.594   7.287 -1.0498  0.3160  0.2009
   83CHL1   H7B 8561   0.219   6.536   7.300 -1.3485  2.3422 -1.8323
   83CHL1    C8 8562   0.378   6.389   7.241  0.3648  0.1334  0.4182
   83CHL1    H8 8563   0.486   6.395   7.215  0.3759 -1.4315  0.0383
   83CHL1   C14 8564   0.349   6.335   7.378  0.0413 -0.4638  0.0422
   83CHL1   H14 8565   0.242   6.341   7.409 -0.2215 -1.0091 -0.7491
   83CHL1   C15 8566   0.405   6.402   7.505  0.0542 -0.0946  0.0429
   83CHL1  H15A 8567   0.510   6.426   7.480 -0.3016 -0.4027 -1.8902
   83CHL1  H15B 8568   0.365   6.503   7.529  1.7450  0.9641 -1.3671
   83CHL1   C16 8569   0.393   6.296   7.614 -0.0496 -0.5959 -0.0883
   83CHL1  H16A 8570   0.494   6.279   7.656 -0.3635  2.3562  2.1261
   83CHL1  H16B 8571   0.325   6.333   7.693  1.0955 -0.8876  1.0568
   83CHL1   C17 8572   0.355   6.161   7.538 -0.7665 -0.5408  0.1816
   83CHL1   H17 8573   0.244   6.160   7.541 -0.7462 -0.3556  1.2076
   83CHL1   C13 8574   0.387   6.185   7.390  0.4409  0.6571 -0.3965
   83CHL1   C18 8575   0.532   6.159   7.366 -0.9505 -0.2431  0.2729
   83CHL1  H18A 8576   0.607   6.206   7.433 -0.4527  0.7387 -0.9394
   83CHL1  H18B 8577   0.552   6.051   7.382  0.2864  0.1707  1.7967
   83CHL1  H18C 8578   0.571   6.181   7.264 -1.1186 -0.3266  0.1899
   83CHL1   C12 8579   0.291   6.107   7.296  0.1351  0.3063  0.1538
   83CHL1  H12A 8580   0.320   6.000   7.298  2.0718  0.8014  1.1372
   83CHL1  H12B 8581   0.190   6.142   7.327 -0.3869  0.3632 -1.5294
   83CHL1   C11 8582   0.318   6.153   7.149  0.4020  1.1422  0.6878
   83CHL1  H11A 8583   0.424   6.123   7.133 -0.5916 -1.8195 -0.9996
   83CHL1  H11B 8584   0.250   6.097   7.081 -0.4361  4.0260 -1.0084
   83CHL1    C9 8585   0.296   6.306   7.132 -1.1983 -1.2000 -0.0428
   83CHL1    H9 8586   0.192   6.327   7.165 -0.7598  1.7426 -0.2712
   83CHL1   C10 8587   0.319   6.364   6.990  0.0307  0.2346  0.1851
   83CHL1   C19 8588   0.466   6.335   6.943  1.2138 -0.8497 -0.2015
   83CHL1  H19A 8589   0.481   6.225   6.944  0.6133 -0.9362  0.1669
   83CHL1  H19B 8590   0.472   6.360   6.835 -0.9969  0.2567 -0.1315
   83CHL1  H19C 8591   0.541   6.379   7.012 -0.4560 -0.7330  1.6298
   83CHL1    C1 8592   0.220   6.294   6.887 -0.3300 -0.1065  0.4881
   83CHL1   H1A 8593   0.260   6.191   6.883  1.7242  0.6754 -0.2779
   83CHL1   H1B 8594   0.117   6.302   6.929  0.7528 -1.8360  3.7327
   83CHL1    C2 8595   0.237   6.357   6.747 -0.5305 -0.2013  0.3586
   83CHL1   H2A 8596   0.157   6.311   6.685 -1.1437 -0.7080  1.4913
   83CHL1   H2B 8597   0.332   6.337   6.693 -1.0132  0.0393 -0.6041
   83CHL1   C20 8598   0.412   6.038   7.616  0.3621  0.1043 -0.5010
   83CHL1   H20 8599   0.517   6.025   7.581  0.6499 -0.8067  0.6360
   83CHL1   C21 8600   0.347   5.906   7.565  0.0767 -0.5561 -0.2723
   83CHL1  H21A 8601   0.386   5.877   7.465 -1.7894 -1.7551 -0.6982
   83CHL1  H21B 8602   0.236   5.919   7.563  0.2338  1.2479  0.2963
   83CHL1  H21C 8603   0.374   5.821   7.630 -1.7504 -1.0273 -0.0773
   83CHL1   C22 8604   0.393   6.049   7.769 -0.4056  0.2371 -0.3783
   83CHL1  H22A 8605   0.422   5.950   7.810 -1.0612 -0.3125 -1.1851
   83CHL1  H22B 8606   0.443   6.124   7.834 -1.1061 -0.3211  0.8548
   83CHL1   C23 8607   0.245   6.065   7.810 -0.3272 -0.0886 -0.5968
   83CHL1  H23A 8608   0.186   6.153   7.774 -1.2625 -1.0941 -1.5952
   83CHL1  H23B 8609   0.183   5.980   7.773  0.0365 -0.7798  0.3628
   83CHL1   C24 8610   0.233   6.057   7.961 -0.6335  0.8075  0.5813
   83CHL1  H24A 8611   0.271   5.957   7.991  1.3855  1.3609 -0.0007
   83CHL1  H24B 8612   0.285   6.136   8.019  1.8194 -0.5699  0.3730
   83CHL1   C25 8613   0.089   6.041   8.012  0.2131 -0.5062  0.0117
   83CHL1   H25 8614   0.042   5.946   7.977  0.7816 -0.3053 -1.3463
   83CHL1   C26 8615   0.101   6.044   8.159 -0.0217 -0.1367  0.7397
   83CHL1  H26A 8616   0.155   5.951   8.185  0.1533 -0.6469 -1.2393
   83CHL1  H26B 8617   0.151   6.137   8.195  0.6318 -0.3849  0.4922
   83CHL1  H26C 8618   0.003   6.045   8.210 -1.1897  1.6757 -1.3667
   83CHL1   C27 8619   0.004   6.161   7.966  0.2029 -0.3469 -0.1733
   83CHL1  H27A 8620  -0.083   6.181   8.031 -0.9695  0.3378 -1.8926
   83CHL1  H27B 8621   0.065   6.254   7.968  1.5084 -1.0627  3.8757
   83CHL1  H27C 8622  -0.026   6.139   7.861  0.7945  1.5062 -0.7663
   84CHL1    C3 8623   2.007   4.531   6.861 -0.7150 -0.2419  0.5872
   84CHL1    H3 8624   2.000   4.642   6.862 -3.4155 -0.2841 -2.0428
   84CHL1    O3 8625   2.024   4.480   6.728 -0.0569 -0.3538 -0.7697
   84CHL1   H3' 8626   2.024   4.386   6.746  2.7662 -0.0725  1.3359
   84CHL1    C4 8627   2.134   4.504   6.936  0.4668  0.6584 -0.4413
   84CHL1   H4A 8628   2.167   4.400   6.919  3.6227  1.6452 -0.9795
   84CHL1   H4B 8629   2.220   4.558   6.890  0.4947 -0.2929 -1.5319
   84CHL1    C5 8630   2.122   4.531   7.087 -0.0030  0.6828 -0.8969
   84CHL1    C6 8631   2.204   4.619   7.148 -0.4760 -0.1256 -0.1368
   84CHL1    H6 8632   2.281   4.667   7.086  0.0968 -2.4712 -1.3537
   84CHL1    C7 8633   2.205   4.652   7.292 -0.3870 -0.0534 -0.1688
   84CHL1   H7A 8634   2.306   4.665   7.337 -0.5030 -0.9025  0.3518
   84CHL1   H7B 8635   2.157   4.752   7.295  1.7787  1.2225 -3.0598
   84CHL1    C8 8636   2.127   4.548   7.380 -0.7534 -0.5853 -0.3222
   84CHL1    H8 8637   2.201   4.467   7.399 -1.4252 -1.0579  0.3699
   84CHL1   C14 8638   2.089   4.608   7.514  0.2250  0.2511 -0.3780
   84CHL1   H14 8639   2.026   4.696   7.490 -1.2278 -0.9992 -1.3417
   84CHL1   C15 8640   2.198   4.678   7.606  0.2381 -0.4925 -0.2079
   84CHL1  H15A 8641   2.295   4.624   7.601 -1.0003 -2.7978 -0.7870
   84CHL1  H15B 8642   2.193   4.786   7.583 -2.1067 -0.3989  0.4913
   84CHL1   C16 8643   2.132   4.662   7.745 -0.0057  0.0072  0.3454
   84CHL1  H16A 8644   2.210   4.606   7.800  0.8360  0.7878 -0.0321
   84CHL1  H16B 8645   2.121   4.753   7.808  0.2029  0.0764  0.2834
   84CHL1   C17 8646   2.002   4.591   7.729 -0.1968 -0.0362 -0.6389
   84CHL1   H17 8647   1.936   4.677   7.704 -0.0976  0.3654  0.4602
   84CHL1   C13 8648   2.014   4.511   7.600  0.1973  0.1880 -0.4705
   84CHL1   C18 8649   2.092   4.375   7.628  0.6637  1.0098 -0.2489
   84CHL1  H18A 8650   2.198   4.390   7.658  1.2228 -1.0862 -0.9974
   84CHL1  H18B 8651   2.041   4.314   7.706  1.2494  2.5991  1.4495
   84CHL1  H18C 8652   2.096   4.307   7.540 -1.5279  0.7723 -0.2136
   84CHL1   C12 8653   1.881   4.481   7.528 -0.4497  0.1191 -0.4584
   84CHL1  H12A 8654   1.814   4.415   7.588  1.2571 -2.3457 -1.1460
   84CHL1  H12B 8655   1.836   4.579   7.498  0.0799  0.6081  0.3032
   84CHL1   C11 8656   1.910   4.414   7.393 -0.0078  0.9414  0.8397
   84CHL1  H11A 8657   1.952   4.311   7.398 -1.1348  0.4611  0.6521
   84CHL1  H11B 8658   1.813   4.388   7.345  1.5104 -0.7544 -1.5652
   84CHL1    C9 8659   1.998   4.505   7.305 -0.0657  0.8490  0.1791
   84CHL1    H9 8660   1.941   4.601   7.303 -1.0863  0.2616  0.5904
   84CHL1   C10 8661   2.010   4.462   7.160 -0.1284  0.1988 -0.2516
   84CHL1   C19 8662   2.045   4.308   7.145  0.4173 -0.6322 -0.1465
   84CHL1  H19A 8663   2.095   4.275   7.051  1.5671  1.2472 -0.2493
   84CHL1  H19B 8664   2.108   4.278   7.232  1.4270  0.6302 -0.4043
   84CHL1  H19C 8665   1.947   4.256   7.154 -0.5459  1.1862  0.2528
   84CHL1    C1 8666   1.887   4.515   7.086  0.5135 -0.3399 -0.0374
   84CHL1   H1A 8667   1.788   4.493   7.132 -0.8329  0.6080 -2.2946
   84CHL1   H1B 8668   1.893   4.625   7.090 -0.1971 -0.2278 -1.3131
   84CHL1    C2 8669   1.884   4.487   6.930  0.3499  0.4030  0.1187
   84CHL1   H2A 8670   1.808   4.550   6.878  0.9248  3.0709  2.2745
   84CHL1   H2B 8671   1.877   4.376   6.924 -0.6169  0.3976  1.0877
   84CHL1   C20 8672   1.933   4.525   7.853  1.0899  0.2961 -0.1019
   84CHL1   H20 8673   1.885   4.432   7.818 -0.0760 -0.2037  2.5388
   84CHL1   C21 8674   1.838   4.633   7.904 -0.1314  0.6726 -0.0968
   84CHL1  H21A 8675   1.877   4.736   7.913 -1.7015  1.1813  1.5263
   84CHL1  H21B 8676   1.793   4.615   8.005 -1.1997 -0.3494 -0.7302
   84CHL1  H21C 8677   1.754   4.637   7.832  0.6760  0.9031 -1.0393
   84CHL1   C22 8678   2.040   4.475   7.961  0.2603 -0.1136  0.9279
   84CHL1  H22A 8679   2.102   4.401   7.906  0.2243 -0.1378  0.9204
   84CHL1  H22B 8680   2.111   4.560   7.979 -0.2281  0.4808  0.1121
   84CHL1   C23 8681   1.980   4.439   8.100 -0.4766  0.1467  0.0652
   84CHL1  H23A 8682   1.977   4.525   8.170  1.6292 -0.7875  1.3912
   84CHL1  H23B 8683   1.880   4.396   8.078  0.7843 -2.2543 -1.4165
   84CHL1   C24 8684   2.049   4.314   8.166 -0.4826  0.2365  0.2711
   84CHL1  H24A 8685   1.992   4.272   8.251  0.2301 -2.1392 -0.3572
   84CHL1  H24B 8686   2.057   4.237   8.087  0.8942  1.4152 -0.8119
   84CHL1   C25 8687   2.190   4.341   8.223 -0.5061  0.0165  0.4242
   84CHL1   H25 8688   2.256   4.384   8.145 -0.5971 -0.0259  0.3228
   84CHL1   C26 8689   2.193   4.435   8.345 -0.6172  0.3344 -0.1189
   84CHL1  H26A 8690   2.296   4.446   8.385 -0.1246 -1.3773 -0.8214
   84CHL1  H26B 8691   2.151   4.535   8.322  0.7011  0.8836 -0.2488
   84CHL1  H26C 8692   2.115   4.397   8.413 -1.5452  0.8967 -0.8490
   84CHL1   C27 8693   2.257   4.204   8.257 -0.5938  0.2007 -0.5534
   84CHL1  H27A 8694   2.199   4.147   8.334  0.0014  2.2298  1.5039
   84CHL1  H27B 8695   2.270   4.138   8.169  1.2511 -0.2430 -0.0086
   84CHL1  H27C 8696   2.363   4.215   8.289 -0.7863 -2.6445  1.4354
   85CHL1    C3 8697   2.538   0.894   6.856 -0.0664  0.0192 -0.2559
   85CHL1    H3 8698   2.614   0.826   6.899  1.5481  1.9348  0.0355
   85CHL1    O3 8699   2.538   0.883   6.715 -0.1351 -0.0921 -0.0673
   85CHL1   H3' 8700   2.453   0.911   6.678  0.6253  2.5127 -0.0389
   85CHL1    C4 8701   2.395   0.865   6.920  0.4547 -0.1667  0.0095
   85CHL1   H4A 8702   2.326   0.943   6.880 -0.5078 -0.3368  1.2556
   85CHL1   H4B 8703   2.368   0.764   6.884  0.5867 -0.6950  1.3417
   85CHL1    C5 8704   2.397   0.877   7.071 -0.0340  0.4424  0.1544
   85CHL1    C6 8705   2.354   0.775   7.154 -0.1324 -0.2424 -0.1814
   85CHL1    H6 8706   2.302   0.687   7.115 -0.9681  0.1737 -0.0404
   85CHL1    C7 8707   2.351   0.788   7.301 -0.3566  0.4564 -0.3606
   85CHL1   H7A 8708   2.263   0.736   7.344 -0.5013  0.0459 -1.1477
   85CHL1   H7B 8709   2.434   0.736   7.352 -0.7113  0.3472  0.1126
   85CHL1    C8 8710   2.355   0.930   7.356 -0.0615 -0.5205  0.8736
   85CHL1    H8 8711   2.257   0.978   7.338  0.0934 -0.5634 -0.1646
   85CHL1   C14 8712   2.376   0.941   7.511  0.7139  0.5044 -0.0989
   85CHL1   H14 8713   2.469   0.892   7.544  0.4193 -0.7182 -0.9923
   85CHL1   C15 8714   2.268   0.871   7.597  0.3125 -0.7460  0.5583
   85CHL1  H15A 8715   2.170   0.901   7.555  1.7027  1.2251 -1.5234
   85CHL1  H15B 8716   2.264   0.760   7.587 -2.3812 -0.5402 -2.1234
   85CHL1   C16 8717   2.301   0.926   7.738  0.2891  0.3913  0.0536
   85CHL1  H16A 8718   2.206   0.929   7.797  1.0480 -0.6253  1.3730
   85CHL1  H16B 8719   2.363   0.854   7.794  1.4769  0.1611 -1.4996
   85CHL1   C17 8720   2.385   1.062   7.717  0.6767 -0.1768 -0.4587
   85CHL1   H17 8721   2.487   1.022   7.735 -0.5022 -2.5462  1.8174
   85CHL1   C13 8722   2.381   1.081   7.559  0.2294  0.0988 -0.2328
   85CHL1   C18 8723   2.253   1.164   7.527  0.1797 -0.5747  0.6162
   85CHL1  H18A 8724   2.266   1.273   7.546 -0.6265 -0.6497  1.6787
   85CHL1  H18B 8725   2.220   1.152   7.422 -0.2307 -0.5888  0.7435
   85CHL1  H18C 8726   2.167   1.133   7.591 -0.9997 -1.1945 -1.2020
   85CHL1   C12 8727   2.505   1.153   7.496 -0.0785  0.0719  0.4436
   85CHL1  H12A 8728   2.505   1.261   7.520  2.5094  0.5502 -1.3744
   85CHL1  H12B 8729   2.600   1.099   7.517 -0.4588 -0.6843  0.2708
   85CHL1   C11 8730   2.489   1.150   7.341  0.0940  0.2592  0.5655
   85CHL1  H11A 8731   2.403   1.216   7.316  1.7584  2.5661  0.6061
   85CHL1  H11B 8732   2.586   1.190   7.305  1.2176 -3.3093 -0.7510
   85CHL1    C9 8733   2.469   1.006   7.285 -0.1236 -0.0976 -0.6644
   85CHL1    H9 8734   2.562   0.949   7.306  1.1025  2.4419  1.4262
   85CHL1   C10 8735   2.445   1.013   7.131  0.2576  0.2971  0.3232
   85CHL1   C19 8736   2.341   1.123   7.102  0.5464 -0.3576 -0.9667
   85CHL1  H19A 8737   2.251   1.107   7.164 -0.9175  0.9215 -2.6567
   85CHL1  H19B 8738   2.375   1.229   7.112 -1.3090  0.0275  2.7858
   85CHL1  H19C 8739   2.300   1.121   6.999  2.3340 -0.6368 -1.7224
   85CHL1    C1 8740   2.576   1.043   7.055  0.2846  0.5697 -0.3114
   85CHL1   H1A 8741   2.592   1.148   7.086  1.8342  0.3743 -0.3594
   85CHL1   H1B 8742   2.657   0.976   7.092  0.1421  0.2575 -0.5592
   85CHL1    C2 8743   2.561   1.031   6.897  0.2701  0.0751 -0.0914
   85CHL1   H2A 8744   2.660   1.063   6.857  0.9890  0.6968  2.0699
   85CHL1   H2B 8745   2.473   1.091   6.866  0.1932 -0.9076 -1.8994
   85CHL1   C20 8746   2.344   1.183   7.811  0.4294 -0.0566 -0.1072
   85CHL1   H20 8747   2.265   1.250   7.771 -0.0683  1.2840  2.8482
   85CHL1   C21 8748   2.469   1.277   7.808  0.2070  0.0327 -0.0128
   85CHL1  H21A 8749   2.455   1.360   7.881 -1.6041  0.0012 -0.2856
   85CHL1  H21B 8750   2.472   1.337   7.714  0.7383 -1.6201 -1.0892
   85CHL1  H21C 8751   2.567   1.228   7.823 -0.0185 -0.5699 -0.4665
   85CHL1   C22 8752   2.306   1.129   7.956  0.1447 -0.4778 -0.0144
   85CHL1  H22A 8753   2.220   1.058   7.954  0.4024 -0.9268  2.2920
   85CHL1  H22B 8754   2.395   1.081   8.003  0.3381  1.8656  2.2272
   85CHL1   C23 8755   2.278   1.239   8.059 -0.3894  0.1528  0.5061
   85CHL1  H23A 8756   2.373   1.295   8.065 -0.4965  0.3530  0.3405
   85CHL1  H23B 8757   2.199   1.310   8.026 -2.0105 -1.8194 -0.1012
   85CHL1   C24 8758   2.232   1.174   8.186  0.4721  0.2606 -0.4306
   85CHL1  H24A 8759   2.132   1.125   8.195  0.5109  0.1867 -0.4018
   85CHL1  H24B 8760   2.297   1.088   8.213  2.0710  1.3959 -0.5426
   85CHL1   C25 8761   2.225   1.265   8.317  0.4878 -0.3013  0.5724
   85CHL1   H25 8762   2.168   1.357   8.290  2.8330  1.3092  0.8080
   85CHL1   C26 8763   2.141   1.184   8.427 -0.3938  0.9440  0.6372
   85CHL1  H26A 8764   2.192   1.087   8.448 -1.6057 -0.0390 -0.7377
   85CHL1  H26B 8765   2.133   1.245   8.520 -3.2934  1.3864  0.1667
   85CHL1  H26C 8766   2.040   1.151   8.394  0.4673 -2.0667  0.6740
   85CHL1   C27 8767   2.362   1.312   8.370  0.1021 -0.3788  0.3538
   85CHL1  H27A 8768   2.426   1.332   8.281  1.5797 -1.7952  1.0433
   85CHL1  H27B 8769   2.352   1.412   8.420 -0.8348  0.5225 -1.5423
   85CHL1  H27C 8770   2.414   1.243   8.439 -1.9305 -0.5398  1.8013
   86CHL1    C3 8771   4.271   6.227   7.003 -0.5618  0.1458 -0.1492
   86CHL1    H3 8772   4.226   6.132   7.039  0.5562  0.4482  2.2559
   86CHL1    O3 8773   4.279   6.235   6.862 -0.4606  0.0440  1.3353
   86CHL1   H3' 8774   4.350   6.179   6.830 -1.1036  0.1389 -0.3790
   86CHL1    C4 8775   4.180   6.342   7.045  0.2035 -0.0728 -0.8087
   86CHL1   H4A 8776   4.230   6.435   7.010  0.6924 -0.4314 -1.0711
   86CHL1   H4B 8777   4.086   6.340   6.985  1.5104 -1.9531 -2.9940
   86CHL1    C5 8778   4.154   6.344   7.192 -0.1632 -0.2071 -0.5500
   86CHL1    C6 8779   4.033   6.330   7.253  0.0209  0.1030 -0.4086
   86CHL1    H6 8780   3.947   6.329   7.183 -0.2273 -0.6802 -0.1010
   86CHL1    C7 8781   4.009   6.307   7.398 -0.2137  0.4210 -0.0690
   86CHL1   H7A 8782   3.923   6.357   7.449 -1.2898 -0.9792 -0.4401
   86CHL1   H7B 8783   4.011   6.197   7.413  1.3717 -0.0344 -2.9270
   86CHL1    C8 8784   4.124   6.357   7.483  0.1156  0.1201 -0.0382
   86CHL1    H8 8785   4.123   6.468   7.479  1.1010  0.0979 -1.5823
   86CHL1   C14 8786   4.109   6.306   7.625  0.3891  0.1681  0.3244
   86CHL1   H14 8787   4.115   6.195   7.617  0.6906  0.2412 -0.5435
   86CHL1   C15 8788   3.970   6.321   7.695 -0.4350  0.1011 -0.3345
   86CHL1  H15A 8789   3.933   6.423   7.669 -0.2199  0.2024 -0.2410
   86CHL1  H15B 8790   3.902   6.239   7.664  0.1338 -0.7100  0.4906
   86CHL1   C16 8791   4.003   6.321   7.845 -0.5229  1.0378  0.1033
   86CHL1  H16A 8792   3.953   6.410   7.890 -0.9493  1.6342 -1.4658
   86CHL1  H16B 8793   3.959   6.231   7.892 -1.9087  0.0379 -2.8836
   86CHL1   C17 8794   4.157   6.306   7.853 -0.0249  0.3312  0.4712
   86CHL1   H17 8795   4.183   6.199   7.850  1.9391  0.7839  0.2736
   86CHL1   C13 8796   4.216   6.352   7.717 -0.6891 -0.4057 -0.9787
   86CHL1   C18 8797   4.215   6.510   7.721  0.7872 -0.1583  0.4179
   86CHL1  H18A 8798   4.115   6.538   7.758 -0.5912  0.1110 -3.1115
   86CHL1  H18B 8799   4.293   6.544   7.793 -0.6912  0.7462  1.6492
   86CHL1  H18C 8800   4.226   6.557   7.621 -2.0628  1.8000  0.9175
   86CHL1   C12 8801   4.357   6.314   7.673  0.0340  0.1081 -0.0044
   86CHL1  H12A 8802   4.436   6.371   7.727  2.8972 -0.7085 -2.9764
   86CHL1  H12B 8803   4.372   6.205   7.688 -0.4215  0.0714  0.1715
   86CHL1   C11 8804   4.383   6.343   7.524  0.1377  0.1285 -0.5657
   86CHL1  H11A 8805   4.390   6.454   7.521  0.1504  0.1668  0.5135
   86CHL1  H11B 8806   4.482   6.305   7.490 -0.1676 -0.2660 -1.0285
   86CHL1    C9 8807   4.260   6.302   7.428 -0.5104  0.0828 -0.1625
   86CHL1    H9 8808   4.241   6.193   7.431 -0.7744  0.1480  1.9924
   86CHL1   C10 8809   4.286   6.334   7.275  0.3056  0.2430 -0.2421
   86CHL1   C19 8810   4.354   6.470   7.252 -0.2357 -0.1706 -0.5245
   86CHL1  H19A 8811   4.301   6.564   7.278  0.2273  0.0659 -0.4288
   86CHL1  H19B 8812   4.449   6.485   7.308 -1.3966  0.9306  1.2400
   86CHL1  H19C 8813   4.386   6.494   7.148  1.0942  0.5093  0.0145
   86CHL1    C1 8814   4.379   6.219   7.219 -0.3203  0.1551  0.2081
   86CHL1   H1A 8815   4.477   6.227   7.270  1.7189 -3.1362 -2.7332
   86CHL1   H1B 8816   4.340   6.118   7.246  0.8188 -0.4781 -0.4320
   86CHL1    C2 8817   4.410   6.230   7.070 -0.2159  0.4326 -0.6478
   86CHL1   H2A 8818   4.481   6.150   7.040  0.3893  1.1588 -1.1763
   86CHL1   H2B 8819   4.478   6.314   7.046  1.4205 -0.7836 -0.4572
   86CHL1   C20 8820   4.212   6.353   7.992 -0.6158  0.1473 -0.3254
   86CHL1   H20 8821   4.204   6.463   8.003  2.4834  0.2269  2.3476
   86CHL1   C21 8822   4.366   6.325   7.997  0.5350 -0.3559 -0.1851
   86CHL1  H21A 8823   4.420   6.389   7.925 -1.1417 -0.0777 -1.2579
   86CHL1  H21B 8824   4.381   6.221   7.960  0.3428 -0.3794 -0.1992
   86CHL1  H21C 8825   4.421   6.345   8.091  1.6175  0.2841 -0.9334
   86CHL1   C22 8826   4.132   6.304   8.114 -0.5568 -0.4746  0.1914
   86CHL1  H22A 8827   4.025   6.331   8.103 -0.0561  2.7130  1.8316
   86CHL1  H22B 8828   4.133   6.193   8.115  0.4303 -0.5133  2.7690
   86CHL1   C23 8829   4.182   6.337   8.255 -0.1498 -0.1945  0.6173
   86CHL1  H23A 8830   4.283   6.295   8.270  0.5698  1.3023  0.1161
   86CHL1  H23B 8831   4.190   6.448   8.262 -0.8016 -0.0111 -1.0182
   86CHL1   C24 8832   4.091   6.304   8.371  0.3868  0.2504  0.7430
   86CHL1  H24A 8833   4.129   6.356   8.462  0.2253  0.8900  0.4523
   86CHL1  H24B 8834   3.991   6.341   8.340  1.6356  0.2920 -3.9737
   86CHL1   C25 8835   4.091   6.147   8.391 -0.5200  0.8021  0.4730
   86CHL1   H25 8836   4.087   6.095   8.293  2.1695 -1.7159  1.5343
   86CHL1   C26 8837   4.231   6.097   8.438  0.3385 -0.2063  0.4795
   86CHL1  H26A 8838   4.223   5.988   8.459  0.7458 -0.4534 -0.5487
   86CHL1  H26B 8839   4.295   6.109   8.348 -1.1694  0.8758 -0.4944
   86CHL1  H26C 8840   4.271   6.154   8.524  2.0085 -1.2929  0.4856
   86CHL1   C27 8841   3.971   6.096   8.474 -0.2180 -0.1650  0.4914
   86CHL1  H27A 8842   3.876   6.116   8.420  0.2629 -0.5573 -0.5181
   86CHL1  H27B 8843   3.980   5.986   8.489 -1.0498 -0.2257  0.5922
   86CHL1  H27C 8844   3.972   6.126   8.581  1.5652  0.7284  0.2601
   87CHL1    C3 8845   4.196   4.186   6.934 -0.6313 -0.6424 -1.1761
   87CHL1    H3 8846   4.299   4.147   6.921  0.1065 -0.1312  2.1573
   87CHL1    O3 8847   4.147   4.188   6.808 -0.1365 -0.1177  0.0335
   87CHL1   H3' 8848   4.054   4.211   6.819  0.1938  0.7497  1.0817
   87CHL1    C4 8849   4.120   4.073   7.010 -0.1426 -0.5663 -0.4352
   87CHL1   H4A 8850   4.017   4.112   7.028  0.4812  0.6663  0.6851
   87CHL1   H4B 8851   4.110   3.976   6.956 -0.1083 -0.0916 -1.3117
   87CHL1    C5 8852   4.183   4.062   7.149 -0.5726 -0.7635  0.2145
   87CHL1    C6 8853   4.228   3.940   7.186  0.8202 -0.4348 -0.4832
   87CHL1    H6 8854   4.210   3.863   7.110 -4.1763  0.6709 -0.7424
   87CHL1    C7 8855   4.290   3.914   7.319  0.9268 -0.4225  0.2152
   87CHL1   H7A 8856   4.246   3.820   7.359 -1.0395  0.6772  0.7817
   87CHL1   H7B 8857   4.396   3.900   7.290  0.0690 -2.1177 -2.4925
   87CHL1    C8 8858   4.282   4.034   7.419 -0.5546 -0.2210  0.1590
   87CHL1    H8 8859   4.179   4.027   7.461 -0.6196 -0.2948 -0.0113
   87CHL1   C14 8860   4.390   4.010   7.523  0.2051 -0.1941 -0.4006
   87CHL1   H14 8861   4.492   4.030   7.483 -0.1255  1.5576 -0.4517
   87CHL1   C15 8862   4.382   3.874   7.604 -0.2863 -0.0161  0.2788
   87CHL1  H15A 8863   4.275   3.855   7.626  0.2251 -1.9067  1.2873
   87CHL1  H15B 8864   4.422   3.796   7.536  0.6426  2.1701 -1.8688
   87CHL1   C16 8865   4.471   3.904   7.720  0.2692  0.2037 -0.1396
   87CHL1  H16A 8866   4.429   3.838   7.799  4.3545 -2.7001 -0.0703
   87CHL1  H16B 8867   4.571   3.861   7.698 -0.3004  0.0308 -2.7238
   87CHL1   C17 8868   4.492   4.060   7.732 -0.2286 -0.3754 -0.5882
   87CHL1   H17 8869   4.596   4.076   7.694  0.2069  0.2683  0.8430
   87CHL1   C13 8870   4.390   4.119   7.635 -0.2082 -0.3072 -0.3353
   87CHL1   C18 8871   4.255   4.120   7.713 -0.1482  0.3132  0.5381
   87CHL1  H18A 8872   4.229   4.019   7.752 -2.3643 -0.1553 -1.8594
   87CHL1  H18B 8873   4.251   4.196   7.794  1.6347 -2.3485  3.3410
   87CHL1  H18C 8874   4.178   4.139   7.635  0.2188  2.2610  0.6067
   87CHL1   C12 8875   4.420   4.253   7.562 -0.2108 -0.1218  0.9804
   87CHL1  H12A 8876   4.391   4.328   7.639 -3.1604 -0.6438  0.4759
   87CHL1  H12B 8877   4.526   4.263   7.530 -0.9836 -0.9404 -2.1722
   87CHL1   C11 8878   4.331   4.286   7.441  0.2632 -0.3381  0.6879
   87CHL1  H11A 8879   4.237   4.311   7.495 -0.0231 -0.1876  0.1238
   87CHL1  H11B 8880   4.360   4.374   7.381 -1.2335 -0.9912 -1.1098
   87CHL1    C9 8881   4.302   4.163   7.347 -0.1402 -0.1570 -0.1637
   87CHL1    H9 8882   4.398   4.156   7.292  0.3921  2.4427  0.3206
   87CHL1   C10 8883   4.199   4.191   7.232 -0.1313  0.1725 -0.2698
   87CHL1   C19 8884   4.060   4.212   7.293 -0.5377 -0.8299 -0.3361
   87CHL1  H19A 8885   4.060   4.312   7.341  1.5524 -0.8590 -0.1879
   87CHL1  H19B 8886   3.976   4.200   7.222 -0.2092 -1.1264 -0.6792
   87CHL1  H19C 8887   4.034   4.138   7.372  1.5530 -0.0926  1.1587
   87CHL1    C1 8888   4.254   4.313   7.148  0.0660  0.0036  0.6213
   87CHL1   H1A 8889   4.224   4.408   7.197 -2.7221 -1.1196  1.2877
   87CHL1   H1B 8890   4.364   4.301   7.151  0.5558  3.0343 -1.0651
   87CHL1    C2 8891   4.187   4.323   7.008 -0.7534  0.5030 -0.6880
   87CHL1   H2A 8892   4.231   4.409   6.954 -0.6247  1.0229  0.2201
   87CHL1   H2B 8893   4.080   4.347   7.026 -0.3355  1.1483  1.2701
   87CHL1   C20 8894   4.494   4.094   7.883 -0.3491  0.2296 -0.0806
   87CHL1   H20 8895   4.396   4.061   7.924 -0.2869 -1.5076 -1.2132
   87CHL1   C21 8896   4.515   4.247   7.895 -0.7370  0.4031  0.3349
   87CHL1  H21A 8897   4.513   4.262   8.005  1.9202 -3.6297  1.1413
   87CHL1  H21B 8898   4.447   4.315   7.838 -1.3675  0.9616  1.7270
   87CHL1  H21C 8899   4.623   4.266   7.875 -0.4852 -2.4611 -1.7059
   87CHL1   C22 8900   4.586   4.011   7.975 -0.2533 -0.2392 -0.2365
   87CHL1  H22A 8901   4.585   3.902   7.955 -2.0109 -0.1456 -0.7901
   87CHL1  H22B 8902   4.688   4.053   7.961 -0.1427  0.0981  1.3919
   87CHL1   C23 8903   4.556   4.009   8.125 -0.6965  0.5153  0.2718
   87CHL1  H23A 8904   4.544   4.116   8.152 -0.4965  0.4658  0.5553
   87CHL1  H23B 8905   4.454   3.968   8.138 -1.2305  2.3757  2.8303
   87CHL1   C24 8906   4.662   3.932   8.212 -0.0152 -0.5715  0.4727
   87CHL1  H24A 8907   4.675   3.829   8.175  1.4394  0.5883 -2.5615
   87CHL1  H24B 8908   4.757   3.990   8.199 -1.7564  1.9621 -2.3643
   87CHL1   C25 8909   4.625   3.926   8.357  0.6656  0.2085 -0.0230
   87CHL1   H25 8910   4.520   3.891   8.367  0.1582  2.1003  2.0327
   87CHL1   C26 8911   4.715   3.825   8.422  0.1506  0.2389 -0.0745
   87CHL1  H26A 8912   4.696   3.722   8.383  1.1065 -0.8107  2.0731
   87CHL1  H26B 8913   4.822   3.845   8.401 -0.5117  2.5177 -1.5927
   87CHL1  H26C 8914   4.704   3.817   8.532 -0.4266  1.4150 -0.0374
   87CHL1   C27 8915   4.632   4.066   8.423 -0.1937  0.2648 -0.2879
   87CHL1  H27A 8916   4.589   4.079   8.524  0.9236  2.2017 -0.0158
   87CHL1  H27B 8917   4.737   4.103   8.417  0.2070 -0.8016 -0.0843
   87CHL1  H27C 8918   4.578   4.134   8.354 -1.5360 -2.2905 -1.9648
   88CHL1    C3 8919   1.426   2.007   6.909 -0.2331 -0.5042  0.8779
   88CHL1    H3 8920   1.352   1.927   6.932 -0.1518 -0.7887  0.1898
   88CHL1    O3 8921   1.421   2.020   6.773 -0.4712  0.7471 -0.4792
   88CHL1   H3' 8922   1.455   2.107   6.750 -0.6383  1.6794  2.4123
   88CHL1    C4 8923   1.391   2.135   6.986 -0.6863  0.5083 -0.0485
   88CHL1   H4A 8924   1.461   2.214   6.952 -0.3491  0.0171 -0.5241
   88CHL1   H4B 8925   1.289   2.162   6.952 -1.3415 -0.3501  1.1760
   88CHL1    C5 8926   1.401   2.120   7.132  0.9713 -0.1420 -0.4372
   88CHL1    C6 8927   1.296   2.136   7.217  0.0669  0.1006  1.0045
   88CHL1    H6 8928   1.197   2.161   7.176 -0.8861 -0.4434  2.8660
   88CHL1    C7 8929   1.311   2.142   7.364  0.3989  0.1862 -0.3949
   88CHL1   H7A 8930   1.256   2.230   7.402 -0.3280 -0.5587  0.3242
   88CHL1   H7B 8931   1.260   2.048   7.395 -1.3904  0.2648 -2.8680
   88CHL1    C8 8932   1.453   2.143   7.418  0.0065 -0.2491  0.1202
   88CHL1    H8 8933   1.487   2.247   7.402  0.5639 -0.4924 -0.3119
   88CHL1   C14 8934   1.455   2.101   7.569  0.6582 -0.0489  0.8651
   88CHL1   H14 8935   1.434   1.992   7.572  1.6009 -0.2407  1.0404
   88CHL1   C15 8936   1.357   2.172   7.662  0.0678 -1.1868 -0.6887
   88CHL1  H15A 8937   1.362   2.281   7.642 -1.0028 -1.2344 -1.2609
   88CHL1  H15B 8938   1.249   2.147   7.658 -0.6957  0.8911  2.8273
   88CHL1   C16 8939   1.405   2.140   7.798  0.3793 -0.2113  0.6595
   88CHL1  H16A 8940   1.419   2.234   7.855  1.0921  0.0552  0.0523
   88CHL1  H16B 8941   1.341   2.072   7.859  1.8729 -0.4208  2.0465
   88CHL1   C17 8942   1.543   2.058   7.777 -0.4378 -1.0297  0.5222
   88CHL1   H17 8943   1.526   1.948   7.780  3.2754 -1.8797 -1.8111
   88CHL1   C13 8944   1.593   2.105   7.635  0.1933  0.3003  0.3629
   88CHL1   C18 8945   1.650   2.243   7.626 -0.2928 -0.4343 -0.9177
   88CHL1  H18A 8946   1.643   2.277   7.520  1.2219  0.3936 -0.7737
   88CHL1  H18B 8947   1.616   2.321   7.697  0.2355  0.4308 -1.5944
   88CHL1  H18C 8948   1.758   2.225   7.640 -0.8978 -2.3072  2.5282
   88CHL1   C12 8949   1.679   1.999   7.561  0.3538 -0.7176 -0.3714
   88CHL1  H12A 8950   1.787   2.005   7.584  0.2344  0.7401 -0.0465
   88CHL1  H12B 8951   1.638   1.904   7.601 -3.1710  1.8267  2.8058
   88CHL1   C11 8952   1.673   2.022   7.409 -0.1522  0.7495 -0.1553
   88CHL1  H11A 8953   1.737   2.110   7.386 -0.6788  0.9354 -0.9496
   88CHL1  H11B 8954   1.716   1.934   7.355  0.0272  0.5339  0.3298
   88CHL1    C9 8955   1.534   2.047   7.339 -0.1202 -0.5218 -0.2384
   88CHL1    H9 8956   1.483   1.949   7.351 -3.0938  0.9749  0.2587
   88CHL1   C10 8957   1.536   2.076   7.186  0.4365  0.3372 -0.2243
   88CHL1   C19 8958   1.643   2.189   7.171  0.3167  0.1578  0.2333
   88CHL1  H19A 8959   1.748   2.155   7.186 -0.3301 -0.7950  3.4899
   88CHL1  H19B 8960   1.643   2.242   7.074 -4.2892  1.7011  0.8606
   88CHL1  H19C 8961   1.620   2.264   7.249  0.8549  0.1734  0.3843
   88CHL1    C1 8962   1.584   1.948   7.103 -0.4320  0.4398  0.2507
   88CHL1   H1A 8963   1.688   1.933   7.137  1.0508  2.4463 -2.9514
   88CHL1   H1B 8964   1.516   1.864   7.131 -1.2503  0.0123 -2.6692
   88CHL1    C2 8965   1.566   1.963   6.945 -1.0152 -0.3124  0.0530
   88CHL1   H2A 8966   1.581   1.868   6.891 -1.6134 -0.7614  0.6688
   88CHL1   H2B 8967   1.640   2.034   6.901  1.5449 -2.4068  0.7027
   88CHL1   C20 8968   1.642   2.083   7.889 -0.1573 -0.4376 -0.4813
   88CHL1   H20 8969   1.672   2.189   7.884 -0.1316 -0.4077  0.2702
   88CHL1   C21 8970   1.776   2.012   7.871 -0.0428  0.5040 -0.2279
   88CHL1  H21A 8971   1.746   1.905   7.869  2.6218 -0.4241  2.6401
   88CHL1  H21B 8972   1.842   2.026   7.959  0.6075  1.9391 -0.9146
   88CHL1  H21C 8973   1.821   2.049   7.776 -1.3316 -1.4658 -1.6865
   88CHL1   C22 8974   1.578   2.056   8.027 -0.0765 -0.8348  0.3172
   88CHL1  H22A 8975   1.511   2.141   8.046  0.4114 -0.4856  0.4922
   88CHL1  H22B 8976   1.531   1.955   8.027 -1.5523 -0.2736 -2.7487
   88CHL1   C23 8977   1.681   2.062   8.141 -0.0268 -0.4955 -0.4507
   88CHL1  H23A 8978   1.747   1.973   8.138  0.7636  0.0629 -0.0883
   88CHL1  H23B 8979   1.749   2.147   8.116 -1.1153  0.2742 -0.8998
   88CHL1   C24 8980   1.631   2.101   8.286  0.7657  0.5287 -0.1984
   88CHL1  H24A 8981   1.572   2.195   8.272 -0.0438  0.1882  0.7948
   88CHL1  H24B 8982   1.558   2.026   8.322  0.4886 -0.1964 -2.1216
   88CHL1   C25 8983   1.741   2.113   8.381 -0.2680  0.9194  0.4562
   88CHL1   H25 8984   1.818   2.180   8.337 -0.3552  1.0080  0.4393
   88CHL1   C26 8985   1.700   2.170   8.521  0.1641 -0.4992 -0.4511
   88CHL1  H26A 8986   1.646   2.265   8.498 -0.0565 -0.5931 -0.3169
   88CHL1  H26B 8987   1.639   2.102   8.583 -1.3658  1.7122  0.6257
   88CHL1  H26C 8988   1.788   2.175   8.588 -0.6879 -1.9737  0.8388
   88CHL1   C27 8989   1.825   1.984   8.402  0.8464  0.0846 -0.4171
   88CHL1  H27A 8990   1.877   1.984   8.500  0.1040  0.9616 -0.0065
   88CHL1  H27B 8991   1.752   1.902   8.417  0.3088  0.4875 -0.7812
   88CHL1  H27C 8992   1.888   1.957   8.315  1.1439  1.6702 -0.7226
   89CHL1    C3 8993   4.383   5.199   7.056 -0.2966  0.2328  0.2531
   89CHL1    H3 8994   4.272   5.199   7.056 -0.3180 -0.5637 -1.1673
   89CHL1    O3 8995   4.421   5.181   6.922  0.5844  0.1783 -0.3664
   89CHL1   H3' 8996   4.394   5.090   6.909  0.2319  0.0922  0.8511
   89CHL1    C4 8997   4.440   5.326   7.112  0.2740  0.4384  0.6312
   89CHL1   H4A 8998   4.551   5.324   7.100  0.5591 -1.0562  2.8169
   89CHL1   H4B 8999   4.390   5.401   7.049  1.5443  1.5290  0.8752
   89CHL1    C5 9000   4.417   5.337   7.264  0.6962 -0.8034  0.4868
   89CHL1    C6 9001   4.362   5.447   7.309 -0.1840  0.0951 -0.0870
   89CHL1    H6 9002   4.329   5.527   7.242 -0.8573  1.7104  2.0819
   89CHL1    C7 9003   4.335   5.471   7.451  0.0989  0.2049 -0.5725
   89CHL1   H7A 9004   4.379   5.569   7.480 -1.2404  0.6005  0.2206
   89CHL1   H7B 9005   4.227   5.478   7.477  0.1294  0.0009 -0.3870
   89CHL1    C8 9006   4.412   5.364   7.541 -0.6785  0.2122 -0.2906
   89CHL1    H8 9007   4.521   5.386   7.548 -0.7289  0.6668 -0.8569
   89CHL1   C14 9008   4.357   5.367   7.687  0.9064  0.5840 -0.3444
   89CHL1   H14 9009   4.248   5.346   7.684  0.7577  1.3776 -0.7938
   89CHL1   C15 9010   4.356   5.504   7.757  0.0273  0.1631  0.2235
   89CHL1  H15A 9011   4.446   5.561   7.726  0.0474  0.3918  0.6998
   89CHL1  H15B 9012   4.264   5.554   7.720 -0.3961 -1.4291 -1.0018
   89CHL1   C16 9013   4.346   5.471   7.908  0.1814 -0.2639  0.2137
   89CHL1  H16A 9014   4.428   5.516   7.968  0.2095  1.3379 -0.9413
   89CHL1  H16B 9015   4.244   5.505   7.934  0.1343 -1.4643  1.7326
   89CHL1   C17 9016   4.351   5.315   7.916 -0.1678  0.6141 -1.0758
   89CHL1   H17 9017   4.249   5.273   7.909  0.0375 -0.0405 -0.2964
   89CHL1   C13 9018   4.419   5.271   7.785 -0.9182 -0.0825  0.6569
   89CHL1   C18 9019   4.572   5.292   7.793 -0.1054 -0.3020 -0.0776
   89CHL1  H18A 9020   4.621   5.226   7.868 -0.0337  1.7373  1.7476
   89CHL1  H18B 9021   4.622   5.286   7.694 -2.8432  3.7479 -1.9780
   89CHL1  H18C 9022   4.577   5.399   7.821  0.4573 -0.1578 -0.7122
   89CHL1   C12 9023   4.390   5.126   7.734  0.3133 -0.4194 -0.0662
   89CHL1  H12A 9024   4.432   5.054   7.807  0.1667 -0.7537 -0.3113
   89CHL1  H12B 9025   4.282   5.107   7.749  1.0992 -3.9386  2.2232
   89CHL1   C11 9026   4.434   5.107   7.592  0.0620 -0.5104  0.2369
   89CHL1  H11A 9027   4.545   5.107   7.584  0.1368 -1.8540  1.0009
   89CHL1  H11B 9028   4.407   5.006   7.555 -1.4657 -0.6846  1.7008
   89CHL1    C9 9029   4.386   5.218   7.485 -0.1482  0.0923  0.1407
   89CHL1    H9 9030   4.276   5.209   7.472  0.2563 -0.5923 -5.0968
   89CHL1   C10 9031   4.447   5.209   7.343 -0.3878 -0.2697 -0.1974
   89CHL1   C19 9032   4.603   5.215   7.351  0.2931  0.5418 -0.5964
   89CHL1  H19A 9033   4.644   5.312   7.388  2.0040 -0.8345  1.3734
   89CHL1  H19B 9034   4.645   5.129   7.407 -1.1686  0.0469 -0.2231
   89CHL1  H19C 9035   4.652   5.213   7.251 -0.4423 -2.3693 -0.9689
   89CHL1    C1 9036   4.398   5.080   7.271  0.8988 -0.1229 -0.1663
   89CHL1   H1A 9037   4.439   4.993   7.326 -0.7532 -0.9021 -0.1123
   89CHL1   H1B 9038   4.288   5.069   7.265  1.0527 -1.1211 -1.4523
   89CHL1    C2 9039   4.439   5.076   7.127 -0.0301  0.3110 -1.2474
   89CHL1   H2A 9040   4.400   4.982   7.082 -1.9447  0.9662 -1.0197
   89CHL1   H2B 9041   4.550   5.076   7.119  0.0736  0.1330  0.0280
   89CHL1   C20 9042   4.411   5.265   8.050 -0.7163 -0.0016  0.6917
   89CHL1   H20 9043   4.512   5.308   8.070  0.9775 -3.0487 -0.6257
   89CHL1   C21 9044   4.411   5.112   8.059 -0.6846 -0.0540 -1.0383
   89CHL1  H21A 9045   4.320   5.072   8.009  0.0728 -3.1870 -0.1505
   89CHL1  H21B 9046   4.420   5.072   8.163  0.5372 -3.2803 -2.2441
   89CHL1  H21C 9047   4.496   5.063   8.008  0.1821  0.1278  0.1790
   89CHL1   C22 9048   4.334   5.318   8.173  0.0632  1.1011  0.3068
   89CHL1  H22A 9049   4.301   5.424   8.171  0.1808  1.1976  1.8649
   89CHL1  H22B 9050   4.237   5.264   8.176  0.6504  0.0592  1.7634
   89CHL1   C23 9051   4.410   5.301   8.310 -0.0583  0.0008 -0.4143
   89CHL1  H23A 9052   4.440   5.194   8.316  1.2658  0.4158  0.8590
   89CHL1  H23B 9053   4.512   5.344   8.303 -0.0115 -0.0934 -0.3143
   89CHL1   C24 9054   4.339   5.325   8.441 -0.0437 -0.6056 -0.1590
   89CHL1  H24A 9055   4.365   5.430   8.467 -1.3468 -0.0583 -0.9542
   89CHL1  H24B 9056   4.232   5.324   8.411  0.0382  0.5017 -0.5171
   89CHL1   C25 9057   4.387   5.240   8.562  0.8638  0.4415  0.2467
   89CHL1   H25 9058   4.396   5.135   8.526  0.9088  0.3493  0.5224
   89CHL1   C26 9059   4.521   5.296   8.597 -0.3184  0.2343 -0.6381
   89CHL1  H26A 9060   4.590   5.290   8.510 -0.0674 -0.5924 -0.3914
   89CHL1  H26B 9061   4.524   5.404   8.625  0.1761  0.2310 -0.6697
   89CHL1  H26C 9062   4.567   5.242   8.682  0.6829 -0.1867 -1.4218
   89CHL1   C27 9063   4.298   5.251   8.691  0.3793 -0.2132  0.0533
   89CHL1  H27A 9064   4.194   5.214   8.681  0.3235 -0.1936  0.5445
   89CHL1  H27B 9065   4.361   5.202   8.768 -1.4575 -0.9932  1.1192
   89CHL1  H27C 9066   4.298   5.360   8.714  1.0371 -0.1770 -0.1026
   90CHL1    C3 9067   5.313   5.639   6.801  0.1254  0.8273 -0.4699
   90CHL1    H3 9068   5.423   5.647   6.788  0.2808 -0.8764 -0.3472
   90CHL1    O3 9069   5.245   5.635   6.679  0.1643  0.3283 -0.3523
   90CHL1   H3' 9070   5.154   5.614   6.701 -0.2435  0.5500 -1.7366
   90CHL1    C4 9071   5.275   5.512   6.881 -0.8914  0.4676 -0.5824
   90CHL1   H4A 9072   5.164   5.502   6.874 -0.7884  0.2644 -3.1201
   90CHL1   H4B 9073   5.313   5.428   6.818  0.7576  0.4377  0.4135
   90CHL1    C5 9074   5.330   5.506   7.024  0.1764 -0.4078 -0.3343
   90CHL1    C6 9075   5.391   5.398   7.073 -0.6480  0.0562 -0.9304
   90CHL1    H6 9076   5.395   5.309   7.008 -0.3100  0.5774 -1.6397
   90CHL1    C7 9077   5.433   5.394   7.215 -0.0554  0.0797  0.3866
   90CHL1   H7A 9078   5.400   5.294   7.250 -0.1871  0.5417  1.6139
   90CHL1   H7B 9079   5.542   5.407   7.231 -0.0182  0.8888 -0.3969
   90CHL1    C8 9080   5.360   5.498   7.307 -0.1656  0.4317 -0.4403
   90CHL1    H8 9081   5.258   5.456   7.320 -0.5822  0.7929 -2.2297
   90CHL1   C14 9082   5.420   5.508   7.442 -0.8381  0.5498 -0.1381
   90CHL1   H14 9083   5.518   5.551   7.410 -1.8208  2.7716 -0.3719
   90CHL1   C15 9084   5.450   5.379   7.520 -0.2365  0.0445  0.0944
   90CHL1  H15A 9085   5.362   5.313   7.533  0.0466 -0.0712  1.6419
   90CHL1  H15B 9086   5.538   5.331   7.471 -1.0318 -0.8746 -0.4793
   90CHL1   C16 9087   5.492   5.431   7.661  0.5913  0.2040  0.4691
   90CHL1  H16A 9088   5.419   5.373   7.723  0.4973  0.8981  1.0196
   90CHL1  H16B 9089   5.596   5.397   7.679  0.3964 -1.2012 -0.8301
   90CHL1   C17 9090   5.461   5.584   7.656  0.2184  0.7225 -0.4380
   90CHL1   H17 9091   5.556   5.635   7.629  1.5480 -1.0544  0.6558
   90CHL1   C13 9092   5.357   5.602   7.542  0.0406  0.0872  0.5566
   90CHL1   C18 9093   5.214   5.555   7.584  0.6919 -0.9032  0.0644
   90CHL1  H18A 9094   5.198   5.445   7.596 -2.6501 -0.3610  1.4204
   90CHL1  H18B 9095   5.181   5.606   7.676 -0.1132  0.5450 -0.9963
   90CHL1  H18C 9096   5.135   5.589   7.514  1.1576  0.3068  0.1179
   90CHL1   C12 9097   5.357   5.745   7.482 -0.3313 -0.0319  0.1681
   90CHL1  H12A 9098   5.303   5.819   7.545  1.4343  2.0663 -0.6435
   90CHL1  H12B 9099   5.461   5.779   7.464 -0.1551 -0.8712 -0.4830
   90CHL1   C11 9100   5.289   5.741   7.345 -0.2219 -0.1860  0.0189
   90CHL1  H11A 9101   5.182   5.709   7.350  0.1202 -1.5156 -0.6742
   90CHL1  H11B 9102   5.296   5.842   7.298  5.6203  0.6267  1.8809
   90CHL1    C9 9103   5.357   5.635   7.241  0.5656 -0.4763 -0.1604
   90CHL1    H9 9104   5.459   5.678   7.244  1.1952 -1.8698  3.0387
   90CHL1   C10 9105   5.293   5.640   7.096 -0.5778  0.4040 -0.5383
   90CHL1   C19 9106   5.145   5.646   7.110  0.2075 -0.2903  0.1337
   90CHL1  H19A 9107   5.084   5.612   7.024 -0.7218  1.4763  0.0579
   90CHL1  H19B 9108   5.122   5.582   7.198  1.8240 -1.4867 -0.2465
   90CHL1  H19C 9109   5.115   5.750   7.136  0.2520 -0.4295  0.7815
   90CHL1    C1 9110   5.336   5.772   7.024 -0.1897  0.3262 -0.0575
   90CHL1   H1A 9111   5.301   5.859   7.084 -2.5652 -1.3192  1.0897
   90CHL1   H1B 9112   5.446   5.767   7.016 -0.0938  0.1743  1.1230
   90CHL1    C2 9113   5.280   5.772   6.878 -0.4776 -0.4439  0.2523
   90CHL1   H2A 9114   5.317   5.858   6.819 -2.9063 -0.2190 -1.1030
   90CHL1   H2B 9115   5.171   5.791   6.868 -0.2716 -0.1516 -2.0605
   90CHL1   C20 9116   5.416   5.631   7.794  0.8670 -0.1993  0.5176
   90CHL1   H20 9117   5.327   5.572   7.824 -0.1580  0.3639 -1.2826
   90CHL1   C21 9118   5.381   5.785   7.798 -0.1383 -0.1375 -0.1113
   90CHL1  H21A 9119   5.280   5.792   7.751 -1.2749  0.8084  2.3196
   90CHL1  H21B 9120   5.446   5.849   7.735  0.1044  0.3399  0.6107
   90CHL1  H21C 9121   5.372   5.823   7.902 -0.2419 -1.3584  0.3395
   90CHL1   C22 9122   5.517   5.605   7.909 -0.8577 -0.6247 -0.7057
   90CHL1  H22A 9123   5.556   5.501   7.906  1.4033  0.1657 -0.5519
   90CHL1  H22B 9124   5.595   5.683   7.909 -2.2888  0.9373  2.1166
   90CHL1   C23 9125   5.447   5.615   8.051 -0.8919 -0.4696 -0.0925
   90CHL1  H23A 9126   5.438   5.722   8.080  3.0037 -0.0287 -0.0569
   90CHL1  H23B 9127   5.344   5.576   8.033 -1.5457  1.5941 -1.1866
   90CHL1   C24 9128   5.521   5.545   8.168 -0.6038 -0.1124 -0.3729
   90CHL1  H24A 9129   5.539   5.438   8.143  3.6443  0.1911  0.5349
   90CHL1  H24B 9130   5.623   5.588   8.177 -0.7030  0.5111 -1.9844
   90CHL1   C25 9131   5.455   5.580   8.308  0.3125 -0.7262 -0.0843
   90CHL1   H25 9132   5.344   5.582   8.298  0.3056  0.1218  0.0606
   90CHL1   C26 9133   5.482   5.485   8.423  0.2602  0.9030  0.3010
   90CHL1  H26A 9134   5.467   5.382   8.383 -1.1392  1.2944 -0.2454
   90CHL1  H26B 9135   5.589   5.497   8.450  0.4158  3.8529 -1.1318
   90CHL1  H26C 9136   5.418   5.494   8.513 -1.3661  0.3548 -0.7493
   90CHL1   C27 9137   5.504   5.724   8.346 -0.2798  0.1433 -0.3142
   90CHL1  H27A 9138   5.472   5.749   8.449 -0.7992  4.1192 -1.2721
   90CHL1  H27B 9139   5.615   5.725   8.346 -0.2272 -1.7016 -0.5997
   90CHL1  H27C 9140   5.464   5.807   8.283 -1.5875  0.8733  1.4204
   91CHL1    C3 9141   5.118   6.610   7.191  0.5860  0.3525  0.2090
   91CHL1    H3 9142   5.139   6.501   7.196 -2.9649 -0.3954  2.3439
   91CHL1    O3 9143   5.143   6.670   7.068 -0.0122  0.2955 -0.0401
   91CHL1   H3' 9144   5.217   6.725   7.094 -0.7980  0.3856  2.1428
   91CHL1    C4 9145   4.976   6.637   7.241 -0.5269  0.2290 -0.5100
   91CHL1   H4A 9146   4.961   6.746   7.230  1.5251  0.5411 -0.7565
   91CHL1   H4B 9147   4.904   6.597   7.166 -1.0706 -0.2998  0.2807
   91CHL1    C5 9148   4.955   6.594   7.385  1.0300  0.4921 -0.0298
   91CHL1    C6 9149   4.850   6.515   7.418 -0.6748 -0.6242 -0.0948
   91CHL1    H6 9150   4.788   6.485   7.332 -0.6121  1.2922 -0.8574
   91CHL1    C7 9151   4.816   6.488   7.565  0.0269 -0.3729  0.2352
   91CHL1   H7A 9152   4.709   6.502   7.589  0.5594  1.0259  2.0019
   91CHL1   H7B 9153   4.844   6.382   7.585 -1.6657 -1.0870 -0.9674
   91CHL1    C8 9154   4.894   6.573   7.667 -1.0583 -0.8596  1.2925
   91CHL1    H8 9155   4.835   6.667   7.675  0.3443  0.0693  1.0543
   91CHL1   C14 9156   4.870   6.499   7.800 -0.4352  0.4031  0.3802
   91CHL1   H14 9157   4.912   6.397   7.791  0.1830  0.7330 -0.8139
   91CHL1   C15 9158   4.724   6.476   7.848 -0.9694  0.7743 -0.0263
   91CHL1  H15A 9159   4.673   6.569   7.817 -0.4168  1.6618  1.5989
   91CHL1  H15B 9160   4.679   6.385   7.802 -1.7634  0.2309  1.7440
   91CHL1   C16 9161   4.739   6.454   8.002  0.0294  0.5773  0.1840
   91CHL1  H16A 9162   4.670   6.525   8.052 -1.0485  0.3680 -0.9417
   91CHL1  H16B 9163   4.702   6.352   8.027  0.0544  0.6780  0.6324
   91CHL1   C17 9164   4.893   6.487   8.040  0.1051 -0.1844  0.1929
   91CHL1   H17 9165   4.949   6.392   8.033 -1.6507 -1.2097 -0.6424
   91CHL1   C13 9166   4.946   6.568   7.919  0.0488 -0.0706  0.7623
   91CHL1   C18 9167   4.896   6.708   7.941  0.1573 -0.9432  1.2540
   91CHL1  H18A 9168   4.908   6.770   7.849 -2.0229 -2.0765  0.1323
   91CHL1  H18B 9169   4.789   6.714   7.969  0.1392 -0.5478  1.1038
   91CHL1  H18C 9170   4.950   6.763   8.021 -0.2226  1.0406  0.2146
   91CHL1   C12 9171   5.092   6.563   7.883 -0.0041 -0.4991  0.2435
   91CHL1  H12A 9172   5.157   6.605   7.964  0.0152  0.3797 -0.2109
   91CHL1  H12B 9173   5.125   6.457   7.875 -1.2232 -0.8722  0.0092
   91CHL1   C11 9174   5.123   6.633   7.747  0.3364  0.3840  1.2867
   91CHL1  H11A 9175   5.112   6.742   7.768 -2.8960  0.5718 -0.6763
   91CHL1  H11B 9176   5.226   6.612   7.711 -0.7856 -2.2750 -0.7520
   91CHL1    C9 9177   5.039   6.585   7.631 -0.6370 -0.5619  0.7481
   91CHL1    H9 9178   5.074   6.480   7.625  0.6821 -0.4435  4.1803
   91CHL1   C10 9179   5.060   6.648   7.487  0.0695  0.3160  0.3030
   91CHL1   C19 9180   5.036   6.803   7.499  0.2787  0.7356  0.0838
   91CHL1  H19A 9181   5.110   6.842   7.572 -0.5755 -1.2503  2.1671
   91CHL1  H19B 9182   5.061   6.847   7.401 -0.4455  0.4660 -0.2328
   91CHL1  H19C 9183   4.930   6.821   7.528  0.2945 -1.9858  2.3000
   91CHL1    C1 9184   5.202   6.607   7.431  0.4248  0.2745 -0.8412
   91CHL1   H1A 9185   5.290   6.643   7.488 -0.5779  1.4317  0.0583
   91CHL1   H1B 9186   5.205   6.499   7.405  0.0319  0.3752 -1.3334
   91CHL1    C2 9187   5.228   6.664   7.288 -0.5006 -0.4570  0.3679
   91CHL1   H2A 9188   5.322   6.618   7.253 -0.9857 -0.0819 -1.5221
   91CHL1   H2B 9189   5.250   6.773   7.288  0.7326 -0.6841 -0.1372
   91CHL1   C20 9190   4.903   6.532   8.181  0.3076 -0.1426 -0.1074
   91CHL1   H20 9191   4.853   6.629   8.203  0.1399  0.2142 -1.9019
   91CHL1   C21 9192   5.053   6.563   8.206 -0.8692  0.2173 -0.2685
   91CHL1  H21A 9193   5.068   6.578   8.315 -0.4721 -1.8614  0.0183
   91CHL1  H21B 9194   5.100   6.654   8.164 -2.2709  1.4875  0.8026
   91CHL1  H21C 9195   5.118   6.474   8.192  1.5109  1.6219  1.1367
   91CHL1   C22 9196   4.846   6.433   8.287 -0.7245  0.6756 -0.0467
   91CHL1  H22A 9197   4.851   6.474   8.390 -4.5972  0.3962  0.3691
   91CHL1  H22B 9198   4.741   6.418   8.255 -0.2537  0.1444 -1.4094
   91CHL1   C23 9199   4.922   6.298   8.294 -0.4558  0.4278  0.2856
   91CHL1  H23A 9200   4.888   6.258   8.196 -2.3030 -0.1287  1.0963
   91CHL1  H23B 9201   5.033   6.300   8.297 -0.3579  3.3336 -1.3519
   91CHL1   C24 9202   4.875   6.197   8.397  0.4202  0.6395 -0.1114
   91CHL1  H24A 9203   4.944   6.109   8.393 -1.3091 -0.7878  0.1614
   91CHL1  H24B 9204   4.893   6.239   8.498 -0.1867  1.3158 -0.2748
   91CHL1   C25 9205   4.727   6.147   8.390 -0.8134 -0.3737 -0.1050
   91CHL1   H25 9206   4.666   6.237   8.367 -0.8164  0.5043  2.8682
   91CHL1   C26 9207   4.711   6.056   8.267 -0.0525  0.0392 -0.2686
   91CHL1  H26A 9208   4.626   5.988   8.288  0.5597 -0.8911 -0.7260
   91CHL1  H26B 9209   4.688   6.111   8.173 -0.8955 -2.3038 -1.5148
   91CHL1  H26C 9210   4.798   5.992   8.240 -1.6997 -2.5847  0.2159
   91CHL1   C27 9211   4.696   6.076   8.521  0.4679 -0.0108  0.0724
   91CHL1  H27A 9212   4.747   5.977   8.526 -1.5177 -1.1832 -1.4885
   91CHL1  H27B 9213   4.721   6.137   8.610  1.2304 -1.2272  0.7072
   91CHL1  H27C 9214   4.589   6.046   8.526  1.3029 -3.4771 -0.2014
   92CHL1    C3 9215   1.871   2.608   6.772  0.1232 -0.8162  0.0219
   92CHL1    H3 9216   1.788   2.681   6.763  1.3939  0.7953  0.8845
   92CHL1    O3 9217   1.906   2.561   6.646 -0.2423  0.5502  0.2867
   92CHL1   H3' 9218   1.995   2.534   6.669 -0.5737 -0.6189  0.2583
   92CHL1    C4 9219   1.994   2.682   6.837  0.6090  0.5002  0.0733
   92CHL1   H4A 9220   2.080   2.615   6.818  0.9208  0.6896  0.8101
   92CHL1   H4B 9221   2.021   2.778   6.788 -0.5020  1.1012  0.6099
   92CHL1    C5 9222   1.978   2.714   6.988  0.0239  0.7858 -0.2830
   92CHL1    C6 9223   1.986   2.835   7.036  0.3782  0.5565  0.5011
   92CHL1    H6 9224   1.990   2.917   6.962  1.5656 -0.3566 -0.5126
   92CHL1    C7 9225   1.972   2.865   7.179 -0.4247  0.5959  0.2516
   92CHL1   H7A 9226   2.049   2.940   7.210  0.2844 -0.4599  1.1169
   92CHL1   H7B 9227   1.875   2.917   7.194  0.9605  3.5890 -0.2150
   92CHL1    C8 9228   1.976   2.744   7.272 -0.1682  0.5578 -0.3240
   92CHL1    H8 9229   2.080   2.710   7.289 -1.2757 -2.2611  1.5196
   92CHL1   C14 9230   1.918   2.780   7.407  0.3349 -0.8035  0.3298
   92CHL1   H14 9231   1.813   2.812   7.388  0.8029  0.4065 -0.2577
   92CHL1   C15 9232   1.981   2.896   7.493  0.0722  0.9821 -0.0830
   92CHL1  H15A 9233   2.092   2.888   7.491  0.0401 -0.2894  1.2203
   92CHL1  H15B 9234   1.954   2.997   7.456 -0.7416  0.0101 -2.2988
   92CHL1   C16 9235   1.917   2.881   7.634 -0.0509 -0.2843  0.2309
   92CHL1  H16A 9236   1.986   2.885   7.720  2.1469  1.7010 -1.4832
   92CHL1  H16B 9237   1.850   2.966   7.657 -0.3123 -0.4939  0.2518
   92CHL1   C17 9238   1.836   2.746   7.639  0.0134  0.0929 -0.8731
   92CHL1   H17 9239   1.728   2.754   7.615 -0.3382 -2.2167 -0.2631
   92CHL1   C13 9240   1.899   2.676   7.515 -0.2823 -0.0344  0.3842
   92CHL1   C18 9241   2.042   2.618   7.542  0.1292 -0.0391 -0.5178
   92CHL1  H18A 9242   2.103   2.676   7.615 -0.1911 -2.3624  1.7612
   92CHL1  H18B 9243   2.034   2.516   7.586 -3.7926 -0.0147 -0.7804
   92CHL1  H18C 9244   2.089   2.587   7.446  2.4316  0.6983  0.3077
   92CHL1   C12 9245   1.812   2.567   7.448  0.3979 -0.1766  0.3207
   92CHL1  H12A 9246   1.786   2.480   7.512 -0.6547 -0.8910 -1.0239
   92CHL1  H12B 9247   1.712   2.616   7.443  0.8721  0.9498  1.2548
   92CHL1   C11 9248   1.860   2.524   7.311  0.1015 -0.1796 -0.4108
   92CHL1  H11A 9249   1.966   2.493   7.323  1.1647  2.4903 -1.9988
   92CHL1  H11B 9250   1.787   2.457   7.261  1.3869 -0.9807 -1.2677
   92CHL1    C9 9251   1.892   2.639   7.212 -0.1569  1.0301  0.0151
   92CHL1    H9 9252   1.796   2.694   7.199  0.1605  1.7296  0.5921
   92CHL1   C10 9253   1.940   2.590   7.070  0.1181  0.2608 -0.1275
   92CHL1   C19 9254   2.056   2.489   7.076 -0.4351  0.3789 -0.8974
   92CHL1  H19A 9255   2.133   2.554   7.122 -0.2458 -1.0132  0.8635
   92CHL1  H19B 9256   2.041   2.408   7.151  1.6794 -1.9244 -2.7723
   92CHL1  H19C 9257   2.082   2.446   6.977  1.2615  0.7394 -0.6346
   92CHL1    C1 9258   1.818   2.523   6.998  0.0603 -0.4416 -0.9111
   92CHL1   H1A 9259   1.787   2.430   7.051 -0.9925  0.6195  0.4003
   92CHL1   H1B 9260   1.737   2.597   7.015  0.9090  0.2455  0.3331
   92CHL1    C2 9261   1.832   2.487   6.852  0.8035  0.2734  0.5299
   92CHL1   H2A 9262   1.741   2.431   6.822  0.5434  0.1116  1.5855
   92CHL1   H2B 9263   1.912   2.411   6.862  2.1964  1.8763  2.1431
   92CHL1   C20 9264   1.861   2.670   7.778 -0.0977 -0.4552  0.6642
   92CHL1   H20 9265   1.968   2.674   7.805  0.1916  0.2318 -0.4929
   92CHL1   C21 9266   1.824   2.520   7.776  0.0095 -0.0639  0.0446
   92CHL1  H21A 9267   1.715   2.501   7.791  0.0836  0.1929  0.9671
   92CHL1  H21B 9268   1.876   2.479   7.865 -1.0890  1.2932  1.3758
   92CHL1  H21C 9269   1.867   2.470   7.687  2.9068 -0.5176  1.5970
   92CHL1   C22 9270   1.783   2.751   7.880  0.3432 -0.6400  0.4639
   92CHL1  H22A 9271   1.844   2.843   7.894 -0.8583 -0.2041  3.5181
   92CHL1  H22B 9272   1.681   2.772   7.841  1.4161  1.0624 -1.6206
   92CHL1   C23 9273   1.790   2.694   8.017 -0.0995 -0.3381 -0.0716
   92CHL1  H23A 9274   1.777   2.583   8.019  0.5317 -0.4261 -0.4233
   92CHL1  H23B 9275   1.889   2.701   8.067 -0.9195 -1.6185  1.8642
   92CHL1   C24 9276   1.685   2.758   8.115 -0.4694 -0.4117  1.0734
   92CHL1  H24A 9277   1.727   2.860   8.127 -3.0984  0.9844 -0.7135
   92CHL1  H24B 9278   1.594   2.772   8.053  2.0245 -1.4598 -3.3089
   92CHL1   C25 9279   1.683   2.711   8.265 -0.0362  0.4650 -0.4147
   92CHL1   H25 9280   1.786   2.723   8.303 -0.9981  0.9833  2.2443
   92CHL1   C26 9281   1.584   2.804   8.334 -0.3488 -0.4876  0.2048
   92CHL1  H26A 9282   1.480   2.799   8.295 -0.0848 -1.8039 -0.3802
   92CHL1  H26B 9283   1.571   2.772   8.439 -0.7940  0.2850  0.3929
   92CHL1  H26C 9284   1.610   2.911   8.320 -1.2270 -0.5197 -2.1107
   92CHL1   C27 9285   1.634   2.564   8.283  0.1614 -0.0618 -0.1329
   92CHL1  H27A 9286   1.643   2.537   8.390 -1.7885  1.2687  0.4284
   92CHL1  H27B 9287   1.524   2.555   8.266 -0.1800 -0.7440  2.0415
   92CHL1  H27C 9288   1.677   2.494   8.209 -1.1123 -2.1358  0.9903
   93CHL1    C3 9289   0.062   0.901   6.889 -0.6588  0.1022  0.1820
   93CHL1    H3 9290   0.164   0.868   6.917 -0.1220  1.6382  0.1655
   93CHL1    O3 9291   0.072   0.961   6.758  0.7111 -0.0361 -0.5000
   93CHL1   H3' 9292   0.120   0.893   6.710 -0.0273 -0.6187 -0.4293
   93CHL1    C4 9293  -0.038   0.790   6.889  0.0193 -0.1696  0.0559
   93CHL1   H4A 9294  -0.135   0.837   6.865 -0.1567 -1.9997 -3.3212
   93CHL1   H4B 9295  -0.011   0.729   6.801  0.6935  0.7995 -0.4252
   93CHL1    C5 9296  -0.053   0.716   7.021 -0.2829  0.0313 -0.2656
   93CHL1    C6 9297  -0.039   0.582   7.045 -0.7154  0.0526 -0.0923
   93CHL1    H6 9298  -0.018   0.514   6.961 -1.6717  0.2728 -0.5187
   93CHL1    C7 9299  -0.032   0.521   7.182  0.3414 -0.0998  0.4063
   93CHL1   H7A 9300  -0.089   0.425   7.181  1.2259 -0.6350  0.2096
   93CHL1   H7B 9301   0.074   0.491   7.197 -0.1012 -3.2075 -1.6272
   93CHL1    C8 9302  -0.095   0.606   7.289 -0.6894  0.3411  0.4206
   93CHL1    H8 9303  -0.206   0.608   7.281 -0.6877  2.6588  0.2672
   93CHL1   C14 9304  -0.063   0.551   7.425 -0.5616  0.0731  0.4890
   93CHL1   H14 9305   0.048   0.556   7.427 -0.5531  1.2127 -0.7804
   93CHL1   C15 9306  -0.109   0.408   7.467  0.2079 -0.6776 -0.3587
   93CHL1  H15A 9307  -0.209   0.389   7.424 -0.5371  2.5836 -0.2959
   93CHL1  H15B 9308  -0.045   0.330   7.420  0.5392  0.0531 -1.1615
   93CHL1   C16 9309  -0.109   0.413   7.618 -0.0057  0.4347 -0.9129
   93CHL1  H16A 9310  -0.208   0.380   7.655  0.5691  0.0006  0.2939
   93CHL1  H16B 9311  -0.029   0.342   7.649  0.1738  0.7544 -0.6407
   93CHL1   C17 9312  -0.074   0.552   7.662  0.1291 -0.3806  0.4591
   93CHL1   H17 9313   0.034   0.568   7.677  0.3323  0.5477 -1.7053
   93CHL1   C13 9314  -0.108   0.647   7.538  0.0074 -0.5468  0.0699
   93CHL1   C18 9315  -0.264   0.675   7.539 -0.0359 -1.0582 -0.1146
   93CHL1  H18A 9316  -0.289   0.719   7.439  0.3614  1.6481  0.8884
   93CHL1  H18B 9317  -0.322   0.581   7.545 -2.0601  0.1676  0.7450
   93CHL1  H18C 9318  -0.289   0.751   7.617  2.0001  1.2218 -1.5086
   93CHL1   C12 9319  -0.023   0.777   7.531 -0.0542  0.3749  0.4164
   93CHL1  H12A 9320  -0.042   0.850   7.612 -2.3739  1.4901 -1.0145
   93CHL1  H12B 9321   0.087   0.766   7.541 -0.1339 -0.6719  0.2962
   93CHL1   C11 9322  -0.058   0.844   7.400  0.1561 -0.2905  0.4832
   93CHL1  H11A 9323  -0.162   0.882   7.390  1.0889  3.0256  1.9328
   93CHL1  H11B 9324  -0.005   0.940   7.387  0.2312 -0.5143 -1.0878
   93CHL1    C9 9325  -0.033   0.745   7.278  0.0777 -1.1367 -0.0212
   93CHL1    H9 9326   0.078   0.742   7.279  0.4789  4.0651  1.7392
   93CHL1   C10 9327  -0.068   0.809   7.141 -0.0574  0.2221  0.0503
   93CHL1   C19 9328  -0.215   0.845   7.141 -0.0524  0.1987  0.2392
   93CHL1  H19A 9329  -0.286   0.760   7.148  0.4589 -0.1529  1.5134
   93CHL1  H19B 9330  -0.234   0.923   7.219 -0.4034  0.8923 -0.5236
   93CHL1  H19C 9331  -0.237   0.901   7.048  0.0551 -0.1354  0.0114
   93CHL1    C1 9332   0.025   0.937   7.133  0.2675  0.1237  0.1243
   93CHL1   H1A 9333  -0.006   1.010   7.210 -0.7330 -0.5623  0.3898
   93CHL1   H1B 9334   0.130   0.900   7.133 -0.2834 -1.7463 -2.4472
   93CHL1    C2 9335   0.026   1.007   6.992  0.7959 -0.3948 -0.3987
   93CHL1   H2A 9336   0.100   1.090   6.994  1.5862 -0.9426 -2.9734
   93CHL1   H2B 9337  -0.074   1.049   6.967  0.5211 -1.7945 -1.7759
   93CHL1   C20 9338  -0.126   0.589   7.801 -0.2154 -0.8105 -0.0393
   93CHL1   H20 9339  -0.236   0.598   7.793 -0.1152  1.3299  0.3866
   93CHL1   C21 9340  -0.089   0.736   7.837  0.0072 -0.3564  0.3702
   93CHL1  H21A 9341   0.016   0.749   7.804 -0.1571 -0.6160 -0.2964
   93CHL1  H21B 9342  -0.084   0.750   7.947  1.7503  0.3406  0.2377
   93CHL1  H21C 9343  -0.155   0.814   7.793 -2.0810 -0.9463  2.2612
   93CHL1   C22 9344  -0.102   0.490   7.915  0.0230 -0.4712 -0.2047
   93CHL1  H22A 9345  -0.140   0.524   8.014 -3.7104 -1.1660 -1.2170
   93CHL1  H22B 9346  -0.164   0.402   7.887  0.6515 -0.7251 -0.8221
   93CHL1   C23 9347   0.035   0.430   7.933 -0.2780  0.6606 -0.9085
   93CHL1  H23A 9348   0.080   0.400   7.835 -0.9227 -1.6103 -0.5605
   93CHL1  H23B 9349   0.092   0.518   7.967 -0.6617  0.6212 -0.1560
   93CHL1   C24 9350   0.043   0.321   8.046  0.2326  0.2648  0.1714
   93CHL1  H24A 9351  -0.020   0.350   8.133  1.6246  1.1237  0.9241
   93CHL1  H24B 9352  -0.003   0.227   8.011 -1.6957  1.2319 -0.0257
   93CHL1   C25 9353   0.181   0.285   8.085  0.7791 -0.1456 -1.3178
   93CHL1   H25 9354   0.238   0.375   8.116  1.2705 -1.0651  0.6279
   93CHL1   C26 9355   0.179   0.175   8.195  0.0091 -0.9037 -0.0074
   93CHL1  H26A 9356   0.105   0.095   8.174  0.5885 -1.3590 -0.3193
   93CHL1  H26B 9357   0.280   0.130   8.205 -0.3851 -1.7627  0.1598
   93CHL1  H26C 9358   0.160   0.206   8.300 -0.1704 -0.4018 -0.1871
   93CHL1   C27 9359   0.259   0.256   7.961 -0.1228  0.2479  0.2841
   93CHL1  H27A 9360   0.203   0.174   7.911 -1.4021  0.3352  1.5066
   93CHL1  H27B 9361   0.281   0.334   7.886  2.6741 -1.5404 -0.9607
   93CHL1  H27C 9362   0.357   0.208   7.984 -0.1608 -0.0475 -0.1614
   94CHL1    C3 9363   2.761   3.140   6.873 -0.1677  0.4229  0.0312
   94CHL1    H3 9364   2.832   3.226   6.873  0.1919  0.1292 -0.0621
   94CHL1    O3 9365   2.672   3.153   6.764  0.1869 -0.3284  0.1920
   94CHL1   H3' 9366   2.641   3.063   6.760  1.1089 -0.6181 -1.1909
   94CHL1    C4 9367   2.831   3.000   6.873 -0.6467  0.3705 -0.1592
   94CHL1   H4A 9368   2.752   2.921   6.870  1.0046 -1.3203 -1.0505
   94CHL1   H4B 9369   2.881   2.985   6.775 -1.4588 -0.7883 -0.4215
   94CHL1    C5 9370   2.929   2.974   6.986 -0.2457 -0.0796 -0.2747
   94CHL1    C6 9371   3.050   2.951   6.969 -0.4963 -0.5639  0.3490
   94CHL1    H6 9372   3.092   2.935   6.869 -1.1960  0.7810 -0.1752
   94CHL1    C7 9373   3.151   2.952   7.073 -0.0403 -0.3857 -0.1329
   94CHL1   H7A 9374   3.221   2.865   7.062 -0.8823 -1.3377  1.7205
   94CHL1   H7B 9375   3.196   3.053   7.074  1.6200 -1.0857  0.8119
   94CHL1    C8 9376   3.093   2.937   7.219  0.0559  0.0656  0.2277
   94CHL1    H8 9377   3.063   2.832   7.240  1.7415 -0.1103  2.1585
   94CHL1   C14 9378   3.205   2.970   7.325 -0.8936  0.6423  0.6156
   94CHL1   H14 9379   3.226   3.078   7.310 -2.3415  1.1537  2.0197
   94CHL1   C15 9380   3.342   2.901   7.313  0.4792  0.1722  0.4293
   94CHL1  H15A 9381   3.327   2.792   7.297  1.4138  0.0052  0.6072
   94CHL1  H15B 9382   3.410   2.931   7.231 -2.1015  2.5688 -0.9970
   94CHL1   C16 9383   3.406   2.933   7.455 -0.6710  0.3140  0.3895
   94CHL1  H16A 9384   3.435   2.839   7.506  2.9034  0.6238 -0.7833
   94CHL1  H16B 9385   3.493   3.001   7.443 -0.3567 -0.0121  0.8150
   94CHL1   C17 9386   3.293   3.006   7.533 -0.4353  0.1801 -0.0179
   94CHL1   H17 9387   3.306   3.113   7.505 -2.3799  0.0582 -1.6507
   94CHL1   C13 9388   3.163   2.961   7.474  0.1103  0.3511  0.6624
   94CHL1   C18 9389   3.126   2.816   7.525  0.0709 -0.0504  0.7124
   94CHL1  H18A 9390   3.057   2.764   7.455  1.4543 -1.0264  0.0112
   94CHL1  H18B 9391   3.217   2.752   7.525 -0.3983 -0.7731 -0.8124
   94CHL1  H18C 9392   3.081   2.813   7.627 -0.3120 -0.6371  0.5370
   94CHL1   C12 9393   3.051   3.068   7.482  0.7588 -0.1345  0.4326
   94CHL1  H12A 9394   3.010   3.061   7.585  0.4744 -1.2895  0.2631
   94CHL1  H12B 9395   3.087   3.170   7.459  0.7377  0.1826  1.7071
   94CHL1   C11 9396   2.931   3.029   7.386 -0.1606 -0.3075  0.4900
   94CHL1  H11A 9397   2.888   2.933   7.420 -1.9258  0.7729  1.4904
   94CHL1  H11B 9398   2.847   3.102   7.396 -0.7590 -1.2869  3.5952
   94CHL1    C9 9399   2.978   3.033   7.238  0.1302  0.5884  0.3168
   94CHL1    H9 9400   3.031   3.130   7.228 -0.5902  1.2945  2.7783
   94CHL1   C10 9401   2.870   3.014   7.121 -0.3256  0.0815  0.6223
   94CHL1   C19 9402   2.780   2.894   7.162  0.6582 -0.2801  0.6036
   94CHL1  H19A 9403   2.699   2.865   7.091  0.0130 -1.3774  1.7391
   94CHL1  H19B 9404   2.847   2.814   7.198 -0.5976 -2.0655 -0.8160
   94CHL1  H19C 9405   2.725   2.925   7.253 -0.2963 -0.4818  0.1112
   94CHL1    C1 9406   2.781   3.145   7.113  0.4257 -0.2989 -0.3446
   94CHL1   H1A 9407   2.726   3.144   7.210 -0.2557 -1.1089 -0.7249
   94CHL1   H1B 9408   2.842   3.237   7.104  1.5625 -1.0729 -0.6774
   94CHL1    C2 9409   2.680   3.157   6.999  0.0046 -0.1730  1.1668
   94CHL1   H2A 9410   2.620   3.251   7.001 -0.3512 -0.3947  0.9305
   94CHL1   H2B 9411   2.605   3.076   7.003  2.2557 -2.3464  1.5075
   94CHL1   C20 9412   3.306   2.996   7.689 -0.2473 -0.1708  0.3180
   94CHL1   H20 9413   3.269   2.893   7.706 -2.0233  0.1708 -1.1556
   94CHL1   C21 9414   3.220   3.110   7.756  0.6671  0.1738 -0.0639
   94CHL1  H21A 9415   3.111   3.087   7.754  0.7054 -0.0080 -0.1196
   94CHL1  H21B 9416   3.243   3.201   7.696  1.8950 -0.3038 -0.3557
   94CHL1  H21C 9417   3.246   3.136   7.860  1.6060  0.2845 -0.3190
   94CHL1   C22 9418   3.448   3.006   7.750 -0.6761  0.6570 -0.0718
   94CHL1  H22A 9419   3.443   2.998   7.861  0.5692  0.4734 -0.0194
   94CHL1  H22B 9420   3.490   2.907   7.724  2.3846  2.2346 -1.5226
   94CHL1   C23 9421   3.551   3.114   7.709  0.2906 -0.0955 -0.5615
   94CHL1  H23A 9422   3.582   3.105   7.603 -2.0837 -2.0076 -1.1729
   94CHL1  H23B 9423   3.516   3.220   7.716  2.8299  0.9816 -2.6578
   94CHL1   C24 9424   3.688   3.102   7.782  0.3896 -0.1048  0.0274
   94CHL1  H24A 9425   3.671   3.056   7.881  1.2619  1.1908  0.7959
   94CHL1  H24B 9426   3.751   3.031   7.723 -0.6751 -0.4040 -0.8010
   94CHL1   C25 9427   3.772   3.233   7.790 -0.1717 -0.3803  0.1677
   94CHL1   H25 9428   3.781   3.294   7.698 -0.4825  2.1694  1.7413
   94CHL1   C26 9429   3.715   3.327   7.903 -0.1012 -0.2047  0.1537
   94CHL1  H26A 9430   3.607   3.347   7.883 -0.2733 -2.6458 -1.8504
   94CHL1  H26B 9431   3.727   3.272   7.999  0.9095 -0.5691 -0.1670
   94CHL1  H26C 9432   3.776   3.419   7.912  0.8736 -0.6590 -1.3444
   94CHL1   C27 9433   3.912   3.186   7.834 -0.6528 -0.1567 -0.6733
   94CHL1  H27A 9434   3.984   3.270   7.849 -1.9800  0.7371  1.0384
   94CHL1  H27B 9435   3.913   3.115   7.919 -0.1991 -1.5578 -1.8177
   94CHL1  H27C 9436   3.951   3.122   7.752 -0.0408  2.4189 -2.5512
   95CHL1    C3 9437   3.007   2.139   6.571  1.0994 -0.5269  0.5553
   95CHL1    H3 9438   3.012   2.247   6.595  0.4993 -0.2231 -0.6266
   95CHL1    O3 9439   3.010   2.125   6.429 -0.0219 -0.4529  0.2717
   95CHL1   H3' 9440   3.006   2.031   6.409  1.5671 -0.3695 -0.6147
   95CHL1    C4 9441   3.132   2.071   6.622 -0.3386  0.4520 -0.6569
   95CHL1   H4A 9442   3.147   1.965   6.590 -2.9042 -1.2184  2.9232
   95CHL1   H4B 9443   3.220   2.126   6.583  0.6314 -1.3582 -1.1461
   95CHL1    C5 9444   3.132   2.069   6.772 -0.2813  0.1551  0.6618
   95CHL1    C6 9445   3.237   2.123   6.840 -0.0330  0.1070 -0.3992
   95CHL1    H6 9446   3.320   2.164   6.781 -2.0273  0.4318 -3.1477
   95CHL1    C7 9447   3.248   2.128   6.989  0.3037 -0.3428  0.3631
   95CHL1   H7A 9448   3.357   2.122   7.010  0.3828  2.0431  0.9328
   95CHL1   H7B 9449   3.226   2.224   7.040  0.7015 -0.4932  0.8186
   95CHL1    C8 9450   3.154   2.025   7.058 -0.1251 -0.0302 -0.5591
   95CHL1    H8 9451   3.203   1.925   7.050  2.8869  1.3879 -1.6650
   95CHL1   C14 9452   3.145   2.055   7.206  0.3662 -0.8647  0.3011
   95CHL1   H14 9453   3.082   2.145   7.214  1.3344 -0.2099  0.6622
   95CHL1   C15 9454   3.275   2.063   7.294  0.4698  0.4865 -0.2506
   95CHL1  H15A 9455   3.336   1.973   7.273 -1.1261 -0.3967 -1.3239
   95CHL1  H15B 9456   3.316   2.160   7.259 -0.7663  1.7349  1.5706
   95CHL1   C16 9457   3.218   2.056   7.437 -0.2745  0.3684  0.6300
   95CHL1  H16A 9458   3.278   1.981   7.493  0.7045  1.2970  0.8502
   95CHL1  H16B 9459   3.221   2.151   7.493 -2.3938  0.8254  0.0773
   95CHL1   C17 9460   3.077   2.001   7.428  0.4673  0.1998  0.2751
   95CHL1   H17 9461   3.018   2.095   7.432  0.7844  0.4090 -0.0035
   95CHL1   C13 9462   3.060   1.948   7.278 -0.1152  0.4560 -0.0766
   95CHL1   C18 9463   3.121   1.803   7.272  0.6304  0.1202 -0.1033
   95CHL1  H18A 9464   3.056   1.736   7.333  0.6424  0.0173 -0.2032
   95CHL1  H18B 9465   3.121   1.758   7.171 -1.2075  2.0571 -1.0332
   95CHL1  H18C 9466   3.221   1.800   7.320  0.6567  1.0829 -0.0811
   95CHL1   C12 9467   2.922   1.946   7.216  0.3971 -0.4224 -0.9982
   95CHL1  H12A 9468   2.863   1.871   7.272  1.9612  0.0984  1.5068
   95CHL1  H12B 9469   2.874   2.043   7.240  1.4468 -0.2134  0.4173
   95CHL1   C11 9470   2.926   1.906   7.067 -0.9514 -0.3799  0.1404
   95CHL1  H11A 9471   2.978   1.809   7.056 -0.3016  0.0965 -1.2233
   95CHL1  H11B 9472   2.825   1.886   7.028 -1.0575  0.2921  0.0547
   95CHL1    C9 9473   3.013   2.010   6.992  0.0183  0.0216 -0.2742
   95CHL1    H9 9474   2.975   2.113   7.010  0.6147  0.5280 -1.7796
   95CHL1   C10 9475   3.018   1.997   6.839  0.0917 -0.2735  0.2069
   95CHL1   C19 9476   3.030   1.848   6.808  0.3706 -0.4705  0.7715
   95CHL1  H19A 9477   3.054   1.821   6.703  0.6225  0.2841  0.6289
   95CHL1  H19B 9478   3.116   1.809   6.866  0.2656 -1.4881  0.2550
   95CHL1  H19C 9479   2.940   1.793   6.842 -0.3292  1.2660  1.9154
   95CHL1    C1 9480   2.887   2.050   6.778 -0.5213 -0.1020  0.0288
   95CHL1   H1A 9481   2.810   1.975   6.806  0.3778 -1.8890 -2.0289
   95CHL1   H1B 9482   2.861   2.145   6.830  0.4127 -0.5576  1.3857
   95CHL1    C2 9483   2.879   2.067   6.625  0.0371  0.0007 -0.6233
   95CHL1   H2A 9484   2.794   2.135   6.604  0.3784  0.4372 -0.5909
   95CHL1   H2B 9485   2.871   1.969   6.574 -0.0243  0.4553 -1.5046
   95CHL1   C20 9486   3.039   1.914   7.549  0.3216  0.6766 -0.2866
   95CHL1   H20 9487   3.095   1.818   7.554 -1.7852 -0.5989  4.3655
   95CHL1   C21 9488   2.884   1.887   7.555  0.3176 -0.4758  0.0823
   95CHL1  H21A 9489   2.847   1.852   7.654 -1.6681 -1.0341 -0.8088
   95CHL1  H21B 9490   2.867   1.812   7.475 -0.7901  2.0996 -2.2568
   95CHL1  H21C 9491   2.841   1.985   7.523  1.0678 -0.5811 -1.3137
   95CHL1   C22 9492   3.080   1.977   7.684  0.0126 -0.2295  0.1088
   95CHL1  H22A 9493   3.190   1.997   7.685 -0.3325  1.9272  0.6467
   95CHL1  H22B 9494   3.028   2.069   7.719 -0.0194  0.5397 -1.8267
   95CHL1   C23 9495   3.066   1.875   7.798 -0.2878  0.3636 -0.0628
   95CHL1  H23A 9496   2.962   1.870   7.836 -0.6827  0.8810 -1.0311
   95CHL1  H23B 9497   3.088   1.771   7.763 -1.4091 -0.2677  1.0432
   95CHL1   C24 9498   3.139   1.916   7.924 -0.5845  0.4576 -0.4698
   95CHL1  H24A 9499   3.244   1.949   7.906 -0.8926  0.0224 -3.6189
   95CHL1  H24B 9500   3.083   2.004   7.962 -0.6135  0.1156  0.3002
   95CHL1   C25 9501   3.140   1.813   8.040 -0.3553 -0.0820  0.2227
   95CHL1   H25 9502   3.155   1.714   7.991 -2.2969 -1.0379  1.4467
   95CHL1   C26 9503   3.258   1.850   8.133  0.1100  0.4770  0.3478
   95CHL1  H26A 9504   3.350   1.871   8.075  0.3610  1.6198  1.1065
   95CHL1  H26B 9505   3.247   1.950   8.182 -0.0336  0.8838 -0.5051
   95CHL1  H26C 9506   3.280   1.772   8.209 -1.1722  0.6670  0.9411
   95CHL1   C27 9507   3.005   1.811   8.114  0.0963  0.0556  0.8390
   95CHL1  H27A 9508   3.013   1.748   8.205  1.7480  1.2430  1.5835
   95CHL1  H27B 9509   2.972   1.914   8.140  1.1216  0.4166  0.7795
   95CHL1  H27C 9510   2.931   1.769   8.043  3.2648 -1.4966 -1.8011
   96CHL1    C3 9511   3.122   1.214   6.770  0.2918  0.1426 -0.0321
   96CHL1    H3 9512   3.130   1.108   6.802 -0.2482 -0.2942 -1.2669
   96CHL1    O3 9513   3.117   1.216   6.629 -0.2100 -0.4681  0.5346
   96CHL1   H3' 9514   3.081   1.129   6.611 -0.7388 -0.5047  1.6955
   96CHL1    C4 9515   2.997   1.284   6.830  0.1853  0.6131 -0.0931
   96CHL1   H4A 9516   3.006   1.385   6.786  4.2087 -0.2098 -1.6029
   96CHL1   H4B 9517   2.907   1.230   6.791  0.0397  0.3784  0.5492
   96CHL1    C5 9518   3.016   1.271   6.979  0.2820 -1.7192  0.4532
   96CHL1    C6 9519   2.922   1.202   7.042  0.7648  0.1095  0.2029
   96CHL1    H6 9520   2.844   1.163   6.975 -0.5974  1.9717  0.6416
   96CHL1    C7 9521   2.928   1.184   7.192  0.2363  0.3323  0.0619
   96CHL1   H7A 9522   2.826   1.180   7.236 -0.2953  3.3748 -0.6331
   96CHL1   H7B 9523   2.981   1.088   7.209  0.5606  0.6177  0.7188
   96CHL1    C8 9524   3.012   1.290   7.264 -0.2651  0.0829 -0.6582
   96CHL1    H8 9525   2.951   1.380   7.244 -1.3679 -0.9947 -2.4052
   96CHL1   C14 9526   3.036   1.267   7.416 -0.2746  0.0436 -0.2814
   96CHL1   H14 9527   3.098   1.174   7.417  0.2559  0.3838 -0.6601
   96CHL1   C15 9528   2.918   1.215   7.503  0.6984 -0.6425 -0.2002
   96CHL1  H15A 9529   2.832   1.282   7.485 -0.3366 -2.0536 -0.6782
   96CHL1  H15B 9530   2.897   1.109   7.476 -2.9024 -0.0863 -0.0672
   96CHL1   C16 9531   2.962   1.243   7.648  0.5488  0.1730 -0.0359
   96CHL1  H16A 9532   2.886   1.301   7.705 -1.2250 -1.5686 -0.5379
   96CHL1  H16B 9533   2.978   1.142   7.693 -0.7647 -0.3521 -0.7089
   96CHL1   C17 9534   3.102   1.315   7.632 -0.3855 -0.1766 -0.5360
   96CHL1   H17 9535   3.172   1.229   7.635  0.8919  0.6902 -2.9985
   96CHL1   C13 9536   3.111   1.373   7.490 -0.0913  0.3649  0.4725
   96CHL1   C18 9537   3.029   1.500   7.488  0.8157 -0.4263  0.4391
   96CHL1  H18A 9538   2.932   1.484   7.539  0.4017  1.7522  0.3900
   96CHL1  H18B 9539   3.087   1.574   7.546  0.4167 -0.1357  0.4654
   96CHL1  H18C 9540   3.025   1.537   7.383 -1.2898 -2.4677 -0.2972
   96CHL1   C12 9541   3.252   1.379   7.419 -0.8245  0.2375  0.6109
   96CHL1  H12A 9542   3.328   1.440   7.473 -0.9604  2.4529 -1.5229
   96CHL1  H12B 9543   3.292   1.279   7.446  0.6832  1.6018  3.9586
   96CHL1   C11 9544   3.248   1.406   7.269 -0.4802  0.1874 -0.5297
   96CHL1  H11A 9545   3.211   1.510   7.257 -4.1073 -0.8186  0.6957
   96CHL1  H11B 9546   3.348   1.386   7.224 -0.9112  0.4720 -1.6457
   96CHL1    C9 9547   3.150   1.310   7.199 -0.5035 -0.5171  0.2044
   96CHL1    H9 9548   3.192   1.207   7.209 -0.5946 -0.6951 -1.0981
   96CHL1   C10 9549   3.137   1.344   7.048  0.0526  0.1285  0.7105
   96CHL1   C19 9550   3.123   1.499   7.021 -0.4171  1.3033 -0.2603
   96CHL1  H19A 9551   3.046   1.543   7.087  1.2930  4.3091 -0.0896
   96CHL1  H19B 9552   3.216   1.558   7.039 -1.2135  2.6611 -0.4480
   96CHL1  H19C 9553   3.091   1.512   6.915 -0.1273  1.1153 -0.3725
   96CHL1    C1 9554   3.267   1.299   6.972  0.3442 -0.1915  0.6680
   96CHL1   H1A 9555   3.357   1.359   6.997  0.6281  0.7768 -2.2604
   96CHL1   H1B 9556   3.286   1.193   7.000 -2.4760 -1.5710 -2.0608
   96CHL1    C2 9557   3.246   1.300   6.819 -0.2214 -0.3695  0.5588
   96CHL1   H2A 9558   3.342   1.278   6.768 -1.2354  0.2474 -1.7522
   96CHL1   H2B 9559   3.221   1.405   6.791 -1.9246 -1.1861 -1.2188
   96CHL1   C20 9560   3.138   1.397   7.751  0.2396 -0.2063  0.0581
   96CHL1   H20 9561   3.068   1.482   7.746 -0.8156 -1.1173 -2.7606
   96CHL1   C21 9562   3.283   1.446   7.748 -0.2450 -0.3821 -0.3232
   96CHL1  H21A 9563   3.302   1.489   7.848 -1.0782 -1.9007  0.5256
   96CHL1  H21B 9564   3.302   1.510   7.659 -1.2848 -1.0022 -1.0156
   96CHL1  H21C 9565   3.350   1.357   7.746  2.4528  1.5268  0.4568
   96CHL1   C22 9566   3.112   1.326   7.886  0.1857 -1.0584 -0.7444
   96CHL1  H22A 9567   3.006   1.295   7.891 -0.5062  1.1965 -0.4838
   96CHL1  H22B 9568   3.174   1.235   7.904  1.9147  0.4808  1.8660
   96CHL1   C23 9569   3.139   1.417   8.008  0.4966  0.1107 -0.8524
   96CHL1  H23A 9570   3.249   1.420   8.026  0.3203 -5.1392  3.6918
   96CHL1  H23B 9571   3.089   1.516   8.008  0.7849  0.3123  1.2325
   96CHL1   C24 9572   3.087   1.354   8.138  1.0728  0.6594 -0.7252
   96CHL1  H24A 9573   2.984   1.316   8.118  0.6210  0.3186  1.9041
   96CHL1  H24B 9574   3.151   1.269   8.167  1.3024  0.6391 -1.2821
   96CHL1   C25 9575   3.080   1.455   8.255 -0.0638 -0.8819 -0.3526
   96CHL1   H25 9576   3.015   1.540   8.225 -0.6253 -0.3614  2.0947
   96CHL1   C26 9577   3.016   1.394   8.381 -0.0849  0.0853  0.3959
   96CHL1  H26A 9578   2.912   1.363   8.358  0.2859 -1.1704  0.3149
   96CHL1  H26B 9579   3.070   1.301   8.408 -0.7691 -0.7436 -0.9909
   96CHL1  H26C 9580   3.017   1.471   8.461 -2.5558 -0.2370  0.8254
   96CHL1   C27 9581   3.221   1.502   8.290 -1.1596  0.5108  0.1734
   96CHL1  H27A 9582   3.271   1.560   8.210  0.0309  1.4197  1.5243
   96CHL1  H27B 9583   3.226   1.567   8.379 -0.3823  0.5604  0.1037
   96CHL1  H27C 9584   3.284   1.410   8.293  0.4817  1.5786 -0.1205
   97OSM      N 9585   6.763   1.480  11.461  0.1534  0.2317  0.2954
   97OSM    C15 9586   6.735   1.602  11.547 -0.1668 -0.2089 -0.4148
   97OSM   H15A 9587   6.728   1.588  11.654 -1.4994  3.5876  0.1487
   97OSM   H15B 9588   6.642   1.645  11.513 -1.3614 -0.5913  2.1883
   97OSM   H15C 9589   6.819   1.669  11.533 -1.0892  0.7048 -1.9190
   97OSM    C14 9590   6.909   1.442  11.472 -0.2217 -0.9225  0.3737
   97OSM   H14A 9591   6.940   1.366  11.402  0.1180  0.1577 -0.6904
   97OSM   H14B 9592   6.927   1.412  11.574 -0.0261  0.0777  0.6465
   97OSM   H14C 9593   6.969   1.528  11.447 -1.6245  0.3136  1.0912
   97OSM    C13 9594   6.686   1.360  11.500  0.6761  0.0614 -0.2295
   97OSM   H13A 9595   6.582   1.370  11.527  0.6779 -2.4361  1.0151
   97OSM   H13B 9596   6.730   1.329  11.594 -0.0869 -0.5634 -0.0650
   97OSM   H13C 9597   6.687   1.280  11.427  2.6678 -0.5952  0.4523
   97OSM    C12 9598   6.733   1.506  11.308  0.4233  0.0823 -1.4741
   97OSM   H12A 9599   6.772   1.603  11.280 -0.5885  0.8040 -0.4156
   97OSM   H12B 9600   6.625   1.504  11.309  0.3905 -1.1411  1.1942
   97OSM    C11 9601   6.793   1.405  11.211  0.2892  0.5964  0.0799
   97OSM   H11A 9602   6.900   1.383  11.226  0.3467 -1.0979 -2.2992
   97OSM   H11B 9603   6.785   1.444  11.107  1.4090 -1.8831 -1.0298
   97OSM      P 9604   6.763   1.152  11.166  0.1583  0.1362 -0.3670
   97OSM    O13 9605   6.843   1.102  11.278 -0.0519 -0.1709  0.1228
   97OSM    O14 9606   6.646   1.066  11.128 -0.2753 -0.7167  0.4937
   97OSM    O11 9607   6.857   1.192  11.038  0.7278  0.4680  0.0826
   97OSM    O12 9608   6.706   1.292  11.212  0.4129  0.1160 -0.2234
   97OSM    C1S 9609   6.914   1.083  10.958  1.0766 -0.7410 -0.1125
   97OSM    H1S 9610   6.942   0.994  11.018 -0.6117 -0.8991  0.4794
   97OSM    H1T 9611   7.005   1.119  10.904 -0.4116  1.8377 -1.1106
   97OSM     NF 9612   6.870   0.933  10.783 -0.3390 -0.1788 -0.0850
   97OSM    HNF 9613   6.884   0.937  10.685  0.4767 -0.2848  0.0211
   97OSM    C2S 9614   6.816   1.047  10.848 -0.0912 -0.3919  0.1128
   97OSM    H2S 9615   6.722   1.010  10.893 -1.2606 -0.1806 -2.0303
   97OSM    C3S 9616   6.786   1.172  10.766  0.1260 -0.1272  0.3257
   97OSM    H3S 9617   6.878   1.213  10.719 -0.2660  0.1332 -0.2252
   97OSM     O3 9618   6.739   1.288  10.836 -0.3659  0.2518 -0.1464
   97OSM    HO3 9619   6.756   1.265  10.928  2.6489 -0.3948 -0.7589
   97OSM    C4S 9620   6.686   1.128  10.669  0.1348 -0.4167 -0.1824
   97OSM    H4S 9621   6.587   1.098  10.705 -0.1156 -0.5011 -0.9193
   97OSM    C5S 9622   6.693   1.161  10.544 -0.0209 -0.1387  0.3683
   97OSM    H5S 9623   6.777   1.226  10.512 -0.2177 -0.5712 -1.1338
   97OSM    C6S 9624   6.601   1.124  10.431  0.1411 -0.2419 -0.5563
   97OSM    H6S 9625   6.558   1.213  10.380  0.4693  0.3784  0.2260
   97OSM    H6T 9626   6.512   1.076  10.475 -2.4630  2.2936 -2.7058
   97OSM    C7S 9627   6.671   1.060  10.306  0.2013 -0.3364 -0.7944
   97OSM    H7S 9628   6.749   0.988  10.340  0.1203 -0.7109 -1.3897
   97OSM    H7T 9629   6.724   1.142  10.253  0.2076 -1.1221 -2.0446
   97OSM    C8S 9630   6.579   1.004  10.193 -0.7455  0.0275 -0.3717
   97OSM    H8S 9631   6.506   1.083  10.165 -1.1561  0.6754  2.2495
   97OSM    H8T 9632   6.526   0.912  10.227  1.1405 -1.5971 -1.5796
   97OSM    C9S 9633   6.648   0.969  10.056 -0.7413  0.0076 -1.2441
   97OSM    H9S 9634   6.670   0.861  10.040  0.7932  0.2410 -0.9212
   97OSM    H9T 9635   6.748   1.018  10.055 -0.6321 -0.2140 -1.3332
   97OSM   C10S 9636   6.577   1.019   9.923  0.1007  0.1192  0.2010
   97OSM   H10S 9637   6.566   1.130   9.921  2.6114  0.4483 -2.4549
   97OSM   H10T 9638   6.484   0.959   9.911  1.8308 -2.7584  0.1219
   97OSM   C11S 9639   6.653   0.972   9.793  0.5007  0.5334  0.1643
   97OSM   H11S 9640   6.633   0.863   9.789 -3.7484  1.0701  1.7652
   97OSM   H11T 9641   6.758   0.990   9.825  0.1320  1.5124  0.8572
   97OSM   C12S 9642   6.615   1.039   9.661  0.6546 -0.0711  0.0263
   97OSM   H12S 9643   6.607   1.149   9.673 -0.7183 -0.1621  0.1042
   97OSM   H12T 9644   6.511   1.010   9.634  0.6629  0.6323 -0.8159
   97OSM   C13S 9645   6.707   0.991   9.554 -0.5649  0.1791  0.2250
   97OSM   H13S 9646   6.754   0.890   9.562 -0.8791 -0.0833 -0.9661
   97OSM   H13T 9647   6.796   1.058   9.552 -0.6608  0.3507  1.2634
   97OSM   C14S 9648   6.654   1.003   9.412 -0.4567 -0.2355  0.6418
   97OSM   H14S 9649   6.612   1.105   9.400 -1.8270 -0.5478  2.3356
   97OSM   H14T 9650   6.563   0.940   9.413  0.7241 -2.0144  1.7071
   97OSM   C15S 9651   6.754   0.980   9.297  0.0955  0.6127  0.3471
   97OSM   H15S 9652   6.810   0.893   9.335  1.2148  0.4454 -1.5583
   97OSM   H15T 9653   6.821   1.067   9.279 -0.5578  0.4907 -3.6291
   97OSM   C16S 9654   6.674   0.943   9.168 -0.4880 -0.1370 -1.0569
   97OSM   H16S 9655   6.676   1.031   9.101 -0.0267  0.1819 -0.6404
   97OSM   H16T 9656   6.569   0.916   9.192 -0.3202 -1.9067 -2.1525
   97OSM   C17S 9657   6.724   0.816   9.108 -0.5649  0.4619  0.8352
   97OSM   H17S 9658   6.725   0.740   9.189 -0.3414  0.2139  0.6029
   97OSM   H17T 9659   6.827   0.835   9.072 -0.7116 -0.5093 -0.1641
   97OSM   C18S 9660   6.628   0.758   9.006 -0.0694 -0.2641  0.0217
   97OSM   H18S 9661   6.664   0.661   8.967  0.1542  0.7510 -2.4259
   97OSM   H18T 9662   6.610   0.811   8.910 -0.2047 -1.7956 -0.8217
   97OSM   H18U 9663   6.528   0.732   9.046 -0.6222  0.2808 -0.9865
   97OSM    C1F 9664   6.887   0.816  10.835 -0.6270  0.4370  0.2083
   97OSM     OF 9665   6.867   0.787  10.951 -0.3285 -0.3179 -0.1665
   97OSM    C2F 9666   6.928   0.708  10.739  0.8382 -1.2539  0.3451
   97OSM    H2F 9667   7.016   0.653  10.779  3.1848 -0.8524 -3.7266
   97OSM    H2G 9668   6.969   0.754  10.646 -0.3543  1.4056  1.0399
   97OSM    C3F 9669   6.823   0.601  10.710 -0.6479  0.2066 -0.9508
   97OSM    H3F 9670   6.781   0.566  10.807  0.3384  1.0313 -0.1940
   97OSM    H3G 9671   6.878   0.520  10.657  1.1854  0.5260  0.3354
   97OSM    C4F 9672   6.699   0.638  10.626 -0.0937 -0.0028 -0.1911
   97OSM    H4F 9673   6.642   0.704  10.694  0.3435  1.2582 -1.0152
   97OSM    H4G 9674   6.649   0.542  10.600  0.7288 -0.4003 -0.3711
   97OSM    C5F 9675   6.720   0.717  10.493  0.2019 -0.4501 -0.1508
   97OSM    H5F 9676   6.771   0.810  10.525 -1.3252  0.1488  0.6862
   97OSM    H5G 9677   6.624   0.756  10.451  0.2084 -1.5021 -1.1937
   97OSM    C6F 9678   6.792   0.650  10.373 -0.0081  0.4028 -0.0338
   97OSM    H6F 9679   6.871   0.581  10.408 -0.8479 -0.5493  0.0216
   97OSM    H6G 9680   6.841   0.726  10.309  2.2915  0.5136  1.7141
   97OSM    C7F 9681   6.702   0.563  10.285 -0.1553  0.2734 -0.0471
   97OSM    H7F 9682   6.644   0.633  10.222  0.9123  0.6250 -0.6678
   97OSM    H7G 9683   6.626   0.516  10.351 -0.7245  0.5254 -0.5163
   97OSM    C8F 9684   6.781   0.458  10.203  0.0377 -0.0236  0.0752
   97OSM    H8F 9685   6.703   0.395  10.155 -0.6925  0.7709  0.1958
   97OSM    H8G 9686   6.841   0.399  10.275 -1.5239 -2.6879 -0.6471
   97OSM    C9F 9687   6.851   0.545  10.106  0.2891  0.3611 -0.0339
   97OSM    H9F 9688   6.950   0.585  10.133  0.5244  1.5779 -2.4702
   97OSM   C10F 9689   6.818   0.562   9.978 -0.6113 -0.8347 -0.2758
   97OSM   H10F 9690   6.874   0.638   9.922  2.5197 -1.3466  1.8944
   97OSM   C11F 9691   6.704   0.508   9.909  0.3898 -0.7305  0.4941
   97OSM   H11F 9692   6.618   0.578   9.902  2.2929  1.6302 -0.5970
   97OSM   H11G 9693   6.667   0.418   9.963 -2.0411 -0.2383 -0.2103
   97OSM   C12F 9694   6.746   0.454   9.767  0.8438  0.0105 -0.4428
   97OSM   H12F 9695   6.669   0.382   9.733 -1.7421  1.7796  1.3064
   97OSM   H12G 9696   6.838   0.392   9.768  0.3507 -0.7336 -0.4524
   97OSM   C13F 9697   6.783   0.564   9.665 -0.0329  0.5561  0.0782
   97OSM   H13F 9698   6.891   0.585   9.657  0.3473 -1.1239  0.2581
   97OSM   H13G 9699   6.729   0.660   9.679 -0.9880  0.2824 -1.5070
   97OSM   C14F 9700   6.753   0.500   9.526 -0.2599 -0.5752 -0.2105
   97OSM   H14F 9701   6.644   0.512   9.508 -0.7568 -2.3415  1.3551
   97OSM   H14G 9702   6.763   0.392   9.549 -3.2053 -0.2246  4.1140
   97OSM   C15F 9703   6.836   0.550   9.409  0.3448 -0.6621  0.5447
   97OSM   H15F 9704   6.935   0.586   9.443 -0.3562 -1.1793  3.3700
   97OSM   H15G 9705   6.784   0.644   9.379  0.9897 -0.1622  0.9580
   97OSM   C16F 9706   6.839   0.459   9.284  0.9917 -0.3382  0.5915
   97OSM   H16F 9707   6.742   0.446   9.232  1.6106  0.5009 -0.8441
   97OSM   H16G 9708   6.868   0.355   9.311  1.5994  0.2125  2.1362
   97OSM   C17F 9709   6.949   0.502   9.180  0.1075 -0.3652 -0.3177
   97OSM   H17F 9710   7.050   0.483   9.223  0.4756 -1.0252 -1.4288
   97OSM   H17G 9711   6.932   0.611   9.170 -1.4708 -0.6914 -1.4595
   97OSM   C18F 9712   6.928   0.444   9.039 -0.0405 -0.8148  0.2662
   97OSM   H18F 9713   6.834   0.476   8.988  1.1050 -0.0829 -1.4853
   97OSM   H18G 9714   6.922   0.335   9.062 -0.7685 -0.8395  0.0040
   97OSM   H18H 9715   7.011   0.484   8.977  0.3832  1.3779  2.0998
   98OSM      N 9716   5.661   2.029  11.137 -0.5139 -0.5120  0.7173
   98OSM    C15 9717   5.536   2.008  11.067  0.3941  0.1816  0.5943
   98OSM   H15A 9718   5.519   2.087  10.996  0.5530  0.4851  0.8905
   98OSM   H15B 9719   5.449   1.999  11.131  0.5244  1.8307  1.0459
   98OSM   H15C 9720   5.536   1.918  11.007  0.9289  1.1242 -0.8768
   98OSM    C14 9721   5.644   2.155  11.222 -0.1802 -0.4626 -0.1016
   98OSM   H14A 9722   5.563   2.141  11.291  1.3173 -3.3509  1.2594
   98OSM   H14B 9723   5.627   2.240  11.157  2.5510  1.1187  1.0451
   98OSM   H14C 9724   5.736   2.190  11.267 -0.0606  0.3079 -0.9086
   98OSM    C13 9725   5.695   1.912  11.221  0.3815  0.0695  0.2186
   98OSM   H13A 9726   5.623   1.880  11.296  0.7054  1.1913  1.0411
   98OSM   H13B 9727   5.777   1.943  11.284 -0.9774  1.3196  1.4321
   98OSM   H13C 9728   5.727   1.826  11.164  0.8279 -2.2500  3.6608
   98OSM    C12 9729   5.763   2.049  11.021  0.0020 -0.4455 -0.7853
   98OSM   H12A 9730   5.862   2.078  11.053 -0.9779  0.1361  2.0025
   98OSM   H12B 9731   5.732   2.139  10.969 -2.0469 -0.8069 -0.2805
   98OSM    C11 9732   5.776   1.935  10.925  0.0047 -0.1724  0.4709
   98OSM   H11A 9733   5.820   1.970  10.830 -0.7692 -0.8329 -0.1536
   98OSM   H11B 9734   5.675   1.909  10.886 -0.2817  0.8898  0.4844
   98OSM      P 9735   5.974   1.783  10.985  0.0734 -0.7253  0.1101
   98OSM    O13 9736   6.045   1.904  10.936  0.0158  0.0718 -0.3647
   98OSM    O14 9737   6.006   1.734  11.116  0.6501  0.6821 -0.3368
   98OSM    O11 9738   5.981   1.666  10.886 -0.2153  0.3347 -0.1769
   98OSM    O12 9739   5.820   1.818  10.989  0.0400  0.4267  0.0532
   98OSM    C1S 9740   5.945   1.694  10.749  0.4733 -0.4096  0.6959
   98OSM    H1S 9741   5.965   1.797  10.715  0.9932 -0.0343  2.0751
   98OSM    H1T 9742   5.836   1.682  10.731  0.9804 -1.7952 -1.9306
   98OSM     NF 9743   6.015   1.648  10.511  0.2157 -0.0288  0.0973
   98OSM    HNF 9744   5.951   1.603  10.449 -0.9929  1.3258  0.3259
   98OSM    C2S 9745   6.015   1.601  10.644 -0.3160 -0.3783 -0.1657
   98OSM    H2S 9746   6.119   1.591  10.682 -0.9080  0.1182  1.7144
   98OSM    C3S 9747   5.963   1.462  10.660 -0.1187  0.1881  0.2493
   98OSM    H3S 9748   5.856   1.472  10.635 -0.2904 -0.4526  0.6945
   98OSM     O3 9749   5.974   1.407  10.788  0.7375  0.5460  0.2214
   98OSM    HO3 9750   6.000   1.480  10.845  2.5503  0.3659 -0.3287
   98OSM    C4S 9751   6.033   1.373  10.559  0.1188 -0.4516  0.1920
   98OSM    H4S 9752   5.984   1.400  10.464 -1.2584  1.7575  1.4427
   98OSM    C5S 9753   6.138   1.288  10.572  0.5407 -0.1208  0.0474
   98OSM    H5S 9754   6.181   1.270  10.671 -2.2537 -4.0918  0.7739
   98OSM    C6S 9755   6.203   1.209  10.459  0.0393  0.7841 -0.3157
   98OSM    H6S 9756   6.236   1.108  10.492  0.4903  0.2440 -2.2856
   98OSM    H6T 9757   6.300   1.254  10.432 -0.6671  1.8600 -1.1392
   98OSM    C7S 9758   6.129   1.181  10.331  0.1015  0.0997  0.3226
   98OSM    H7S 9759   6.114   1.279  10.282 -3.8677  0.1084  1.2298
   98OSM    H7T 9760   6.033   1.131  10.354 -0.9739  1.6005 -0.7060
   98OSM    C8S 9761   6.207   1.079  10.248  0.3863  0.4032 -0.2875
   98OSM    H8S 9762   6.200   0.984  10.307 -1.4305  1.3811  1.1951
   98OSM    H8T 9763   6.311   1.106  10.223  0.8434  0.5888  1.6437
   98OSM    C9S 9764   6.162   1.061  10.104  0.1700  0.5949  0.2711
   98OSM    H9S 9765   6.052   1.044  10.100  0.3186 -0.3061 -0.1042
   98OSM    H9T 9766   6.209   0.972  10.058 -1.4664  0.3634 -1.0317
   98OSM   C10S 9767   6.189   1.171   9.996 -0.6978 -1.0764 -1.1444
   98OSM   H10S 9768   6.298   1.188  10.003 -0.5651 -1.9935 -0.7285
   98OSM   H10T 9769   6.150   1.272  10.018 -0.0433 -0.9332 -0.6282
   98OSM   C11S 9770   6.152   1.129   9.855 -0.1431 -0.6341  0.2135
   98OSM   H11S 9771   6.044   1.156   9.847 -0.1421 -0.4856  0.6653
   98OSM   H11T 9772   6.149   1.018   9.848 -0.9921 -0.5837 -0.4021
   98OSM   C12S 9773   6.240   1.177   9.735  0.0471  0.2695 -0.0215
   98OSM   H12S 9774   6.344   1.137   9.740 -0.2902 -0.4246  2.2935
   98OSM   H12T 9775   6.228   1.287   9.721  1.7113  0.2188 -2.4469
   98OSM   C13S 9776   6.175   1.113   9.609 -0.2532 -1.2280  0.4054
   98OSM   H13S 9777   6.072   1.153   9.599  1.0209  2.7346  1.5300
   98OSM   H13T 9778   6.175   1.002   9.617  1.2379 -1.1603  2.0542
   98OSM   C14S 9779   6.244   1.155   9.472 -0.2367  0.2152 -0.1348
   98OSM   H14S 9780   6.349   1.120   9.472  0.3176  1.7660  1.0178
   98OSM   H14T 9781   6.243   1.264   9.451  0.1840  0.1448 -0.5301
   98OSM   C15S 9782   6.167   1.083   9.363  0.3407 -0.6186 -0.2691
   98OSM   H15S 9783   6.065   1.081   9.406  1.0400 -1.0783  1.4779
   98OSM   H15T 9784   6.206   0.979   9.357 -0.5546 -1.1335  1.8256
   98OSM   C16S 9785   6.180   1.151   9.228  0.0237  0.1066  0.0949
   98OSM   H16S 9786   6.136   1.253   9.219  1.3110  0.6598 -0.1182
   98OSM   H16T 9787   6.132   1.084   9.154  0.3649 -0.1885  0.1381
   98OSM   C17S 9788   6.330   1.170   9.193  0.2846 -0.3808 -0.2731
   98OSM   H17S 9789   6.380   1.072   9.209  0.5769 -0.0767  0.7876
   98OSM   H17T 9790   6.369   1.251   9.258 -1.4439 -1.2247  1.9576
   98OSM   C18S 9791   6.342   1.225   9.051  0.4737 -0.8382 -0.0573
   98OSM   H18S 9792   6.304   1.149   8.980 -2.3320  0.1308  0.2669
   98OSM   H18T 9793   6.446   1.259   9.034  0.4960 -0.6447  0.4407
   98OSM   H18U 9794   6.280   1.316   9.039 -1.7912 -2.5464 -2.7589
   98OSM    C1F 9795   6.070   1.761  10.475 -0.3582 -0.8169  0.0835
   98OSM     OF 9796   6.156   1.812  10.548 -0.3718 -0.1101  0.5276
   98OSM    C2F 9797   6.022   1.837  10.356 -0.3728 -0.8713 -0.4981
   98OSM    H2F 9798   5.968   1.926  10.394  0.2405 -0.2203 -1.1237
   98OSM    H2G 9799   5.946   1.778  10.300 -0.1422 -1.4584 -0.1984
   98OSM    C3F 9800   6.132   1.876  10.256  0.1172  0.1630  0.0948
   98OSM    H3F 9801   6.196   1.789  10.232  1.2592  0.4936  1.7339
   98OSM    H3G 9802   6.190   1.959  10.303 -0.2404  0.7597 -0.4963
   98OSM    C4F 9803   6.080   1.929  10.121  0.5786  0.3909 -1.3608
   98OSM    H4F 9804   6.012   2.016  10.131  0.0854 -0.1117 -0.1046
   98OSM    H4G 9805   6.020   1.841  10.089  0.4583 -0.2947  0.6239
   98OSM    C5F 9806   6.179   1.940   9.999  0.2637 -0.2341 -0.5137
   98OSM    H5F 9807   6.250   1.855  10.001 -0.5822 -0.9653 -0.7839
   98OSM    H5G 9808   6.238   2.034  10.008 -0.4877  0.1753  0.3021
   98OSM    C6F 9809   6.111   1.936   9.862 -0.0610 -0.0337 -0.8099
   98OSM    H6F 9810   6.040   2.021   9.856 -0.9069 -0.7381 -1.0954
   98OSM    H6G 9811   6.038   1.852   9.859 -0.8014  0.6137 -3.0417
   98OSM    C7F 9812   6.213   1.952   9.749  0.0753 -0.0361 -0.2654
   98OSM    H7F 9813   6.281   1.864   9.757 -0.9215 -0.8570 -0.7268
   98OSM    H7G 9814   6.279   2.038   9.778 -0.0192 -0.3276  0.8728
   98OSM    C8F 9815   6.151   1.970   9.609 -0.0317 -0.3979 -0.4791
   98OSM    H8F 9816   6.219   2.024   9.540 -0.5406  0.4607 -0.3323
   98OSM    H8G 9817   6.065   2.040   9.604  0.2305 -0.0792 -0.5689
   98OSM    C9F 9818   6.107   1.838   9.552  0.2336  0.0435  0.9620
   98OSM    H9F 9819   6.114   1.751   9.619  0.1504  0.9538  2.1928
   98OSM   C10F 9820   6.045   1.814   9.435  0.2301 -0.1414 -0.5363
   98OSM   H10F 9821   6.018   1.709   9.420 -1.0175  0.3366 -1.8451
   98OSM   C11F 9822   6.018   1.904   9.320  0.0491 -0.4140 -0.6059
   98OSM   H11F 9823   6.067   2.004   9.321 -2.0520  0.6610 -0.2180
   98OSM   H11G 9824   5.909   1.923   9.314 -0.1590 -1.6773 -0.9522
   98OSM   C12F 9825   6.044   1.827   9.190  0.0117  0.2366  0.2654
   98OSM   H12F 9826   5.996   1.727   9.189 -0.6616  0.5493 -0.4471
   98OSM   H12G 9827   6.153   1.809   9.183 -0.2114 -1.3383  0.6325
   98OSM   C13F 9828   5.992   1.913   9.074  0.0965 -0.1835 -0.2362
   98OSM   H13F 9829   6.049   2.008   9.077  1.9804 -1.2600 -0.7424
   98OSM   H13G 9830   5.884   1.942   9.079  0.0001 -0.7309  1.7356
   98OSM   C14F 9831   6.017   1.848   8.940 -0.0435 -0.6170  0.4620
   98OSM   H14F 9832   5.953   1.758   8.934 -2.7212  1.0076  2.5570
   98OSM   H14G 9833   6.127   1.831   8.935  0.8002  3.8536 -0.6230
   98OSM   C15F 9834   5.992   1.937   8.813  0.4224 -0.5053 -0.5137
   98OSM   H15F 9835   6.053   2.029   8.821  0.1421 -0.3074 -0.6158
   98OSM   H15G 9836   5.881   1.949   8.816  0.6992  3.1433  0.0280
   98OSM   C16F 9837   6.019   1.859   8.689  0.8241 -0.4927  0.3150
   98OSM   H16F 9838   5.954   1.769   8.700  1.2733 -0.8688 -0.0953
   98OSM   H16G 9839   6.123   1.823   8.693  0.5871 -1.0639  2.9480
   98OSM   C17F 9840   5.992   1.919   8.548 -0.1026  0.7599 -0.6623
   98OSM   H17F 9841   6.040   1.854   8.472 -1.1834 -0.6505 -0.1763
   98OSM   H17G 9842   6.041   2.019   8.543  2.0620 -0.2320 -0.1767
   98OSM   C18F 9843   5.848   1.930   8.520  0.4028  0.7740  0.2345
   98OSM   H18F 9844   5.802   1.831   8.501  1.5825  0.4181 -0.8933
   98OSM   H18G 9845   5.837   1.992   8.428  1.3491 -0.5996 -0.8385
   98OSM   H18H 9846   5.789   1.980   8.601 -0.8573  0.0544 -0.2009
   99OSM      N 9847   2.069   2.048  11.155 -0.0378  0.3826 -0.2814
   99OSM    C15 9848   2.133   1.970  11.270 -0.4997  0.1412  0.2872
   99OSM   H15A 9849   2.210   1.905  11.229 -1.1704 -0.0861 -0.6449
   99OSM   H15B 9850   2.067   1.902  11.322 -0.3631 -0.7919 -0.7062
   99OSM   H15C 9851   2.189   2.026  11.342 -0.1869 -1.4063  1.3091
   99OSM    C14 9852   1.984   1.957  11.066  0.0657  0.1656  0.4575
   99OSM   H14A 9853   2.050   1.888  11.015 -0.3560  0.8830 -1.1290
   99OSM   H14B 9854   1.934   2.015  10.990 -0.9413 -0.6562  0.4830
   99OSM   H14C 9855   1.913   1.913  11.134 -1.5348  3.6715  1.2761
   99OSM    C13 9856   1.983   2.169  11.196 -0.0716  0.7389 -0.4135
   99OSM   H13A 9857   1.946   2.207  11.102  0.9779 -1.1121 -1.6437
   99OSM   H13B 9858   2.035   2.235  11.264  0.4835  0.4083 -0.5134
   99OSM   H13C 9859   1.898   2.137  11.255 -0.8890  2.5906 -0.5221
   99OSM    C12 9860   2.184   2.101  11.060  0.2849  0.2873 -0.4512
   99OSM   H12A 9861   2.240   2.010  11.045  0.5560 -0.0833  2.3481
   99OSM   H12B 9862   2.255   2.162  11.114 -0.0968 -0.0599  0.4617
   99OSM    C11 9863   2.143   2.169  10.925 -0.6858  0.5606 -0.1268
   99OSM   H11A 9864   2.098   2.085  10.867 -0.6811 -0.2099  0.9517
   99OSM   H11B 9865   2.238   2.197  10.873 -2.1857  3.1781 -1.6427
   99OSM      P 9866   2.114   2.428  10.934  0.3759  0.1140 -0.4473
   99OSM    O13 9867   1.994   2.511  10.978  0.0152  0.1535  0.0451
   99OSM    O14 9868   2.234   2.438  11.021  0.7720  0.2221  0.3756
   99OSM    O11 9869   2.164   2.467  10.788 -0.4181  0.7088  0.4267
   99OSM    O12 9870   2.060   2.282  10.932 -0.2727  0.2234 -0.2840
   99OSM    C1S 9871   2.081   2.466  10.673  0.1371 -0.1782 -0.5842
   99OSM    H1S 9872   2.019   2.558  10.684  1.7360  0.7356  1.6078
   99OSM    H1T 9873   2.007   2.383  10.674 -0.5368  0.4103 -1.0831
   99OSM     NF 9874   2.070   2.483  10.439  0.3240  0.0871  0.1342
   99OSM    HNF 9875   2.029   2.405  10.392  2.6590 -1.1219 -0.0713
   99OSM    C2S 9876   2.161   2.450  10.547  0.1249  0.1579 -0.4815
   99OSM    H2S 9877   2.248   2.519  10.545 -0.9241  1.6398  1.4065
   99OSM    C3S 9878   2.211   2.309  10.537 -0.2758  0.3419  0.0755
   99OSM    H3S 9879   2.135   2.230  10.556  0.4042 -0.7315 -1.4223
   99OSM     O3 9880   2.302   2.283  10.641 -0.1233  0.1153  0.4721
   99OSM    HO3 9881   2.268   2.324  10.721  0.6599  0.5463  0.5926
   99OSM    C4S 9882   2.270   2.277  10.396  0.4840  0.1880 -0.2091
   99OSM    H4S 9883   2.310   2.363  10.340 -0.6719  0.6881 -0.2912
   99OSM    C5S 9884   2.250   2.172  10.318  0.9893 -0.0186  0.1923
   99OSM    H5S 9885   2.181   2.091  10.348  0.6812  0.1874  0.0422
   99OSM    C6S 9886   2.301   2.169  10.180  1.2392  0.0254 -0.2365
   99OSM    H6S 9887   2.388   2.236  10.163  1.6544 -1.0359 -2.7334
   99OSM    H6T 9888   2.225   2.196  10.103  0.2469 -0.2553  0.6224
   99OSM    C7S 9889   2.345   2.021  10.146 -0.3663 -0.5198 -0.7221
   99OSM    H7S 9890   2.262   1.956  10.182  0.3030 -0.6023  0.7242
   99OSM    H7T 9891   2.431   2.002  10.213  1.4693  0.5579 -2.6640
   99OSM    C8S 9892   2.374   1.990   9.999  0.6532  0.0425 -0.6557
   99OSM    H8S 9893   2.394   1.882   9.984 -2.0419 -1.0098  2.2587
   99OSM    H8T 9894   2.472   2.037   9.975  1.2808 -1.3918 -0.9958
   99OSM    C9S 9895   2.255   2.024   9.898 -0.3931 -0.7435 -0.3772
   99OSM    H9S 9896   2.235   2.133   9.893  2.0386 -0.2295 -0.5591
   99OSM    H9T 9897   2.168   1.972   9.943  0.2613 -0.4474  1.2928
   99OSM   C10S 9898   2.286   1.979   9.753 -0.3539 -0.4098 -0.3572
   99OSM   H10S 9899   2.250   1.874   9.755 -1.7559  0.0590  0.2200
   99OSM   H10T 9900   2.395   1.961   9.739 -0.1124 -0.6900  1.5987
   99OSM   C11S 9901   2.203   2.054   9.644  0.1648 -0.2466  0.5123
   99OSM   H11S 9902   2.234   2.161   9.643 -1.5220  0.2786 -1.4231
   99OSM   H11T 9903   2.094   2.054   9.667 -0.7052  0.9225 -3.0301
   99OSM   C12S 9904   2.232   1.985   9.506  0.2989 -1.0372 -0.3168
   99OSM   H12S 9905   2.341   1.991   9.485  0.4057  0.0717  0.4273
   99OSM   H12T 9906   2.218   1.875   9.510 -0.4361 -0.9119  1.4634
   99OSM   C13S 9907   2.158   2.033   9.375  0.1510  0.0895  0.4240
   99OSM   H13S 9908   2.207   2.119   9.324  0.4613 -0.4286 -0.1736
   99OSM   H13T 9909   2.052   2.056   9.399 -0.2915 -0.9906 -0.4166
   99OSM   C14S 9910   2.162   1.925   9.263  0.1767  0.6233 -0.6156
   99OSM   H14S 9911   2.113   1.836   9.308  1.0785  0.9096  1.0266
   99OSM   H14T 9912   2.267   1.892   9.249 -0.4010 -0.6365 -2.3228
   99OSM   C15S 9913   2.102   1.955   9.123  0.3594  0.0156 -1.2354
   99OSM   H15S 9914   2.169   2.035   9.084  0.5880 -0.0124 -0.9051
   99OSM   H15T 9915   1.999   1.993   9.141 -0.3573 -1.8751 -1.0853
   99OSM   C16S 9916   2.114   1.842   9.015 -0.6815 -0.0613  0.1213
   99OSM   H16S 9917   2.071   1.746   9.053 -1.6786 -0.5816 -2.1634
   99OSM   H16T 9918   2.221   1.816   9.001 -0.7738 -0.5365  0.2682
   99OSM   C17S 9919   2.061   1.881   8.884  0.3315  0.4597  0.3693
   99OSM   H17S 9920   2.129   1.956   8.837 -1.5909  2.1485  0.1118
   99OSM   H17T 9921   1.961   1.926   8.903  0.3898 -0.3846  3.0834
   99OSM   C18S 9922   2.056   1.766   8.787 -0.2995  0.0919  0.2166
   99OSM   H18S 9923   1.983   1.695   8.834 -1.5141  0.8453 -0.4690
   99OSM   H18T 9924   2.153   1.722   8.757 -0.5311 -2.3918  2.5931
   99OSM   H18U 9925   2.010   1.791   8.689  0.9569 -0.3174 -0.4910
   99OSM    C1F 9926   2.031   2.607  10.415  0.1442 -0.1288  0.4122
   99OSM     OF 9927   2.048   2.707  10.487 -0.4733 -0.1487 -0.7112
   99OSM    C2F 9928   1.943   2.620  10.290  0.4887 -0.6690 -0.3054
   99OSM    H2F 9929   1.853   2.667  10.335  1.2730 -0.7138  1.3852
   99OSM    H2G 9930   1.918   2.521  10.248 -2.3132  0.3950 -1.4003
   99OSM    C3F 9931   1.999   2.716  10.181 -0.4138 -0.2231 -0.2459
   99OSM    H3F 9932   1.922   2.734  10.102 -1.7153  0.9210  1.2196
   99OSM    H3G 9933   2.029   2.807  10.236  0.0923 -0.1130 -0.6979
   99OSM    C4F 9934   2.131   2.674  10.117 -0.7875 -0.1032  0.2991
   99OSM    H4F 9935   2.196   2.644  10.202 -0.1951 -0.6179 -0.3130
   99OSM    H4G 9936   2.181   2.761  10.071  1.9297 -2.6622 -2.0167
   99OSM    C5F 9937   2.134   2.553  10.018 -0.6947 -0.9506  0.0877
   99OSM    H5F 9938   2.084   2.465  10.064 -1.2275 -1.0348 -0.6338
   99OSM    H5G 9939   2.240   2.527  10.000 -0.7895 -2.3881  1.3805
   99OSM    C6F 9940   2.067   2.588   9.891  0.4033  0.1567  0.3823
   99OSM    H6F 9941   2.105   2.686   9.856 -2.0317  0.7107 -0.9137
   99OSM    H6G 9942   1.957   2.593   9.898  0.1081 -1.6376 -1.7778
   99OSM    C7F 9943   2.098   2.481   9.788 -0.5143 -0.4881  0.2049
   99OSM    H7F 9944   2.097   2.380   9.835 -0.6992 -1.1381 -1.1518
   99OSM    H7G 9945   2.198   2.509   9.747 -0.4139  1.5840  1.7193
   99OSM    C8F 9946   1.994   2.483   9.679 -0.4706  0.2998 -0.3337
   99OSM    H8F 9947   1.985   2.588   9.642 -0.4385  1.0776  1.7761
   99OSM    H8G 9948   1.897   2.444   9.718 -1.2013  0.6932 -1.6633
   99OSM    C9F 9949   2.042   2.392   9.564  0.9165 -0.3320 -0.6576
   99OSM    H9F 9950   2.151   2.392   9.550  0.9861 -0.1984 -0.1453
   99OSM   C10F 9951   1.975   2.300   9.496  0.0236 -0.9222 -0.0520
   99OSM   H10F 9952   2.023   2.265   9.403  1.0337  2.1182 -0.8025
   99OSM   C11F 9953   1.827   2.270   9.504  0.3156 -0.6944 -0.0523
   99OSM   H11F 9954   1.771   2.331   9.578  1.5676  2.0913 -1.2316
   99OSM   H11G 9955   1.825   2.166   9.541 -0.9246 -0.5967  0.1843
   99OSM   C12F 9956   1.752   2.289   9.370  0.2829 -0.2034  0.0526
   99OSM   H12F 9957   1.792   2.366   9.301 -1.2811 -1.3896 -2.3187
   99OSM   H12G 9958   1.647   2.322   9.390  0.5163 -0.5745  2.1154
   99OSM   C13F 9959   1.747   2.160   9.284  0.4414 -0.3623 -0.4224
   99OSM   H13F 9960   1.701   2.078   9.343 -0.7014  0.3990 -0.2205
   99OSM   H13G 9961   1.851   2.135   9.255 -0.1600 -0.4370 -2.6937
   99OSM   C14F 9962   1.668   2.169   9.147  0.4756  0.0266 -0.0084
   99OSM   H14F 9963   1.711   2.230   9.065  0.4423 -1.2514 -1.0015
   99OSM   H14G 9964   1.566   2.211   9.160  0.2736 -0.7885  1.2674
   99OSM   C15F 9965   1.634   2.034   9.080  0.3074  0.2419  0.4826
   99OSM   H15F 9966   1.563   1.985   9.149 -0.8886  0.5070 -0.5321
   99OSM   H15G 9967   1.723   1.968   9.083  0.3186  0.1561 -0.9042
   99OSM   C16F 9968   1.589   2.034   8.936  0.3349 -0.0026 -0.1461
   99OSM   H16F 9969   1.595   1.928   8.903  1.8104 -0.5796  1.7969
   99OSM   H16G 9970   1.653   2.095   8.868 -1.3307  0.8732 -0.9947
   99OSM   C17F 9971   1.448   2.104   8.922  0.0188  0.6060 -0.3300
   99OSM   H17F 9972   1.471   2.206   8.960 -1.0179  0.4645  0.7123
   99OSM   H17G 9973   1.377   2.052   8.990  0.6736 -0.9694 -0.8015
   99OSM   C18F 9974   1.397   2.109   8.775  0.2168  0.3875 -0.8052
   99OSM   H18F 9975   1.454   2.189   8.724  0.8361 -0.4503 -1.4642
   99OSM   H18G 9976   1.290   2.139   8.773 -0.1574 -0.5582  1.7866
   99OSM   H18H 9977   1.407   2.014   8.717 -1.9249 -0.6456  0.3701
  100OSM      N 9978   5.191   3.531  11.104 -0.4323 -0.0448 -0.0262
  100OSM    C15 9979   5.068   3.544  11.191 -0.9141 -0.3075 -0.2228
  100OSM   H15A 9980   5.096   3.542  11.295  0.0407  2.3277 -0.3454
  100OSM   H15B 9981   5.002   3.463  11.166 -0.5731  0.2063 -3.1681
  100OSM   H15C 9982   5.012   3.633  11.168 -1.5011 -1.4062 -3.5969
  100OSM    C14 9983   5.275   3.660  11.118  0.1490 -0.3637  0.1396
  100OSM   H14A 9984   5.313   3.679  11.218  2.5283 -0.1557 -0.7405
  100OSM   H14B 9985   5.225   3.750  11.085 -1.3262 -0.7272  1.3030
  100OSM   H14C 9986   5.366   3.645  11.061 -0.8421  0.9664 -1.9114
  100OSM    C13 9987   5.276   3.417  11.147 -0.5380  0.4362 -0.1936
  100OSM   H13A 9988   5.230   3.319  11.150  1.5366 -0.6280 -0.5613
  100OSM   H13B 9989   5.334   3.427  11.238 -1.4509  0.1838  0.4312
  100OSM   H13C 9990   5.347   3.395  11.068 -0.3226 -0.5736  0.2530
  100OSM    C12 9991   5.140   3.521  10.961  0.1127 -0.2351 -0.3447
  100OSM   H12A 9992   5.084   3.612  10.952  3.0278  1.8577  1.0232
  100OSM   H12B 9993   5.078   3.434  10.944  0.5541 -1.0174  1.7754
  100OSM    C11 9994   5.245   3.499  10.850  0.1316  0.1712  0.3625
  100OSM   H11A 9995   5.204   3.479  10.749  1.6710  0.6685 -0.3920
  100OSM   H11B 9996   5.303   3.407  10.875 -2.3926 -0.7253  3.6712
  100OSM      P 9997   5.284   3.741  10.780  0.0660 -0.2522  0.3915
  100OSM    O13 9998   5.163   3.797  10.857  0.1941 -0.1900 -0.4701
  100OSM    O14 9999   5.403   3.828  10.761 -0.0611 -0.2865 -0.2738
  100OSM    O1110000   5.248   3.692  10.637 -0.2467 -0.1813  0.5634
  100OSM    O1210001   5.339   3.605  10.842  0.4218  0.2963  0.1026
  100OSM    C1S10002   5.350   3.637  10.553 -0.4740 -0.2145  0.3860
  100OSM    H1S10003   5.362   3.532  10.587 -3.0082 -0.6493  0.1768
  100OSM    H1T10004   5.451   3.683  10.559 -0.1767 -0.3742 -2.2715
  100OSM     NF10005   5.416   3.569  10.321 -0.0263 -0.1074 -0.0660
  100OSM    HNF10006   5.482   3.627  10.273 -0.7947  0.7484 -0.1236
  100OSM    C2S10007   5.316   3.638  10.401  0.5490  0.8723 -0.2647
  100OSM    H2S10008   5.215   3.593  10.393  1.2327 -0.6110 -1.1234
  100OSM    C3S10009   5.299   3.784  10.365 -0.2341  0.3484  0.7187
  100OSM    H3S10010   5.398   3.832  10.379 -0.3951  0.1152  2.9728
  100OSM     O310011   5.213   3.870  10.446 -0.1853  0.8090  0.0484
  100OSM    HO310012   5.205   3.820  10.528  0.8256 -0.1019 -0.3885
  100OSM    C4S10013   5.258   3.798  10.215 -0.4126  0.5150 -0.0988
  100OSM    H4S10014   5.335   3.837  10.147  0.2958  0.3882  0.6099
  100OSM    C5S10015   5.130   3.793  10.159 -0.1304  0.3741  0.1713
  100OSM    H5S10016   5.047   3.768  10.227  0.0481  2.2880  1.1540
  100OSM    C6S10017   5.092   3.822  10.020 -0.2506 -0.4698  0.3286
  100OSM    H6S10018   5.044   3.922  10.025  0.5017 -0.0520 -0.4905
  100OSM    H6T10019   5.022   3.746   9.978  1.1725 -0.7633 -1.6613
  100OSM    C7S10020   5.197   3.834   9.904 -0.8673 -0.4794  0.0063
  100OSM    H7S10021   5.249   3.737   9.921 -0.4686 -0.1674  0.6404
  100OSM    H7T10022   5.266   3.920   9.921 -0.4164 -0.1454 -2.9436
  100OSM    C8S10023   5.138   3.842   9.764  0.0340 -0.7624 -0.1452
  100OSM    H8S10024   5.117   3.948   9.736  2.6184 -0.5349 -1.5028
  100OSM    H8T10025   5.047   3.780   9.747  0.7942 -2.3392  1.2907
  100OSM    C9S10026   5.235   3.805   9.656  0.1748 -0.0513  0.4451
  100OSM    H9S10027   5.256   3.696   9.653 -3.1596 -0.7679 -1.3970
  100OSM    H9T10028   5.334   3.851   9.677  0.0736  0.8709 -0.9312
  100OSM   C10S10029   5.192   3.859   9.520 -0.1767 -0.3793 -0.1451
  100OSM   H10S10030   5.167   3.967   9.525 -1.4043 -0.6659  0.1890
  100OSM   H10T10031   5.099   3.809   9.484 -1.2932  0.9030  0.8479
  100OSM   C11S10032   5.299   3.842   9.415 -0.3928 -0.2510  0.5949
  100OSM   H11S10033   5.327   3.735   9.399  0.0498 -0.3055  1.6865
  100OSM   H11T10034   5.391   3.893   9.450  2.0289 -1.9264 -2.7576
  100OSM   C12S10035   5.261   3.905   9.280 -0.1837  0.3111  0.5961
  100OSM   H12S10036   5.256   4.016   9.277  0.4292  0.3118 -1.8393
  100OSM   H12T10037   5.159   3.880   9.243 -0.5795  1.2786  1.0006
  100OSM   C13S10038   5.349   3.852   9.167 -0.2812 -0.1710 -0.1261
  100OSM   H13S10039   5.340   3.741   9.162  0.1239 -0.1744 -1.1654
  100OSM   H13T10040   5.456   3.858   9.197 -0.6172 -3.2652  2.2455
  100OSM   C14S10041   5.328   3.920   9.030  0.6046  0.4433  0.4267
  100OSM   H14S10042   5.324   4.031   9.038 -1.3104  1.1764 -5.5884
  100OSM   H14T10043   5.228   3.896   8.989  0.4218  0.1155  1.0500
  100OSM   C15S10044   5.423   3.881   8.915 -0.8144  0.0852  0.0402
  100OSM   H15S10045   5.418   3.770   8.906 -2.4678  0.1164  0.3146
  100OSM   H15T10046   5.527   3.911   8.941 -0.9608 -0.5443  1.3974
  100OSM   C16S10047   5.393   3.944   8.780 -0.0940  0.1444  1.0323
  100OSM   H16S10048   5.392   4.055   8.786  0.3569  0.1830  0.4349
  100OSM   H16T10049   5.294   3.907   8.747  0.1677 -0.9741  1.4533
  100OSM   C17S10050   5.490   3.910   8.669  0.4060  0.0410 -0.3690
  100OSM   H17S10051   5.431   3.910   8.575 -1.1290 -2.5382  0.4752
  100OSM   H17T10052   5.513   3.801   8.680  1.3384  0.3906  1.4487
  100OSM   C18S10053   5.608   4.006   8.650  0.9824  0.3813 -0.0426
  100OSM   H18S10054   5.583   4.114   8.641 -1.3180  0.0772  1.7584
  100OSM   H18T10055   5.666   3.972   8.562 -0.9058 -1.4226 -0.6472
  100OSM   H18U10056   5.680   3.999   8.734  1.8517  2.1649 -0.5799
  100OSM    C1F10057   5.441   3.444  10.321  0.4340  0.3784  0.3912
  100OSM     OF10058   5.392   3.363  10.392  0.1177 -0.2527 -0.0479
  100OSM    C2F10059   5.566   3.408  10.241 -0.0148 -0.1865 -0.3334
  100OSM    H2F10060   5.631   3.338  10.299  3.7449  2.0721 -1.4910
  100OSM    H2G10061   5.632   3.497  10.233  0.1882 -0.1841  1.1099
  100OSM    C3F10062   5.541   3.333  10.105  0.1853 -0.4260 -0.0150
  100OSM    H3F10063   5.497   3.232  10.113 -0.9566  0.1657  2.0364
  100OSM    H3G10064   5.644   3.328  10.064  0.0285 -0.4043 -0.4134
  100OSM    C4F10065   5.453   3.404  10.000 -0.4708 -0.2645 -0.2845
  100OSM    H4F10066   5.494   3.507   9.992  1.3024 -0.8696  0.3720
  100OSM    H4G10067   5.348   3.424  10.032 -0.4453  0.2755 -0.5377
  100OSM    C5F10068   5.473   3.334   9.870 -0.1830  0.2909  0.1306
  100OSM    H5F10069   5.437   3.229   9.877 -0.4136  0.4309  1.1925
  100OSM    H5G10070   5.581   3.337   9.845 -0.4546  0.4736 -1.0701
  100OSM    C6F10071   5.394   3.393   9.756  0.0257 -0.4348 -0.5947
  100OSM    H6F10072   5.423   3.499   9.738 -4.0343  0.7296 -1.3245
  100OSM    H6G10073   5.294   3.400   9.803  1.9390  0.0528  3.9669
  100OSM    C7F10074   5.393   3.321   9.620 -0.6637 -0.0458  0.2575
  100OSM    H7F10075   5.322   3.354   9.542  1.4195  0.4331 -1.5170
  100OSM    H7G10076   5.361   3.217   9.640 -0.0925 -0.5336 -1.2394
  100OSM    C8F10077   5.527   3.311   9.548  0.0438 -0.3163 -0.3893
  100OSM    H8F10078   5.597   3.245   9.604 -1.1406 -1.3729 -0.0873
  100OSM    H8G10079   5.560   3.417   9.542  0.2272 -0.3631 -0.2446
  100OSM    C9F10080   5.503   3.259   9.407  0.4538 -0.2460  0.7659
  100OSM    H9F10081   5.459   3.161   9.385 -0.1858  0.3004 -0.5711
  100OSM   C10F10082   5.529   3.336   9.302 -0.2040  0.1939  0.0257
  100OSM   H10F10083   5.505   3.295   9.203  0.8815 -2.0089  0.6295
  100OSM   C11F10084   5.574   3.480   9.301  0.7411  0.1674 -0.0490
  100OSM   H11F10085   5.677   3.483   9.341  0.5194 -0.9639  0.6364
  100OSM   H11G10086   5.507   3.534   9.371 -1.1925  1.4204 -2.6852
  100OSM   C12F10087   5.565   3.557   9.164  0.4369  0.7849 -0.2088
  100OSM   H12F10088   5.559   3.667   9.180  0.8350  0.7051  0.5465
  100OSM   H12G10089   5.476   3.522   9.108  0.3908 -2.0170  1.4295
  100OSM   C13F10090   5.684   3.526   9.066  0.3707 -0.1564  0.3444
  100OSM   H13F10091   5.726   3.424   9.078  3.0328  0.8759  0.4998
  100OSM   H13G10092   5.763   3.594   9.103 -0.0517 -0.6633  2.3176
  100OSM   C14F10093   5.657   3.552   8.916  0.6136  0.7567 -0.1280
  100OSM   H14F10094   5.747   3.508   8.868  0.1881  1.2057 -1.3672
  100OSM   H14G10095   5.651   3.661   8.900 -0.4470  0.9013  1.0737
  100OSM   C15F10096   5.538   3.486   8.853 -0.3245 -0.3201 -0.0145
  100OSM   H15F10097   5.520   3.513   8.747 -0.0645  0.9547  0.2525
  100OSM   H15G10098   5.457   3.542   8.905  1.8204  2.4253  0.5965
  100OSM   C16F10099   5.536   3.343   8.894  0.1153 -0.7205  0.0099
  100OSM   H16F10100   5.510   3.334   9.001  1.3620  1.1587  0.5333
  100OSM   H16G10101   5.641   3.311   8.873 -0.7915 -2.8874 -1.6604
  100OSM   C17F10102   5.445   3.256   8.801  0.1109  0.1810 -0.3194
  100OSM   H17F10103   5.475   3.276   8.696  0.6626  1.9484  0.1407
  100OSM   H17G10104   5.339   3.281   8.825  0.0453 -1.7630  1.6927
  100OSM   C18F10105   5.470   3.108   8.827 -0.1720 -0.5775  0.4425
  100OSM   H18F10106   5.450   3.086   8.934 -1.0257  2.1195  0.8961
  100OSM   H18G10107   5.579   3.087   8.822  0.3195  1.2178  2.2555
  100OSM   H18H10108   5.423   3.043   8.750 -1.9302 -0.5251  1.4224
  101OSM      N10109   0.536   3.080  11.217 -0.8306  0.6351 -0.2672
  101OSM    C1510110   0.539   3.173  11.342  0.4072 -0.2970 -0.8558
  101OSM   H15A10111   0.498   3.269  11.312 -1.3050 -1.0973 -1.2291
  101OSM   H15B10112   0.640   3.174  11.378 -0.7925 -0.3125  2.9372
  101OSM   H15C10113   0.467   3.136  11.413 -0.6504  1.9933 -0.6317
  101OSM    C1410114   0.629   3.150  11.122 -0.1479  0.6754  0.1294
  101OSM   H14A10115   0.596   3.134  11.021  1.8654  1.8296 -0.7870
  101OSM   H14B10116   0.732   3.123  11.144 -0.0999 -1.5569 -2.3470
  101OSM   H14C10117   0.614   3.257  11.123 -0.9079  0.6035 -1.5000
  101OSM    C1310118   0.581   2.939  11.256  0.1717 -0.3183  0.1364
  101OSM   H13A10119   0.603   2.894  11.160  1.5049 -0.5394  0.5335
  101OSM   H13B10120   0.501   2.893  11.312 -0.9833  0.0537 -1.1348
  101OSM   H13C10121   0.669   2.942  11.319  0.8830 -1.7217 -0.7412
  101OSM    C1210122   0.403   3.064  11.160 -0.4932 -0.2186  0.0965
  101OSM   H12A10123   0.354   3.157  11.135  0.7529  0.5382  0.4193
  101OSM   H12B10124   0.329   3.023  11.227  0.3761  2.1140  2.6540
  101OSM    C1110125   0.399   2.990  11.023 -0.4348 -0.3567 -0.5305
  101OSM   H11A10126   0.300   2.943  11.003 -0.1773 -1.0883 -0.1429
  101OSM   H11B10127   0.467   2.902  11.034 -0.9430 -0.6432  0.4746
  101OSM      P10128   0.347   3.188  10.872  0.0319  0.3845 -0.2191
  101OSM    O1310129   0.234   3.197  10.974 -0.3434 -0.5465  0.0823
  101OSM    O1410130   0.439   3.300  10.857 -0.1865  1.0846 -0.4381
  101OSM    O1110131   0.293   3.153  10.723 -0.0028 -0.6014 -0.2453
  101OSM    O1210132   0.442   3.064  10.917 -0.4129 -0.4984 -0.1439
  101OSM    C1S10133   0.402   3.088  10.646  0.0932 -0.3162 -0.8442
  101OSM    H1S10134   0.413   2.985  10.688 -0.1005 -0.0720 -0.1733
  101OSM    H1T10135   0.497   3.145  10.645 -1.2441  2.0906  0.1174
  101OSM     NF10136   0.439   2.969  10.426  0.5834  0.3412  0.1634
  101OSM    HNF10137   0.512   3.001  10.367  0.4030 -1.3771 -1.0817
  101OSM    C2S10138   0.353   3.074  10.490 -0.5582 -0.5976 -0.2254
  101OSM    H2S10139   0.250   3.031  10.487 -0.3516 -1.0796 -0.5452
  101OSM    C3S10140   0.356   3.209  10.408 -0.1183 -0.5093  0.1906
  101OSM    H3S10141   0.461   3.244  10.411 -0.9032  2.0214  1.8742
  101OSM     O310142   0.282   3.306  10.482 -0.2132  0.1569  0.4201
  101OSM    HO310143   0.275   3.266  10.568  0.2026  2.8574  1.8115
  101OSM    C4S10144   0.311   3.207  10.268 -0.3278 -0.0803  0.9339
  101OSM    H4S10145   0.204   3.193  10.250  0.0252  0.0676 -1.6419
  101OSM    C5S10146   0.379   3.241  10.155 -0.2596  0.0895 -0.2863
  101OSM    H5S10147   0.477   3.285  10.176  0.7059 -2.4090  0.7599
  101OSM    C6S10148   0.337   3.242  10.009  0.3109  0.6818 -0.3523
  101OSM    H6S10149   0.261   3.164   9.985 -0.0066  0.6894  0.5682
  101OSM    H6T10150   0.419   3.232   9.935  0.7461  1.0793  0.0705
  101OSM    C7S10151   0.272   3.373   9.978  0.0691 -0.5775  0.0980
  101OSM    H7S10152   0.347   3.454   9.996  0.2299 -0.2871 -1.6807
  101OSM    H7T10153   0.173   3.376  10.028  0.0402 -0.8275  0.0554
  101OSM    C8S10154   0.245   3.374   9.826 -0.4145 -0.5406  0.2957
  101OSM    H8S10155   0.196   3.283   9.788 -0.0574 -0.4713 -0.3405
  101OSM    H8T10156   0.340   3.379   9.769  0.6373 -1.3510  1.9000
  101OSM    C9S10157   0.148   3.487   9.775 -0.9937 -0.3972  0.7608
  101OSM    H9S10158   0.185   3.585   9.812  0.5177 -0.5254 -0.3139
  101OSM    H9T10159   0.044   3.470   9.807 -1.9149  1.6632 -0.8960
  101OSM   C10S10160   0.138   3.493   9.624 -0.0195 -0.0431 -0.1959
  101OSM   H10S10161   0.118   3.390   9.587 -2.2289  0.4453 -0.4972
  101OSM   H10T10162   0.241   3.515   9.590 -0.0285 -0.1178 -0.2715
  101OSM   C11S10163   0.026   3.571   9.568  0.6168 -0.1115 -0.0758
  101OSM   H11S10164   0.019   3.665   9.625  0.2947  0.5629 -1.1850
  101OSM   H11T10165  -0.070   3.521   9.592 -0.0366  0.1683 -1.9397
  101OSM   C12S10166   0.027   3.596   9.414 -0.3952 -0.2628 -0.1695
  101OSM   H12S10167  -0.056   3.666   9.392 -1.8840 -1.0644  2.4249
  101OSM   H12T10168   0.004   3.511   9.347 -2.7877 -0.1120  0.3902
  101OSM   C13S10169   0.161   3.657   9.371 -0.8972 -0.3289  0.1521
  101OSM   H13S10170   0.251   3.592   9.381 -1.1726 -0.5690  1.2144
  101OSM   H13T10171   0.176   3.743   9.440  0.5974 -0.3755 -0.0653
  101OSM   C14S10172   0.172   3.731   9.229  0.1694  0.0418 -0.3462
  101OSM   H14S10173   0.257   3.802   9.220 -0.3191  0.8082  0.9431
  101OSM   H14T10174   0.085   3.799   9.219  0.8673  1.2349  1.2354
  101OSM   C15S10175   0.181   3.623   9.113  0.5614 -0.0623 -0.5667
  101OSM   H15S10176   0.088   3.565   9.131 -0.3489  1.6614  0.6576
  101OSM   H15T10177   0.262   3.554   9.146  0.7373  1.2522  2.0175
  101OSM   C16S10178   0.194   3.687   8.976  0.4574 -0.2463 -0.7093
  101OSM   H16S10179   0.222   3.609   8.902 -0.2666  0.0156 -1.2613
  101OSM   H16T10180   0.277   3.762   8.970  0.4892 -0.3423 -1.6990
  101OSM   C17S10181   0.052   3.736   8.926 -0.9200 -0.5496  0.6408
  101OSM   H17S10182  -0.012   3.796   8.994  0.1769 -0.6935  1.8432
  101OSM   H17T10183  -0.009   3.650   8.888 -2.0425  0.1711  0.7546
  101OSM   C18S10184   0.072   3.813   8.787 -0.4799  0.0493 -0.2026
  101OSM   H18S10185   0.127   3.905   8.815 -1.3740  0.3381  0.6460
  101OSM   H18T10186  -0.023   3.828   8.731 -0.7633  1.8234  0.6604
  101OSM   H18U10187   0.125   3.753   8.710 -0.7343 -0.0793 -0.2807
  101OSM    C1F10188   0.411   2.836  10.424 -0.6419  0.2693  0.5155
  101OSM     OF10189   0.309   2.790  10.475  0.2751 -0.0802  0.3896
  101OSM    C2F10190   0.518   2.752  10.372  0.2149 -0.1374 -0.7032
  101OSM    H2F10191   0.559   2.693  10.456 -1.4396  1.2787  1.1863
  101OSM    H2G10192   0.606   2.808  10.332 -1.6691  3.9870  0.4145
  101OSM    C3F10193   0.459   2.648  10.278  0.0934  0.0630  0.2153
  101OSM    H3F10194   0.388   2.578  10.328 -0.1658 -0.4218 -0.7965
  101OSM    H3G10195   0.547   2.587  10.251  1.9620  1.5642  2.5572
  101OSM    C4F10196   0.393   2.700  10.147 -0.0074 -0.0314  0.4425
  101OSM    H4F10197   0.314   2.773  10.173 -1.7492 -0.0902 -3.7485
  101OSM    H4G10198   0.335   2.625  10.089  1.2232 -0.2685 -0.5394
  101OSM    C5F10199   0.491   2.769  10.050 -0.1064  0.1856  0.7860
  101OSM    H5F10200   0.559   2.685  10.021  0.1084 -0.4694  3.0008
  101OSM    H5G10201   0.552   2.841  10.109  2.0977  0.5301 -1.7149
  101OSM    C6F10202   0.433   2.827   9.920 -0.5666 -0.5295  0.7249
  101OSM    H6F10203   0.390   2.748   9.853 -0.8498  0.7679 -0.6721
  101OSM    H6G10204   0.344   2.892   9.935 -1.4726 -1.5683  0.0449
  101OSM    C7F10205   0.534   2.893   9.831 -0.3197 -0.1575 -0.4196
  101OSM    H7F10206   0.617   2.821   9.815  0.7010  1.1856 -1.3971
  101OSM    H7G10207   0.588   2.977   9.879 -0.7965 -0.0147 -0.1238
  101OSM    C8F10208   0.470   2.947   9.698  0.3349  0.1653 -0.1796
  101OSM    H8F10209   0.374   3.001   9.710  1.2857  1.6218  1.3573
  101OSM    H8G10210   0.437   2.848   9.659  3.5083 -1.5173  1.0421
  101OSM    C9F10211   0.562   3.032   9.613  1.1663 -0.0311 -0.5083
  101OSM    H9F10212   0.669   3.008   9.622  1.2158  0.4736  0.3484
  101OSM   C10F10213   0.526   3.134   9.537 -0.2088  0.0155 -0.1208
  101OSM   H10F10214   0.615   3.185   9.497 -0.3348  1.0548  0.8420
  101OSM   C11F10215   0.394   3.210   9.517  0.3079  0.1517 -0.2840
  101OSM   H11F10216   0.398   3.310   9.566  0.2686  0.3997 -0.7815
  101OSM   H11G10217   0.314   3.139   9.547 -0.3327  0.4210 -1.3115
  101OSM   C12F10218   0.372   3.230   9.367  0.3317  0.1517  0.7783
  101OSM   H12F10219   0.274   3.283   9.364 -0.0984 -0.5989  1.2305
  101OSM   H12G10220   0.349   3.137   9.311 -1.0873 -0.1780  1.8484
  101OSM   C13F10221   0.480   3.308   9.292 -0.1146 -0.0800 -0.5599
  101OSM   H13F10222   0.575   3.258   9.318 -0.9668 -0.7008  1.5413
  101OSM   H13G10223   0.502   3.414   9.320 -0.4549 -0.1162 -0.1457
  101OSM   C14F10224   0.469   3.315   9.140  0.3579  0.2640  0.6673
  101OSM   H14F10225   0.564   3.346   9.090 -0.8008  1.6283 -0.7685
  101OSM   H14G10226   0.386   3.381   9.108  0.4172 -0.7670 -1.8336
  101OSM   C15F10227   0.441   3.173   9.078 -0.2658 -0.2025 -0.2740
  101OSM   H15F10228   0.340   3.134   9.103 -0.5581 -0.2976 -1.5560
  101OSM   H15G10229   0.509   3.099   9.126  1.1762  0.0549 -1.7986
  101OSM   C16F10230   0.462   3.173   8.922 -0.3993 -0.4650 -0.8050
  101OSM   H16F10231   0.441   3.071   8.883 -3.3000 -0.9561  1.6334
  101OSM   H16G10232   0.566   3.203   8.901 -0.5851  2.6883  1.9385
  101OSM   C17F10233   0.366   3.277   8.851 -0.2419  0.6242 -0.2766
  101OSM   H17F10234   0.413   3.377   8.865 -0.0050  0.4358  0.2783
  101OSM   H17G10235   0.264   3.283   8.894  0.0966 -0.4729  0.7271
  101OSM   C18F10236   0.367   3.251   8.698 -0.4800 -0.0457  0.0710
  101OSM   H18F10237   0.322   3.152   8.675 -0.5344  0.1815 -0.8369
  101OSM   H18G10238   0.469   3.255   8.654 -0.9639  0.8973 -1.0149
  101OSM   H18H10239   0.313   3.334   8.648  0.1147  0.0436 -0.4423
  102OSM      N10240   3.038   4.824  10.836 -0.3790  0.4660 -0.6552
  102OSM    C1510241   3.101   4.688  10.830 -0.0074 -0.0296  0.1361
  102OSM   H15A10242   3.022   4.614  10.822 -0.0777 -0.2984  2.5245
  102OSM   H15B10243   3.157   4.654  10.917 -0.7381 -1.4071  0.0894
  102OSM   H15C10244   3.158   4.682  10.739  1.0102  1.7940  0.6095
  102OSM    C1410245   2.948   4.847  10.723  0.0319  0.0068 -0.0112
  102OSM   H14A10246   2.932   4.951  10.700  2.1076  0.1314 -1.1839
  102OSM   H14B10247   2.852   4.799  10.731 -0.6703  1.4050  0.2452
  102OSM   H14C10248   2.993   4.807  10.633  1.8376  0.5646  0.6016
  102OSM    C1310249   2.958   4.830  10.966 -1.2105  0.0284  0.4969
  102OSM   H13A10250   3.009   4.796  11.055 -0.3487  0.0072  0.0123
  102OSM   H13B10251   2.868   4.774  10.945 -1.7891  0.2673  2.1996
  102OSM   H13C10252   2.935   4.934  10.982 -0.9571  0.2900 -0.7279
  102OSM    C1210253   3.148   4.928  10.838  0.4336 -0.0769  0.0244
  102OSM   H12A10254   3.205   4.932  10.746 -2.2074  2.5798 -1.6995
  102OSM   H12B10255   3.218   4.907  10.918 -0.4777  0.4697  0.9775
  102OSM    C1110256   3.096   5.068  10.878 -0.2430 -0.2315 -0.0552
  102OSM   H11A10257   3.085   5.064  10.988 -1.3383  0.0239 -0.1446
  102OSM   H11B10258   2.994   5.092  10.840 -0.6843 -1.1510  0.5147
  102OSM      P10259   3.169   5.250  10.706 -0.2171  0.2852  0.3871
  102OSM    O1310260   3.032   5.304  10.693 -0.2717  0.5597 -0.0844
  102OSM    O1410261   3.272   5.355  10.689 -0.3471  0.1672 -0.0174
  102OSM    O1110262   3.206   5.130  10.608  0.0663 -0.0902  0.8048
  102OSM    O1210263   3.188   5.170  10.848 -0.0817 -0.1854  0.0790
  102OSM    C1S10264   3.179   5.140  10.465 -0.2130 -0.0476  1.1442
  102OSM    H1S10265   3.109   5.220  10.433 -0.5119 -1.2959 -1.6327
  102OSM    H1T10266   3.127   5.047  10.432 -0.5068  0.5128 -0.0445
  102OSM     NF10267   3.274   5.190  10.240  0.0986 -0.3504 -0.0984
  102OSM    HNF10268   3.281   5.112  10.179 -0.9487  0.4579 -1.2910
  102OSM    C2S10269   3.304   5.161  10.377 -0.1877 -0.1169 -0.2327
  102OSM    H2S10270   3.353   5.249  10.424  0.4366 -0.1699 -0.7672
  102OSM    C3S10271   3.405   5.049  10.396 -0.0339  0.8336 -0.1280
  102OSM    H3S10272   3.368   4.957  10.347  2.1243 -0.9995  1.4438
  102OSM     O310273   3.433   5.013  10.531 -0.1954  0.3443  0.1214
  102OSM    HO310274   3.364   5.062  10.576 -2.4774 -1.6140 -1.0235
  102OSM    C4S10275   3.529   5.089  10.319 -0.0445 -0.3964 -0.2930
  102OSM    H4S10276   3.566   5.190  10.343 -2.7676  0.7620 -0.6255
  102OSM    C5S10277   3.596   5.027  10.224 -0.2951  0.0120  0.1321
  102OSM    H5S10278   3.557   4.931  10.187  0.1632 -0.5638  1.1087
  102OSM    C6S10279   3.721   5.076  10.165  0.1468 -0.0511  0.1763
  102OSM    H6S10280   3.805   5.005  10.181 -1.5993 -2.0939  0.7439
  102OSM    H6T10281   3.747   5.180  10.197 -1.5468  0.1864  0.8756
  102OSM    C7S10282   3.701   5.082  10.006 -0.0539  0.5636  0.9153
  102OSM    H7S10283   3.628   5.161   9.981 -0.5830 -0.3545 -0.5894
  102OSM    H7T10284   3.663   4.984   9.970  0.0567  0.4214  1.1825
  102OSM    C8S10285   3.832   5.116   9.934 -0.8224  0.2481  0.5638
  102OSM    H8S10286   3.918   5.052   9.962  0.0426  1.4479  0.7050
  102OSM    H8T10287   3.857   5.217   9.972 -1.8091  0.5113  0.5532
  102OSM    C9S10288   3.817   5.142   9.779  0.0709  0.4119  0.5806
  102OSM    H9S10289   3.726   5.186   9.734 -0.3261  0.9728  1.8950
  102OSM    H9T10290   3.832   5.040   9.737 -1.6830 -1.2105  3.6007
  102OSM   C10S10291   3.932   5.234   9.730  0.1349 -0.0647 -0.6135
  102OSM   H10S10292   4.038   5.211   9.756  0.4892  0.7166 -1.3149
  102OSM   H10T10293   3.907   5.336   9.766  0.5450  0.0652 -0.6913
  102OSM   C11S10294   3.945   5.252   9.578 -0.7251  0.4365  0.0916
  102OSM   H11S10295   3.846   5.275   9.534 -0.1448 -0.5380 -1.8053
  102OSM   H11T10296   3.973   5.156   9.528 -1.3127 -0.1559  0.8661
  102OSM   C12S10297   4.049   5.358   9.540  1.1690  0.6182 -0.6842
  102OSM   H12S10298   4.148   5.317   9.569  0.0736 -2.2371 -0.6441
  102OSM   H12T10299   4.028   5.450   9.598 -2.1401 -0.0983 -0.5144
  102OSM   C13S10300   4.039   5.392   9.388 -0.0555  0.0233 -0.6775
  102OSM   H13S10301   3.935   5.424   9.367 -0.1852 -0.8552 -1.4100
  102OSM   H13T10302   4.054   5.298   9.330 -1.0426 -0.1817 -0.6151
  102OSM   C14S10303   4.142   5.501   9.362  0.1620  0.1525  0.0170
  102OSM   H14S10304   4.245   5.464   9.383  0.3227 -0.1514 -1.2392
  102OSM   H14T10305   4.135   5.598   9.416 -1.1715  0.6102 -0.9408
  102OSM   C15S10306   4.153   5.549   9.214 -0.6438  0.1296 -0.0148
  102OSM   H15S10307   4.228   5.631   9.216 -1.8500  1.2412  0.4769
  102OSM   H15T10308   4.069   5.606   9.169  0.3397 -0.0914 -2.3238
  102OSM   C16S10309   4.196   5.446   9.106  0.7036  1.0595 -0.0684
  102OSM   H16S10310   4.224   5.503   9.014 -0.0418  0.7785 -0.4858
  102OSM   H16T10311   4.123   5.370   9.072  1.5947 -0.2705  0.9059
  102OSM   C17S10312   4.322   5.365   9.151  0.2610 -0.1770  0.0935
  102OSM   H17S10313   4.300   5.277   9.215 -3.0861  0.2561 -0.2756
  102OSM   H17T10314   4.384   5.435   9.212  1.2423 -1.8182  1.0574
  102OSM   C18S10315   4.406   5.301   9.048 -0.6121  0.6243 -0.3674
  102OSM   H18S10316   4.492   5.257   9.103 -0.5175 -0.7733 -1.5614
  102OSM   H18T10317   4.442   5.375   8.972 -0.1224  0.0314 -0.7268
  102OSM   H18U10318   4.351   5.218   8.998 -1.3558  0.0013  1.4259
  102OSM    C1F10319   3.241   5.313  10.192  0.1710  0.8857 -0.0136
  102OSM     OF10320   3.238   5.413  10.258 -0.2425  0.2027  0.3088
  102OSM    C2F10321   3.221   5.317  10.040 -0.4627  0.0966 -0.3784
  102OSM    H2F10322   3.150   5.234  10.018 -3.0234  1.0523  3.3836
  102OSM    H2G10323   3.322   5.308   9.994  0.9035  2.1804  2.0121
  102OSM    C3F10324   3.151   5.455  10.013 -0.3824  0.7880  0.1330
  102OSM    H3F10325   3.230   5.532  10.025  1.2111 -0.8471  0.5572
  102OSM    H3G10326   3.068   5.482  10.082 -0.7041 -0.3462  0.2085
  102OSM    C4F10327   3.096   5.469   9.876 -0.2572  0.4658  0.4924
  102OSM    H4F10328   3.004   5.408   9.870  1.9589 -3.2032  0.4858
  102OSM    H4G10329   3.165   5.420   9.804 -1.2904 -0.0445 -0.1589
  102OSM    C5F10330   3.087   5.616   9.826  0.4597  0.2439  0.3769
  102OSM    H5F10331   3.194   5.643   9.810  0.2976 -0.0393 -1.3644
  102OSM    H5G10332   3.026   5.684   9.889  0.6335  0.7609 -0.0072
  102OSM    C6F10333   3.018   5.625   9.692  0.1456  0.1224 -0.0272
  102OSM    H6F10334   2.915   5.585   9.703 -0.1735  1.1857  1.0635
  102OSM    H6G10335   3.078   5.573   9.615 -2.6526 -0.1972 -2.1103
  102OSM    C7F10336   3.028   5.769   9.638  0.4999 -0.1431 -0.1882
  102OSM    H7F10337   3.133   5.806   9.636  0.4689  0.0582  1.1844
  102OSM    H7G10338   2.957   5.829   9.699 -0.3318  0.1624 -1.4142
  102OSM    C8F10339   2.974   5.774   9.494 -0.4670 -0.4668  0.2966
  102OSM    H8F10340   2.872   5.732   9.488 -0.4611 -0.3374 -0.8834
  102OSM    H8G10341   3.026   5.696   9.434  0.2806  0.0428  0.2605
  102OSM    C9F10342   2.983   5.915   9.445 -0.0443 -0.1980  0.4766
  102OSM    H9F10343   2.965   5.993   9.521  0.0400 -0.8508  1.1760
  102OSM   C10F10344   3.007   5.954   9.318  0.8418  0.4498 -0.5290
  102OSM   H10F10345   3.018   6.060   9.293  2.4505  0.7537  1.1997
  102OSM   C11F10346   3.021   5.857   9.206  0.2541 -0.7907  0.3589
  102OSM   H11F10347   2.921   5.810   9.192 -0.5288  0.4689  1.4569
  102OSM   H11G10348   3.084   5.770   9.232  0.7158 -0.3769  0.6390
  102OSM   C12F10349   3.074   5.930   9.078  0.4698  0.1627  0.5882
  102OSM   H12F10350   3.169   5.970   9.119  1.0109 -0.7750  0.2875
  102OSM   H12G10351   3.007   6.013   9.048  1.6818  0.6648 -0.8505
  102OSM   C13F10352   3.101   5.849   8.947  0.2777  0.3183 -0.5920
  102OSM   H13F10353   3.179   5.772   8.965 -1.5569 -2.4116 -3.1106
  102OSM   H13G10354   3.159   5.904   8.870  2.1209 -2.0411 -1.0065
  102OSM   C14F10355   2.973   5.784   8.897  0.8951 -0.0610  0.8173
  102OSM   H14F10356   2.886   5.853   8.886 -0.7725 -2.1224  0.4702
  102OSM   H14G10357   2.936   5.712   8.973  0.5148 -0.0689  0.6260
  102OSM   C15F10358   2.997   5.715   8.762 -0.4117  0.0542 -0.3157
  102OSM   H15F10359   3.101   5.679   8.750 -0.6716 -1.2093  0.9995
  102OSM   H15G10360   2.996   5.795   8.685  0.8256  0.4478  0.0446
  102OSM   C16F10361   2.887   5.613   8.724 -0.2204 -0.6553  0.6527
  102OSM   H16F10362   2.784   5.654   8.721  0.2315  0.5232 -2.3897
  102OSM   H16G10363   2.892   5.530   8.798 -1.0084 -2.0371 -0.7687
  102OSM   C17F10364   2.918   5.550   8.584  0.4722 -0.0622 -0.0174
  102OSM   H17F10365   2.935   5.638   8.518 -1.9001  0.8426  0.4832
  102OSM   H17G10366   2.824   5.513   8.540  0.5758  0.8337 -1.0285
  102OSM   C18F10367   3.023   5.447   8.579  0.3027  0.3792  0.4323
  102OSM   H18F10368   3.110   5.496   8.627  1.3144  1.7370 -2.5087
  102OSM   H18G10369   3.054   5.410   8.479 -2.0078 -0.6276  0.0121
  102OSM   H18H10370   3.002   5.361   8.646 -1.5042  0.0498 -0.4815
  103OSM      N10371   0.791   6.686  11.147 -0.0456  0.0578 -0.2877
  103OSM    C1510372   0.814   6.646  11.290  0.2615  0.3463 -0.4752
  103OSM   H15A10373   0.891   6.711  11.328  0.5389  1.1641 -2.3030
  103OSM   H15B10374   0.835   6.540  11.297  0.4727  0.5175  2.5403
  103OSM   H15C10375   0.728   6.657  11.354 -0.6206 -1.9563 -1.1675
  103OSM    C1410376   0.677   6.602  11.097 -0.3302 -0.2217 -0.4182
  103OSM   H14A10377   0.663   6.629  10.994 -2.4381 -0.4327 -0.2353
  103OSM   H14B10378   0.585   6.616  11.153 -1.4129 -0.1039 -2.1607
  103OSM   H14C10379   0.699   6.497  11.092  1.2150 -0.0443  1.5856
  103OSM    C1310380   0.748   6.830  11.139 -0.3174 -0.1007  0.0857
  103OSM   H13A10381   0.832   6.886  11.179 -0.2371 -0.9514  1.1240
  103OSM   H13B10382   0.649   6.846  11.179 -0.6491  0.0402 -0.7664
  103OSM   H13C10383   0.752   6.847  11.032  4.0594  3.0311  0.4689
  103OSM    C1210384   0.912   6.657  11.065  0.6258  0.1314  0.2573
  103OSM   H12A10385   0.954   6.562  11.095  0.0488 -1.0131 -2.2675
  103OSM   H12B10386   0.988   6.732  11.080  1.0046 -0.1057 -0.4290
  103OSM    C1110387   0.892   6.662  10.913 -0.7412 -0.0256  0.0632
  103OSM   H11A10388   0.823   6.589  10.865  0.4412  0.7321 -3.0075
  103OSM   H11B10389   0.996   6.640  10.880 -0.5541 -0.5653  0.9616
  103OSM      P10390   0.850   6.860  10.746 -0.3399 -0.1052  0.3958
  103OSM    O1310391   0.746   6.970  10.735 -0.2403  0.8256 -0.1943
  103OSM    O1410392   0.988   6.897  10.717  0.3162 -0.4530  0.3667
  103OSM    O1110393   0.816   6.737  10.652 -0.0997 -0.0802  0.1949
  103OSM    O1210394   0.845   6.795  10.881 -0.6009  0.1899 -0.1399
  103OSM    C1S10395   0.679   6.721  10.611 -0.6305  0.3966  1.0699
  103OSM    H1S10396   0.600   6.742  10.685 -0.1866 -1.1087  2.0180
  103OSM    H1T10397   0.671   6.611  10.592  0.5665  0.5719 -0.7119
  103OSM     NF10398   0.504   6.749  10.449  0.3443  0.1857 -0.1492
  103OSM    HNF10399   0.497   6.663  10.399  3.1203 -1.0256  1.2652
  103OSM    C2S10400   0.647   6.780  10.480 -0.0074  0.0984  0.0268
  103OSM    H2S10401   0.648   6.891  10.489  1.3258  0.2218 -1.1863
  103OSM    C3S10402   0.756   6.745  10.374 -0.2893  0.9385 -0.1065
  103OSM    H3S10403   0.779   6.636  10.368 -0.8903  0.8213 -0.3961
  103OSM     O310404   0.886   6.802  10.379  0.3441 -0.3197  0.1278
  103OSM    HO310405   0.879   6.839  10.467 -0.4455  0.0540 -0.0856
  103OSM    C4S10406   0.701   6.781  10.233  0.7391 -0.1891 -0.9168
  103OSM    H4S10407   0.684   6.889  10.226  1.9384  0.0253 -0.5794
  103OSM    C5S10408   0.661   6.704  10.127 -0.0173 -0.3869 -0.3640
  103OSM    H5S10409   0.663   6.596  10.147  1.0570 -0.6167 -1.5595
  103OSM    C6S10410   0.598   6.744   9.996  0.2350 -0.6189 -0.4215
  103OSM    H6S10411   0.560   6.849   9.990 -3.2163 -1.7623 -0.9662
  103OSM    H6T10412   0.505   6.684   9.981  0.0181 -0.1606 -1.0017
  103OSM    C7S10413   0.684   6.702   9.876 -0.2446  0.4591  0.3209
  103OSM    H7S10414   0.688   6.592   9.887 -0.5931  0.2770 -1.1844
  103OSM    H7T10415   0.783   6.752   9.883 -0.9842  2.0278  0.0730
  103OSM    C8S10416   0.626   6.727   9.741 -0.1184  0.8885 -0.5971
  103OSM    H8S10417   0.635   6.838   9.748  0.2445  0.7721  4.2832
  103OSM    H8T10418   0.518   6.699   9.736 -0.2666  1.4634 -0.6686
  103OSM    C9S10419   0.712   6.677   9.625  0.3825  0.3622 -0.1888
  103OSM    H9S10420   0.718   6.566   9.627 -0.2557  0.1971 -2.8830
  103OSM    H9T10421   0.811   6.714   9.658 -0.8498  2.3435  1.5155
  103OSM   C10S10422   0.670   6.730   9.492 -0.0694 -0.0357 -1.0573
  103OSM   H10S10423   0.659   6.841   9.492 -2.0723 -0.2003 -0.1978
  103OSM   H10T10424   0.566   6.691   9.481 -1.0449  2.5063 -1.5977
  103OSM   C11S10425   0.752   6.702   9.365  0.3513  0.1513  0.4104
  103OSM   H11S10426   0.779   6.595   9.352 -0.1443 -0.1288  1.5408
  103OSM   H11T10427   0.853   6.748   9.355  1.2022 -1.9349 -1.4328
  103OSM   C12S10428   0.674   6.748   9.241 -0.5017 -0.5532 -0.5599
  103OSM   H12S10429   0.694   6.857   9.234 -0.9651 -0.1062  2.9464
  103OSM   H12T10430   0.568   6.719   9.253  0.3550 -3.6716  0.3941
  103OSM   C13S10431   0.720   6.681   9.112  0.2417  0.4183  0.9152
  103OSM   H13S10432   0.723   6.570   9.124  1.2844  0.5434  1.9882
  103OSM   H13T10433   0.822   6.713   9.083 -0.6209  2.6941  0.2086
  103OSM   C14S10434   0.622   6.713   8.999 -0.2386  0.1505  0.4790
  103OSM   H14S10435   0.638   6.815   8.956  0.8987 -0.7886 -1.4702
  103OSM   H14T10436   0.524   6.706   9.049  0.3680 -1.6262  1.4871
  103OSM   C15S10437   0.617   6.603   8.888  0.8084 -0.3316 -0.7501
  103OSM   H15S10438   0.618   6.502   8.934  0.4634 -0.3676 -0.8206
  103OSM   H15T10439   0.707   6.603   8.823 -0.2972 -2.8554 -2.4754
  103OSM   C16S10440   0.483   6.615   8.801  0.1548  0.1643 -0.8963
  103OSM   H16S10441   0.411   6.661   8.872  0.4170  0.1449 -0.6152
  103OSM   H16T10442   0.458   6.508   8.788  0.7569  0.0311 -0.9876
  103OSM   C17S10443   0.509   6.686   8.669 -0.2045  0.4577 -0.3295
  103OSM   H17S10444   0.578   6.622   8.611  0.7144  1.0862  0.0509
  103OSM   H17T10445   0.561   6.779   8.701  1.4851 -1.0035  1.3326
  103OSM   C18S10446   0.388   6.726   8.591 -0.3943 -0.4169 -0.0805
  103OSM   H18S10447   0.322   6.636   8.588  0.1163 -0.7665 -1.6122
  103OSM   H18T10448   0.411   6.764   8.489  0.8669  2.0336  1.0466
  103OSM   H18U10449   0.339   6.803   8.654 -0.7537  0.2587 -1.1564
  103OSM    C1F10450   0.405   6.811  10.509  0.6202  0.3423 -0.2999
  103OSM     OF10451   0.427   6.873  10.610  0.6265 -0.2730 -0.3920
  103OSM    C2F10452   0.268   6.803  10.451 -0.1402 -0.0305 -0.9170
  103OSM    H2F10453   0.216   6.896  10.483 -1.1036  0.1006 -2.7498
  103OSM    H2G10454   0.225   6.710  10.495 -2.0498  1.1027 -0.2775
  103OSM    C3F10455   0.281   6.804  10.297 -0.4603 -0.2930 -0.7326
  103OSM    H3F10456   0.328   6.709  10.262 -1.4680 -0.7394 -0.9178
  103OSM    H3G10457   0.348   6.887  10.267 -1.0926  0.6632  0.4687
  103OSM    C4F10458   0.141   6.817  10.231  0.4757 -0.6050 -0.0217
  103OSM    H4F10459   0.113   6.921  10.259 -0.0135  0.2064 -3.1696
  103OSM    H4G10460   0.059   6.756  10.276 -1.3038 -0.9557 -3.4055
  103OSM    C5F10461   0.135   6.810  10.075 -0.0480 -0.5852  0.3170
  103OSM    H5F10462   0.027   6.821  10.050 -0.2484 -1.8419  0.5649
  103OSM    H5G10463   0.177   6.712  10.043  0.1142 -0.5194  0.3289
  103OSM    C6F10464   0.219   6.916  10.004 -0.4867 -0.4002 -1.2443
  103OSM    H6F10465   0.323   6.880   9.989  0.3872  1.4633 -0.0461
  103OSM    H6G10466   0.232   6.999  10.076  1.0593 -1.5930 -0.0858
  103OSM    C7F10467   0.139   6.984   9.884 -0.0357  0.2669  0.0376
  103OSM    H7F10468   0.172   7.090   9.886  2.2540 -0.3758  2.1519
  103OSM    H7G10469   0.030   6.981   9.905  0.3575 -2.8705  2.3164
  103OSM    C8F10470   0.168   6.909   9.747  0.3032  0.3994  0.5263
  103OSM    H8F10471   0.127   6.807   9.760 -2.4902  0.9665 -2.5842
  103OSM    H8G10472   0.276   6.890   9.727  0.0994 -0.2100 -0.0275
  103OSM    C9F10473   0.094   6.980   9.627 -0.4876  0.8841 -0.4196
  103OSM    H9F10474   0.083   7.089   9.627 -3.1425  0.7273  1.3677
  103OSM   C10F10475   0.053   6.919   9.516 -0.3548  0.7479 -0.1588
  103OSM   H10F10476   0.006   6.975   9.434 -1.9382 -0.6516 -0.2775
  103OSM   C11F10477   0.055   6.771   9.466  0.0529  0.1233 -0.0344
  103OSM   H11F10478  -0.053   6.745   9.470  0.2509 -0.6225  0.9260
  103OSM   H11G10479   0.102   6.702   9.539  0.1948 -0.2962 -0.5193
  103OSM   C12F10480   0.131   6.734   9.348 -0.3448  0.0549  0.4887
  103OSM   H12F10481   0.154   6.626   9.344  1.9582  0.5252 -1.7852
  103OSM   H12G10482   0.233   6.777   9.354  0.0816 -1.0587  1.6689
  103OSM   C13F10483   0.058   6.782   9.217  0.2498  1.0635 -0.2193
  103OSM   H13F10484   0.016   6.884   9.228 -0.0787  0.7568  1.5799
  103OSM   H13G10485  -0.034   6.722   9.200  0.7159  0.2433  0.0761
  103OSM   C14F10486   0.131   6.776   9.085 -0.2404  0.2976  0.2494
  103OSM   H14F10487   0.183   6.678   9.076 -1.6117 -0.3455 -0.9982
  103OSM   H14G10488   0.218   6.846   9.091 -0.3441  0.5087 -0.5915
  103OSM   C15F10489   0.041   6.791   8.964  0.2553  0.5487 -0.6261
  103OSM   H15F10490   0.001   6.895   8.966 -0.2731  0.3371  0.6396
  103OSM   H15G10491  -0.048   6.725   8.973  0.6020  0.1792  0.2830
  103OSM   C16F10492   0.120   6.780   8.829 -0.7621  0.0646 -0.4432
  103OSM   H16F10493   0.193   6.697   8.814 -0.7994 -0.2539  1.0245
  103OSM   H16G10494   0.196   6.860   8.842  0.7134 -1.5640  1.8049
  103OSM   C17F10495   0.032   6.811   8.705 -0.3888  0.2175  0.1046
  103OSM   H17F10496  -0.069   6.777   8.737 -0.3650  1.0467  1.0975
  103OSM   H17G10497   0.081   6.751   8.625 -1.7208 -1.8559  0.7375
  103OSM   C18F10498   0.036   6.955   8.661  0.3171 -0.5586 -0.2424
  103OSM   H18F10499  -0.005   7.021   8.741  1.1204  0.6586 -0.8135
  103OSM   H18G10500  -0.018   6.975   8.566  0.3608  1.1628  0.0690
  103OSM   H18H10501   0.139   6.981   8.631  0.7729 -3.3120 -1.3170
  104OSM      N10502   2.282   1.283  10.743 -0.3399 -0.3346  0.4207
  104OSM    C1510503   2.257   1.433  10.746  0.5581 -0.7554  0.7586
  104OSM   H15A10504   2.156   1.466  10.765  0.0560 -2.5947  1.5197
  104OSM   H15B10505   2.269   1.492  10.656 -0.7311  0.4528  1.3383
  104OSM   H15C10506   2.317   1.484  10.820 -0.7235  2.1662 -0.0701
  104OSM    C1410507   2.193   1.215  10.645 -1.3009 -0.7671 -0.0402
  104OSM   H14A10508   2.198   1.109  10.662 -1.5750 -0.4815  2.1341
  104OSM   H14B10509   2.212   1.248  10.544 -1.4653 -2.4187 -0.6280
  104OSM   H14C10510   2.091   1.248  10.662 -1.2570 -0.7798  0.2577
  104OSM    C1310511   2.427   1.262  10.696 -0.0251  0.1764  0.0280
  104OSM   H13A10512   2.493   1.319  10.759 -0.4278 -0.1436  0.7485
  104OSM   H13B10513   2.438   1.298  10.595  0.2958  1.6210  0.5630
  104OSM   H13C10514   2.454   1.158  10.707 -3.2293 -0.9822 -1.7286
  104OSM    C1210515   2.273   1.221  10.882 -0.3443 -0.2827 -0.4593
  104OSM   H12A10516   2.172   1.243  10.911 -0.1551  0.7346 -0.5290
  104OSM   H12B10517   2.333   1.265  10.960 -1.8015  0.1402  0.4533
  104OSM    C1110518   2.306   1.070  10.894  0.2054 -0.3313  0.4030
  104OSM   H11A10519   2.251   1.010  10.818 -1.0888 -1.0557  1.8517
  104OSM   H11B10520   2.276   1.029  10.993 -0.1295 -0.8261  0.1009
  104OSM      P10521   2.504   0.885  10.879 -0.1724 -0.1120 -0.0372
  104OSM    O1310522   2.650   0.888  10.840 -0.0222 -0.0997 -0.5777
  104OSM    O1410523   2.470   0.827  11.010 -0.0786  0.3846  0.3082
  104OSM    O1110524   2.420   0.809  10.768  0.0582  0.3853  0.3658
  104OSM    O1210525   2.447   1.034  10.869  0.0643  0.0657  0.6156
  104OSM    C1S10526   2.395   0.860  10.642 -0.1626 -0.9020 -0.0570
  104OSM    H1S10527   2.377   0.970  10.635  0.4227 -0.8705 -1.5561
  104OSM    H1T10528   2.305   0.818  10.591 -0.4467 -0.4320  0.0486
  104OSM     NF10529   2.498   0.859  10.410 -0.0769 -0.1779  0.0809
  104OSM    HNF10530   2.457   0.792  10.349 -2.0277 -0.0584  1.2052
  104OSM    C2S10531   2.512   0.820  10.548 -0.3337 -0.5813  0.1003
  104OSM    H2S10532   2.604   0.871  10.583 -0.8281 -0.7993  1.8020
  104OSM    C3S10533   2.538   0.665  10.561 -0.2177 -0.4456 -0.1586
  104OSM    H3S10534   2.437   0.619  10.564 -0.5997  0.3994  0.1845
  104OSM     O310535   2.597   0.637  10.688 -0.9445  0.3438  0.3939
  104OSM    HO310536   2.572   0.719  10.731 -0.3790  0.2582  0.9066
  104OSM    C4S10537   2.636   0.623  10.459 -0.4342 -0.9500  0.3434
  104OSM    H4S10538   2.733   0.674  10.459 -1.4756  1.2081 -1.2284
  104OSM    C5S10539   2.612   0.535  10.361 -0.2865  0.1002 -0.5243
  104OSM    H5S10540   2.505   0.512  10.348  0.2445 -3.3712  0.1635
  104OSM    C6S10541   2.711   0.484  10.260 -0.7768 -0.8903 -0.2486
  104OSM    H6S10542   2.665   0.507  10.162 -0.3292 -1.2048 -0.5397
  104OSM    H6T10543   2.709   0.372  10.261  1.0406 -0.9664  0.7549
  104OSM    C7S10544   2.858   0.545  10.259  0.0125  0.6520 -0.2505
  104OSM    H7S10545   2.903   0.544  10.361 -2.3571  0.5430  0.8715
  104OSM    H7T10546   2.852   0.652  10.231  0.6535  1.1188  1.3133
  104OSM    C8S10547   2.948   0.459  10.161  0.4983 -0.3213 -0.0650
  104OSM    H8S10548   2.900   0.450  10.061  1.6766 -0.3248 -0.6393
  104OSM    H8T10549   2.951   0.354  10.198  0.2258  0.0631  1.0967
  104OSM    C9S10550   3.090   0.504  10.137  0.0127  0.3137  0.0425
  104OSM    H9S10551   3.143   0.454  10.221 -1.4738 -1.8262 -0.2132
  104OSM    H9T10552   3.090   0.613  10.155 -0.9281  0.2478  0.5185
  104OSM   C10S10553   3.154   0.467  10.004  0.1365 -0.4365 -0.4460
  104OSM   H10S10554   3.073   0.457   9.930 -1.9159 -0.5077  1.6799
  104OSM   H10T10555   3.215   0.374  10.017 -1.2529 -1.1239  1.9467
  104OSM   C11S10556   3.254   0.578   9.950 -0.2269 -0.5525 -0.8316
  104OSM   H11S10557   3.315   0.613  10.036  0.2444 -1.3113 -0.8524
  104OSM   H11T10558   3.178   0.657   9.930  2.1961  1.7397 -1.4842
  104OSM   C12S10559   3.317   0.546   9.813  0.5170  0.0849 -0.1609
  104OSM   H12S10560   3.396   0.469   9.827  0.6510  0.0998 -0.8067
  104OSM   H12T10561   3.375   0.633   9.777 -1.1641  1.0121 -0.7507
  104OSM   C13S10562   3.219   0.511   9.701 -1.0656  0.5145 -0.1648
  104OSM   H13S10563   3.162   0.603   9.676 -0.5064  1.2011  1.0013
  104OSM   H13T10564   3.143   0.433   9.720 -1.1227  1.1305  2.6641
  104OSM   C14S10565   3.295   0.465   9.579  0.4872 -0.2104 -0.9850
  104OSM   H14S10566   3.248   0.379   9.527 -1.6666  1.4105 -1.8924
  104OSM   H14T10567   3.400   0.441   9.606 -0.4551 -1.3098  2.0956
  104OSM   C15S10568   3.301   0.584   9.489  0.2802 -0.4789 -0.1036
  104OSM   H15S10569   3.313   0.675   9.551 -0.3964  0.5273 -1.3980
  104OSM   H15T10570   3.200   0.599   9.444 -0.2217 -2.2536  0.3103
  104OSM   C16S10571   3.407   0.587   9.386 -0.3023  0.2667 -0.6678
  104OSM   H16S10572   3.511   0.579   9.424 -0.6481 -1.0015  0.0589
  104OSM   H16T10573   3.392   0.692   9.353 -1.3465  1.3453  2.8103
  104OSM   C17S10574   3.381   0.490   9.270 -0.4035  0.0440  0.4081
  104OSM   H17S10575   3.275   0.490   9.235 -0.5686 -3.8078  0.5096
  104OSM   H17T10576   3.410   0.385   9.287  0.2944  0.3248  1.0318
  104OSM   C18S10577   3.460   0.528   9.141 -0.1828 -0.0737  0.3104
  104OSM   H18S10578   3.421   0.627   9.111  0.1430 -0.2334 -0.6625
  104OSM   H18T10579   3.435   0.459   9.057 -2.0987  1.2999 -0.3185
  104OSM   H18U10580   3.566   0.515   9.170 -0.4891 -0.7622  1.2042
  104OSM    C1F10581   2.509   0.987  10.372  0.7478  0.2505 -0.1357
  104OSM     OF10582   2.560   1.076  10.440  0.0363  0.1973 -0.1655
  104OSM    C2F10583   2.465   1.021  10.235 -0.7187  1.1784  0.7519
  104OSM    H2F10584   2.354   1.032  10.239 -0.8817 -0.4758  1.9971
  104OSM    H2G10585   2.495   0.941  10.164 -1.0143  1.3762  0.3959
  104OSM    C3F10586   2.530   1.146  10.188  0.4208  0.2658 -0.3928
  104OSM    H3F10587   2.639   1.154  10.208  0.6678 -0.6276 -1.2777
  104OSM    H3G10588   2.486   1.232  10.243  0.4747 -0.7597  1.3258
  104OSM    C4F10589   2.508   1.168  10.038 -0.5414 -0.3881  0.9257
  104OSM    H4F10590   2.513   1.276  10.010  0.4821 -0.8561 -0.8540
  104OSM    H4G10591   2.400   1.146  10.024  0.0360 -3.1297  0.3413
  104OSM    C5F10592   2.593   1.094   9.937 -0.8536  0.1788  0.2988
  104OSM    H5F10593   2.615   0.986   9.954  1.7554  0.7642  1.1431
  104OSM    H5G10594   2.688   1.153   9.938 -0.6366 -0.0579 -1.5511
  104OSM    C6F10595   2.560   1.117   9.786 -0.0453 -0.5103 -0.1802
  104OSM    H6F10596   2.496   1.206   9.770  2.9084  1.7364 -0.3817
  104OSM    H6G10597   2.498   1.028   9.766  1.6638 -1.4581 -1.4793
  104OSM    C7F10598   2.678   1.140   9.698  0.2197  0.4432 -0.4320
  104OSM    H7F10599   2.707   1.033   9.693  0.6199  0.5502 -0.3677
  104OSM    H7G10600   2.755   1.207   9.742 -1.6088  4.0702 -2.2964
  104OSM    C8F10601   2.642   1.187   9.560  0.3648 -0.4766  0.2120
  104OSM    H8F10602   2.740   1.198   9.508 -0.4707 -0.8424 -1.4919
  104OSM    H8G10603   2.581   1.277   9.579 -0.2877 -0.9997  0.6316
  104OSM    C9F10604   2.548   1.106   9.480  0.3165 -0.1814  0.4736
  104OSM    H9F10605   2.474   1.049   9.537 -0.8024  1.9436  1.2543
  104OSM   C10F10606   2.548   1.091   9.348  0.5782 -0.5010  0.1009
  104OSM   H10F10607   2.470   1.029   9.300  0.8476 -0.2532 -0.6704
  104OSM   C11F10608   2.639   1.150   9.248 -0.4695  0.0081 -0.5151
  104OSM   H11F10609   2.697   1.063   9.211 -1.1807 -0.4159 -0.6467
  104OSM   H11G10610   2.713   1.223   9.287  0.4583 -1.2813  0.1973
  104OSM   C12F10611   2.572   1.213   9.129  0.7373 -0.3201 -0.1230
  104OSM   H12F10612   2.629   1.294   9.078 -2.0043  2.9622  1.5818
  104OSM   H12G10613   2.483   1.268   9.166  2.1970  1.0712  1.5123
  104OSM   C13F10614   2.539   1.103   9.022 -0.2484 -0.9234  0.5635
  104OSM   H13F10615   2.459   1.032   9.052 -1.1063 -0.4927 -0.6116
  104OSM   H13G10616   2.632   1.046   9.000  0.5034  1.1009 -2.0038
  104OSM   C14F10617   2.495   1.158   8.884  0.0407 -0.7097 -0.0298
  104OSM   H14F10618   2.548   1.249   8.849 -3.5399  0.4196 -3.2022
  104OSM   H14G10619   2.392   1.194   8.901  0.9862  2.9160 -1.1723
  104OSM   C15F10620   2.501   1.045   8.774  0.3755 -0.4892  1.0539
  104OSM   H15F10621   2.427   0.971   8.812 -1.6590 -0.0990 -1.8121
  104OSM   H15G10622   2.604   1.011   8.755  0.8055  2.0960 -2.0101
  104OSM   C16F10623   2.449   1.090   8.631 -0.1736 -0.3966  0.4572
  104OSM   H16F10624   2.508   1.178   8.597  0.1606 -1.0804 -0.7903
  104OSM   H16G10625   2.343   1.126   8.634 -0.2155 -0.3959 -0.5781
  104OSM   C17F10626   2.457   0.975   8.530  0.1150 -0.1045 -0.2948
  104OSM   H17F10627   2.419   1.001   8.428 -0.1784  0.5833 -0.0117
  104OSM   H17G10628   2.393   0.889   8.561  0.4572 -0.7044 -1.1890
  104OSM   C18F10629   2.596   0.934   8.486 -0.4875 -1.0527 -0.0676
  104OSM   H18F10630   2.656   0.916   8.577 -1.0280 -0.1589  0.4766
  104OSM   H18G10631   2.653   1.009   8.427 -2.2802 -0.0090 -0.5687
  104OSM   H18H10632   2.585   0.834   8.438 -0.3824 -0.3839 -1.5497
  105OSM      N10633   0.335   5.677  10.735  0.0070 -0.2013  0.4240
  105OSM    C1510634   0.341   5.743  10.603 -0.5613 -0.2536 -0.1167
  105OSM   H15A10635   0.403   5.685  10.536 -0.5804 -0.8231  0.3519
  105OSM   H15B10636   0.394   5.836  10.615  0.4987 -0.8788  0.2121
  105OSM   H15C10637   0.247   5.753  10.551 -0.1091  1.6709 -0.6461
  105OSM    C1410638   0.474   5.658  10.787  0.4434 -0.1920  0.2205
  105OSM   H14A10639   0.526   5.593  10.718  1.9161 -0.4588  1.5102
  105OSM   H14B10640   0.466   5.610  10.884  0.5942 -0.1443  0.2569
  105OSM   H14C10641   0.523   5.754  10.798 -2.2843  1.2824  0.5014
  105OSM    C1310642   0.271   5.774  10.826  0.2786 -0.4743 -0.2132
  105OSM   H13A10643   0.311   5.874  10.815  0.6018 -0.6024 -0.2002
  105OSM   H13B10644   0.281   5.742  10.928 -0.9537  0.3003  0.1778
  105OSM   H13C10645   0.172   5.798  10.790  0.1265  0.9801  1.0696
  105OSM    C1210646   0.261   5.548  10.727  0.1741 -0.1040  0.2832
  105OSM   H12A10647   0.282   5.488  10.639 -2.0659 -1.0645  0.3248
  105OSM   H12B10648   0.162   5.572  10.691  1.2553  0.8730 -2.3197
  105OSM    C1110649   0.262   5.467  10.859  0.1735  0.0287  0.1478
  105OSM   H11A10650   0.240   5.532  10.946  0.6642 -2.9200  2.6310
  105OSM   H11B10651   0.363   5.426  10.881  0.3220  1.4137  2.3899
  105OSM      P10652   0.016   5.405  10.809 -0.3035  0.0089  0.3919
  105OSM    O1310653  -0.074   5.292  10.841 -0.2342  0.1661  0.3862
  105OSM    O1410654  -0.021   5.526  10.884 -0.2647 -0.1493 -0.0801
  105OSM    O1110655   0.015   5.431  10.651 -0.6636  0.0553 -0.0989
  105OSM    O1210656   0.164   5.360  10.855  0.4559 -0.3948 -0.2795
  105OSM    C1S10657  -0.104   5.442  10.575 -0.2106 -0.0763  0.4005
  105OSM    H1S10658  -0.135   5.549  10.583  0.5729  0.0898  1.4424
  105OSM    H1T10659  -0.190   5.382  10.611 -0.5497 -0.0254 -0.2976
  105OSM     NF10660  -0.212   5.427  10.356 -0.1725  0.0054  0.4540
  105OSM    HNF10661  -0.268   5.345  10.346 -0.0665 -0.3740  2.5283
  105OSM    C2S10662  -0.085   5.407  10.425 -0.1852  0.0046  0.4869
  105OSM    H2S10663  -0.007   5.471  10.377 -0.7413 -0.4240 -1.0527
  105OSM    C3S10664  -0.031   5.267  10.411  0.0891  0.1661  0.2768
  105OSM    H3S10665  -0.101   5.191  10.452 -0.6028  1.8215  2.3830
  105OSM     O310666   0.097   5.246  10.472  0.0173  0.8653  0.1257
  105OSM    HO310667   0.105   5.325  10.525  0.9307  1.3768 -0.7492
  105OSM    C4S10668  -0.011   5.232  10.263 -0.2839 -0.3422 -0.5264
  105OSM    H4S10669  -0.098   5.182  10.218  0.7116 -2.6330 -0.0577
  105OSM    C5S10670   0.097   5.234  10.187  0.5716 -0.4668  0.1273
  105OSM    H5S10671   0.194   5.263  10.231  0.3145  0.5378  0.0644
  105OSM    C6S10672   0.106   5.173  10.049 -0.5614 -0.3929  1.0913
  105OSM    H6S10673   0.018   5.108  10.029 -1.1572  0.6355  0.3171
  105OSM    H6T10674   0.199   5.111  10.049 -0.0746  0.2850  2.7008
  105OSM    C7S10675   0.119   5.271   9.928 -0.5477 -0.6148 -0.4723
  105OSM    H7S10676   0.202   5.340   9.955 -2.0665  0.7544  0.9866
  105OSM    H7T10677   0.015   5.311   9.922 -0.9287 -1.5158 -0.0646
  105OSM    C8S10678   0.136   5.198   9.802 -0.8168  0.1379 -0.0307
  105OSM    H8S10679   0.036   5.160   9.774 -1.0710  1.4980 -1.1101
  105OSM    H8T10680   0.209   5.116   9.814  1.6121  2.0294 -1.0585
  105OSM    C9S10681   0.196   5.284   9.693  0.6996 -0.0404  0.1917
  105OSM    H9S10682   0.269   5.217   9.641 -0.2684 -1.9166  1.1483
  105OSM    H9T10683   0.249   5.370   9.738  1.8066 -0.1416 -0.8544
  105OSM   C10S10684   0.092   5.330   9.588 -1.2282 -0.9996  0.2338
  105OSM   H10S10685   0.030   5.407   9.639  1.3178 -0.8810  3.4730
  105OSM   H10T10686   0.031   5.241   9.562 -0.1520 -1.7777  0.3354
  105OSM   C11S10687   0.144   5.397   9.462 -0.4999 -0.1154  0.0220
  105OSM   H11S10688   0.176   5.313   9.395 -2.0326 -1.2442  0.6382
  105OSM   H11T10689   0.229   5.460   9.493 -1.4862 -0.0611  2.8955
  105OSM   C12S10690   0.041   5.480   9.382  0.3403  0.3032 -0.1993
  105OSM   H12S10691   0.032   5.572   9.444 -0.4832 -0.0843  0.2794
  105OSM   H12T10692  -0.056   5.425   9.375  1.1537 -1.0520 -1.6807
  105OSM   C13S10693   0.094   5.496   9.237  0.4003  0.0955  0.3136
  105OSM   H13S10694   0.136   5.400   9.201 -0.5542 -0.9833  1.9251
  105OSM   H13T10695   0.175   5.571   9.226 -0.4085  0.8252 -0.9415
  105OSM   C14S10696  -0.013   5.542   9.143  0.3914 -0.2744  0.1348
  105OSM   H14S10697  -0.079   5.625   9.176  1.4767  0.6391  0.0671
  105OSM   H14T10698  -0.084   5.459   9.120 -1.1875  1.3674 -1.1423
  105OSM   C15S10699   0.037   5.601   9.007 -0.3069  0.6274 -0.0044
  105OSM   H15S10700   0.092   5.520   8.954 -0.1886 -0.4109  1.6264
  105OSM   H15T10701   0.113   5.679   9.031 -1.5006  1.0977  2.6902
  105OSM   C16S10702  -0.078   5.655   8.919  0.1429 -0.5528  0.5771
  105OSM   H16S10703  -0.162   5.678   8.988 -2.3988 -2.1295 -1.7865
  105OSM   H16T10704  -0.131   5.588   8.847  0.4558  1.8590 -2.1121
  105OSM   C17S10705  -0.046   5.776   8.837 -0.2695 -0.5280 -0.3460
  105OSM   H17S10706  -0.046   5.866   8.903  0.2812 -0.2649 -0.6917
  105OSM   H17T10707  -0.134   5.791   8.771 -1.4640  0.8611  1.4526
  105OSM   C18S10708   0.089   5.779   8.763 -0.2495 -0.1091 -0.3325
  105OSM   H18S10709   0.123   5.881   8.735  1.7250 -0.2772  1.1967
  105OSM   H18T10710   0.070   5.723   8.669 -0.2991  0.7638 -0.8544
  105OSM   H18U10711   0.178   5.736   8.814  1.0602  2.2313 -0.4918
  105OSM    C1F10712  -0.272   5.547  10.345 -0.8045 -0.1964  0.4561
  105OSM     OF10713  -0.213   5.651  10.377 -0.0237  0.2912  0.4611
  105OSM    C2F10714  -0.401   5.546  10.290  0.4964 -0.4641  0.2444
  105OSM    H2F10715  -0.472   5.559  10.374  0.1451  1.8311 -0.3543
  105OSM    H2G10716  -0.417   5.443  10.250  0.7400 -0.0098 -1.0585
  105OSM    C3F10717  -0.438   5.657  10.191 -0.3480 -0.5971 -0.4624
  105OSM    H3F10718  -0.448   5.754  10.243 -1.5172  0.2811 -2.2009
  105OSM    H3G10719  -0.539   5.624  10.157 -0.5855 -0.8236  0.4499
  105OSM    C4F10720  -0.343   5.659  10.073 -0.1685 -0.3106 -0.0398
  105OSM    H4F10721  -0.250   5.710  10.105 -0.9693  1.2592 -0.1063
  105OSM    H4G10722  -0.388   5.726   9.996  1.2079  1.0493  0.2885
  105OSM    C5F10723  -0.325   5.526   9.996 -0.3333 -0.3949  0.1542
  105OSM    H5F10724  -0.424   5.498   9.957 -0.3555 -0.9580  0.6015
  105OSM    H5G10725  -0.295   5.452  10.074 -0.4678  1.0664  1.6650
  105OSM    C6F10726  -0.223   5.520   9.878 -0.1685 -0.5616 -0.9063
  105OSM    H6F10727  -0.176   5.419   9.872 -1.7878 -1.3220 -1.5942
  105OSM    H6G10728  -0.147   5.597   9.898 -0.8842  0.3820 -1.7203
  105OSM    C7F10729  -0.293   5.549   9.742  0.0359 -0.9451 -1.0418
  105OSM    H7F10730  -0.333   5.652   9.754  1.7022 -0.4140  0.3275
  105OSM    H7G10731  -0.376   5.477   9.729 -2.1724  0.8303  1.9036
  105OSM    C8F10732  -0.203   5.561   9.623 -0.6469  0.1179 -0.2100
  105OSM    H8F10733  -0.159   5.460   9.605  1.6550  0.3640  3.1610
  105OSM    H8G10734  -0.116   5.627   9.644 -0.9615  0.4535  0.0579
  105OSM    C9F10735  -0.279   5.603   9.505 -0.0539 -0.0625 -0.0657
  105OSM    H9F10736  -0.373   5.550   9.483  0.7009 -1.0766 -0.8950
  105OSM   C10F10737  -0.243   5.694   9.413 -0.2596  0.1787  0.2017
  105OSM   H10F10738  -0.301   5.713   9.321 -1.8046 -1.1645  0.8299
  105OSM   C11F10739  -0.116   5.777   9.417 -0.0355  0.4301 -1.0396
  105OSM   H11F10740  -0.056   5.774   9.324  2.1632 -2.3091  0.3260
  105OSM   H11G10741  -0.042   5.739   9.491 -1.2345 -0.1353 -0.0893
  105OSM   C12F10742  -0.150   5.925   9.447 -0.7261 -0.2543  0.0041
  105OSM   H12F10743  -0.206   5.971   9.363  0.6748 -1.5222 -1.7024
  105OSM   H12G10744  -0.061   5.990   9.455 -0.0726 -0.9664 -1.1986
  105OSM   C13F10745  -0.235   5.964   9.570  0.8679  0.1848 -0.1062
  105OSM   H13F10746  -0.322   5.896   9.560  2.0333 -1.1266 -2.0994
  105OSM   H13G10747  -0.260   6.071   9.556  0.1361 -0.1273 -1.3951
  105OSM   C14F10748  -0.175   5.944   9.710 -1.0437 -0.1743  0.0251
  105OSM   H14F10749  -0.086   6.009   9.725 -0.9040 -0.0585 -1.1821
  105OSM   H14G10750  -0.149   5.837   9.727 -0.4681 -0.0900 -0.2878
  105OSM   C15F10751  -0.276   5.966   9.829 -0.2568  0.1981  1.1564
  105OSM   H15F10752  -0.358   5.893   9.816  0.3672 -0.1485 -1.3049
  105OSM   H15G10753  -0.323   6.063   9.803  3.4340  1.4194 -2.0198
  105OSM   C16F10754  -0.214   5.960   9.973  0.1460 -0.6341  0.0397
  105OSM   H16F10755  -0.129   6.031   9.980 -0.4229  0.2157 -1.2129
  105OSM   H16G10756  -0.187   5.853   9.988 -1.1284 -1.0710 -0.5663
  105OSM   C17F10757  -0.315   5.996  10.086  0.5376  0.1242  0.3271
  105OSM   H17F10758  -0.405   5.932  10.090 -1.0541  2.3156  1.5830
  105OSM   H17G10759  -0.350   6.100  10.069  0.5231  0.3989  1.9187
  105OSM   C18F10760  -0.251   5.998  10.226 -0.8844  0.7630 -0.7506
  105OSM   H18F10761  -0.160   6.062  10.233  0.1477 -0.7151  0.1206
  105OSM   H18G10762  -0.212   5.896  10.250 -0.5860  0.8875 -0.7006
  105OSM   H18H10763  -0.320   6.028  10.307 -1.5317 -0.8981 -0.6414
  106OSM      N10764   6.427   4.787  10.955 -1.0315  0.6760  0.1914
  106OSM    C1510765   6.577   4.799  10.930  0.7649 -0.3647 -0.5895
  106OSM   H15A10766   6.598   4.892  10.880 -0.9520 -0.2535 -1.1612
  106OSM   H15B10767   6.606   4.714  10.870 -2.1673 -1.6950 -0.2866
  106OSM   H15C10768   6.624   4.792  11.027 -0.7016  0.9555  0.2541
  106OSM    C1410769   6.404   4.652  11.015  1.4786  0.2141 -0.3367
  106OSM   H14A10770   6.448   4.635  11.112 -1.9224 -0.4226  1.2406
  106OSM   H14B10771   6.438   4.574  10.948 -1.5740  0.7764 -2.8020
  106OSM   H14C10772   6.301   4.629  11.036  0.9906  1.6729 -0.9720
  106OSM    C1310773   6.384   4.896  11.048  0.0512  0.5565  0.4463
  106OSM   H13A10774   6.416   4.987  10.999  1.2232 -1.2284 -2.3389
  106OSM   H13B10775   6.435   4.889  11.143 -1.0311 -0.4534  0.9686
  106OSM   H13C10776   6.277   4.892  11.062  0.1624 -1.3436  0.9523
  106OSM    C1210777   6.359   4.799  10.820 -0.0604 -0.3384 -0.3615
  106OSM   H12A10778   6.371   4.899  10.781 -1.2083 -1.0162 -2.5583
  106OSM   H12B10779   6.254   4.793  10.844 -0.0600  1.9276  0.4892
  106OSM    C1110780   6.397   4.709  10.701  0.2814 -0.2679  0.3268
  106OSM   H11A10781   6.507   4.702  10.690  0.0180 -3.2912 -1.4543
  106OSM   H11B10782   6.366   4.743  10.600  0.5696  0.6249  0.5222
  106OSM      P10783   6.202   4.524  10.684 -0.0176  0.2262  0.2499
  106OSM    O1310784   6.171   4.387  10.732  0.2412  0.5043  0.0715
  106OSM    O1410785   6.102   4.623  10.727 -0.3276  0.4554  0.1820
  106OSM    O1110786   6.200   4.512  10.530  0.4496 -0.3079  0.0573
  106OSM    O1210787   6.353   4.565  10.714  0.3463 -0.1152 -0.1761
  106OSM    C1S10788   6.266   4.414  10.453 -0.3205  0.0544 -0.3963
  106OSM    H1S10789   6.233   4.313  10.485  2.1695 -0.7962 -0.2728
  106OSM    H1T10790   6.374   4.407  10.479 -0.1420  3.0639  0.0705
  106OSM     NF10791   6.336   4.323  10.239  0.0160  0.6536 -0.0127
  106OSM    HNF10792   6.429   4.342  10.211  0.2939  0.9796  1.1054
  106OSM    C2S10793   6.255   4.429  10.299 -0.0738  0.9102 -0.1824
  106OSM    H2S10794   6.146   4.413  10.283 -0.3785  1.2322  1.3794
  106OSM    C3S10795   6.302   4.572  10.260  0.8794  0.0012  0.4105
  106OSM    H3S10796   6.399   4.596  10.308  0.7644  2.2695 -0.3344
  106OSM     O310797   6.213   4.672  10.313 -0.3991  0.5752  0.4444
  106OSM    HO310798   6.169   4.635  10.390 -0.7067 -0.7287 -0.3095
  106OSM    C4S10799   6.315   4.585  10.114  0.6940 -0.6581  0.6751
  106OSM    H4S10800   6.421   4.583  10.082  0.8312  0.1018  1.0685
  106OSM    C5S10801   6.207   4.597  10.030  0.1919  0.7385  0.7732
  106OSM    H5S10802   6.107   4.592  10.076 -0.0489 -0.8114  0.1430
  106OSM    C6S10803   6.208   4.618   9.881 -0.3045 -0.4172  0.7590
  106OSM    H6S10804   6.149   4.535   9.838 -1.0518  0.4116  0.1407
  106OSM    H6T10805   6.308   4.611   9.834  0.2263  1.0561  1.5756
  106OSM    C7S10806   6.144   4.752   9.838  1.2575  0.3732 -0.6035
  106OSM    H7S10807   6.206   4.839   9.869 -0.3122  0.8345  1.5846
  106OSM    H7T10808   6.040   4.758   9.878  2.3654 -0.6909  2.8775
  106OSM    C8S10809   6.130   4.764   9.689  0.0309  0.2446  0.0317
  106OSM    H8S10810   6.083   4.675   9.641 -0.4208  0.3976  0.1869
  106OSM    H8T10811   6.232   4.785   9.650  0.0771 -0.7897 -0.4423
  106OSM    C9S10812   6.068   4.889   9.636  0.3122  0.1011 -0.1825
  106OSM    H9S10813   6.124   4.975   9.680  1.1483 -0.3694 -0.3130
  106OSM    H9T10814   5.968   4.895   9.686  1.3927  1.9957  1.9640
  106OSM   C10S10815   6.045   4.914   9.481 -0.4291  0.8908  0.1107
  106OSM   H10S10816   5.993   5.011   9.465 -2.1696 -0.4759 -4.0939
  106OSM   H10T10817   5.969   4.840   9.447 -2.2074  0.6713  4.0056
  106OSM   C11S10818   6.177   4.914   9.403  0.7813  0.0135 -0.3305
  106OSM   H11S10819   6.229   4.825   9.446 -1.1095 -0.4136  1.2523
  106OSM   H11T10820   6.238   5.005   9.423 -0.4106  1.3051 -2.2581
  106OSM   C12S10821   6.161   4.887   9.247 -0.4490  0.3902 -0.4261
  106OSM   H12S10822   6.105   4.976   9.212 -0.9580  1.6063  3.0220
  106OSM   H12T10823   6.086   4.806   9.240  1.0794 -1.1909  0.5083
  106OSM   C13S10824   6.287   4.880   9.173  0.2091 -0.3499 -0.0813
  106OSM   H13S10825   6.347   4.795   9.211  0.0603 -0.2355  0.4103
  106OSM   H13T10826   6.345   4.972   9.197 -1.0824  0.4074  0.2011
  106OSM   C14S10827   6.270   4.865   9.025  0.1695  0.1362 -0.2627
  106OSM   H14S10828   6.212   4.952   8.988 -0.9953 -0.5364 -0.0415
  106OSM   H14T10829   6.221   4.768   9.005  1.8508 -0.2741 -2.9487
  106OSM   C15S10830   6.404   4.855   8.947  0.0749  0.9080  0.5394
  106OSM   H15S10831   6.454   4.762   8.982 -2.0998 -0.8465 -0.7211
  106OSM   H15T10832   6.462   4.946   8.974  0.6426  0.2111  1.7819
  106OSM   C16S10833   6.380   4.842   8.795  0.1713 -0.1033  0.1869
  106OSM   H16S10834   6.471   4.863   8.735  0.8153  0.1327  1.2192
  106OSM   H16T10835   6.311   4.917   8.752  2.6476  0.7468 -2.6856
  106OSM   C17S10836   6.318   4.708   8.764  0.2695  0.3903  0.0905
  106OSM   H17S10837   6.212   4.691   8.790  0.1638  0.6259 -0.1861
  106OSM   H17T10838   6.373   4.630   8.821  0.5036 -2.2921 -3.4256
  106OSM   C18S10839   6.333   4.687   8.612  0.1471  0.3408  0.2556
  106OSM   H18S10840   6.294   4.591   8.573  1.1239  1.3288 -3.5851
  106OSM   H18T10841   6.442   4.686   8.589  0.4859  0.5101  1.7600
  106OSM   H18U10842   6.290   4.773   8.556  1.2356  0.2574 -0.7643
  106OSM    C1F10843   6.290   4.203  10.214 -0.0549 -0.4189  0.6424
  106OSM     OF10844   6.181   4.169  10.251 -0.1449  0.0446 -0.2497
  106OSM    C2F10845   6.376   4.114  10.122  0.4780  0.4032 -0.2965
  106OSM    H2F10846   6.411   4.032  10.188 -1.5593 -1.2346 -1.1142
  106OSM    H2G10847   6.458   4.172  10.074  2.3696 -0.9116  1.1903
  106OSM    C3F10848   6.294   4.043  10.005 -0.6887  0.0360  0.2383
  106OSM    H3F10849   6.211   3.980  10.046 -1.2498  0.1056 -0.7442
  106OSM    H3G10850   6.366   3.976   9.953  2.0937  2.2946  0.9777
  106OSM    C4F10851   6.261   4.141   9.898  0.1492 -0.3795 -0.3415
  106OSM    H4F10852   6.197   4.225   9.933  0.5012 -0.6453  1.0030
  106OSM    H4G10853   6.206   4.079   9.824 -1.5644 -0.0599  0.6335
  106OSM    C5F10854   6.387   4.211   9.829  0.5286 -0.3377  1.0318
  106OSM    H5F10855   6.465   4.133   9.815  0.8605 -0.2449  2.1981
  106OSM    H5G10856   6.438   4.284   9.895  1.9896  0.8260 -1.2600
  106OSM    C6F10857   6.338   4.274   9.698  0.6960  1.2806  0.0050
  106OSM    H6F10858   6.253   4.344   9.715 -0.0537  0.8238 -1.6636
  106OSM    H6G10859   6.305   4.187   9.637 -1.6403  0.3991  2.3209
  106OSM    C7F10860   6.447   4.348   9.611  1.1891  0.3779  0.2615
  106OSM    H7F10861   6.533   4.281   9.588  0.4565 -0.0938 -1.2239
  106OSM    H7G10862   6.494   4.430   9.670  0.3585  0.7000  0.4922
  106OSM    C8F10863   6.409   4.401   9.471  0.0681 -0.2809  0.3509
  106OSM    H8F10864   6.368   4.316   9.413 -0.2823 -0.0243  0.2243
  106OSM    H8G10865   6.498   4.434   9.414 -0.6572  1.0663 -0.0271
  106OSM    C9F10866   6.310   4.509   9.485  0.4424 -0.7232  0.1386
  106OSM    H9F10867   6.342   4.592   9.549 -1.8768 -0.9295  1.6863
  106OSM   C10F10868   6.188   4.511   9.430  0.3822  1.0589  0.4834
  106OSM   H10F10869   6.134   4.606   9.441 -0.7034  0.4797  0.2452
  106OSM   C11F10870   6.117   4.413   9.336 -0.2657  0.2671 -0.2158
  106OSM   H11F10871   6.009   4.402   9.358 -0.0099  0.2667  1.1561
  106OSM   H11G10872   6.166   4.313   9.336  1.4540  1.0751  0.1917
  106OSM   C12F10873   6.127   4.457   9.187  0.1543  0.6266 -1.3009
  106OSM   H12F10874   6.074   4.553   9.173 -1.6440 -0.2956 -1.1727
  106OSM   H12G10875   6.081   4.374   9.129 -1.5887 -0.4602  1.4168
  106OSM   C13F10876   6.262   4.469   9.122  0.8964 -0.2717 -0.2270
  106OSM   H13F10877   6.330   4.533   9.180  2.2705 -1.5235 -0.3916
  106OSM   H13G10878   6.254   4.512   9.019  1.0287  1.8139  0.5871
  106OSM   C14F10879   6.333   4.336   9.098  0.0667  0.2767 -0.7288
  106OSM   H14F10880   6.272   4.268   9.035  1.5220 -1.1571 -0.6885
  106OSM   H14G10881   6.367   4.278   9.187 -0.2594  0.1317 -0.6960
  106OSM   C15F10882   6.465   4.357   9.023  0.6408  0.4089 -0.3530
  106OSM   H15F10883   6.522   4.410   9.101 -1.0257  2.8791 -0.7057
  106OSM   H15G10884   6.458   4.435   8.944 -2.5863 -0.7376 -1.4045
  106OSM   C16F10885   6.546   4.234   8.997  0.3739 -0.1166  0.8159
  106OSM   H16F10886   6.638   4.253   8.938  0.2670  2.6321  1.3991
  106OSM   H16G10887   6.478   4.164   8.944 -1.4195  1.0222  1.5367
  106OSM   C17F10888   6.606   4.154   9.123  0.3954  0.0792  0.0157
  106OSM   H17F10889   6.517   4.119   9.179 -0.1155 -0.6386 -1.2188
  106OSM   H17G10890   6.672   4.226   9.177  1.4584 -0.1245 -0.9784
  106OSM   C18F10891   6.696   4.030   9.091  0.4926  0.0059 -0.8382
  106OSM   H18F10892   6.697   3.970   9.184 -1.9496 -1.0057 -1.3743
  106OSM   H18G10893   6.801   4.061   9.073  1.0576 -1.5027 -0.3312
  106OSM   H18H10894   6.662   3.961   9.010  1.9077 -0.5855 -0.9418
  107OSM      N10895   0.635   0.681  10.755  0.0821 -0.3534 -0.5578
  107OSM    C1510896   0.747   0.696  10.651 -0.1833 -0.0369 -0.1646
  107OSM   H15A10897   0.841   0.647  10.675  0.0608  0.0210 -0.9830
  107OSM   H15B10898   0.767   0.802  10.640 -0.5181 -0.0426 -0.9181
  107OSM   H15C10899   0.713   0.669  10.552  1.6141  2.0011 -1.4320
  107OSM    C1410900   0.614   0.533  10.779 -0.2438 -0.2518  0.4291
  107OSM   H14A10901   0.561   0.496  10.692  1.5742  2.2720 -1.9378
  107OSM   H14B10902   0.577   0.503  10.876  1.2687 -0.5924  0.9275
  107OSM   H14C10903   0.705   0.476  10.769  1.2561  1.9333  1.0710
  107OSM    C1310904   0.686   0.752  10.880 -0.0322 -0.2308 -0.5406
  107OSM   H13A10905   0.662   0.857  10.867 -0.4874 -0.2315  0.2130
  107OSM   H13B10906   0.794   0.750  10.893  0.0971 -0.6719 -1.6185
  107OSM   H13C10907   0.632   0.737  10.972 -0.3196  3.3498  0.0316
  107OSM    C1210908   0.503   0.737  10.715 -0.2994  0.0185 -0.2943
  107OSM   H12A10909   0.445   0.745  10.806 -1.6815 -0.7311 -1.0733
  107OSM   H12B10910   0.453   0.665  10.651 -0.0838 -0.4395  0.0520
  107OSM    C1110911   0.491   0.872  10.641 -0.8218 -0.9657 -0.4039
  107OSM   H11A10912   0.387   0.888  10.605 -1.7107 -0.7971  2.0139
  107OSM   H11B10913   0.563   0.870  10.556 -1.3092 -0.0873 -0.8487
  107OSM      P10914   0.463   1.078  10.806 -0.0458  0.1896 -0.4502
  107OSM    O1310915   0.424   0.991  10.918  0.4085 -0.2846  0.0574
  107OSM    O1410916   0.552   1.190  10.843  0.1341  0.0585 -0.3339
  107OSM    O1110917   0.338   1.130  10.725 -0.2526 -0.1559 -0.2918
  107OSM    O1210918   0.545   0.991  10.703  0.0498 -0.3725 -0.0347
  107OSM    C1S10919   0.355   1.237  10.638  0.3128 -0.1193 -0.2806
  107OSM    H1S10920   0.452   1.289  10.654  0.4972 -1.0753  2.2175
  107OSM    H1T10921   0.295   1.325  10.669  2.1476  1.1728 -0.2131
  107OSM     NF10922   0.356   1.313  10.397  0.1703  0.4601  0.1657
  107OSM    HNF10923   0.281   1.321  10.332 -0.1003 -1.3573  0.2115
  107OSM    C2S10924   0.346   1.199  10.490  0.5344  1.0226 -0.1340
  107OSM    H2S10925   0.437   1.136  10.474  0.7600  0.5045  2.7431
  107OSM    C3S10926   0.221   1.112  10.455 -0.2756  0.0468 -0.2432
  107OSM    H3S10927   0.137   1.183  10.444 -1.3224 -0.7518  1.9034
  107OSM     O310928   0.188   1.017  10.555  0.1595  0.1627 -0.1342
  107OSM    HO310929   0.234   1.044  10.635  1.3952 -0.5299 -0.5882
  107OSM    C4S10930   0.238   1.050  10.319 -0.6021  0.3381  0.3848
  107OSM    H4S10931   0.211   1.124  10.243  2.9464  1.2709 -0.1610
  107OSM    C5S10932   0.279   0.924  10.289  0.8407  0.0383 -0.0459
  107OSM    H5S10933   0.310   0.869  10.378  1.4600  1.9341  0.9757
  107OSM    C6S10934   0.305   0.870  10.150  0.1963 -0.1437  0.1732
  107OSM    H6S10935   0.255   0.771  10.141  2.1824 -1.0725 -1.5426
  107OSM    H6T10936   0.413   0.850  10.137  0.7321  0.4338  3.1100
  107OSM    C7S10937   0.253   0.954  10.028 -0.6652  0.5654  0.2928
  107OSM    H7S10938   0.302   1.053  10.014 -1.6393  0.6136 -3.9673
  107OSM    H7T10939   0.144   0.968  10.041 -0.5585  0.0540  2.0043
  107OSM    C8S10940   0.270   0.872   9.898  0.0548 -0.5681 -0.2574
  107OSM    H8S10941   0.206   0.781   9.902  0.8902 -1.1508  0.0644
  107OSM    H8T10942   0.365   0.816   9.897  1.2196  0.6328  5.4806
  107OSM    C9S10943   0.244   0.954   9.777  0.1645 -0.4718 -0.3940
  107OSM    H9S10944   0.316   1.038   9.765 -0.7314  0.2321 -1.0563
  107OSM    H9T10945   0.148   1.009   9.779  0.5469  0.2577 -1.1163
  107OSM   C10S10946   0.228   0.868   9.650  0.8700 -0.7722 -0.3622
  107OSM   H10S10947   0.124   0.828   9.648 -0.0786  1.5433 -0.1752
  107OSM   H10T10948   0.301   0.785   9.637  0.7129 -0.5129 -3.8399
  107OSM   C11S10949   0.255   0.950   9.518 -0.1907  0.9699  0.5013
  107OSM   H11S10950   0.351   1.003   9.532  0.6071 -0.3713  0.2711
  107OSM   H11T10951   0.173   1.021   9.495 -0.7992 -0.6288 -2.8905
  107OSM   C12S10952   0.282   0.850   9.400 -0.2055  0.1417  0.2785
  107OSM   H12S10953   0.193   0.785   9.384 -2.1303  2.9154 -0.9790
  107OSM   H12T10954   0.365   0.782   9.430 -0.1927  0.1891  0.3501
  107OSM   C13S10955   0.315   0.930   9.275 -0.0894  0.2656  0.1577
  107OSM   H13S10956   0.382   1.012   9.311  2.2904 -1.5329  0.1053
  107OSM   H13T10957   0.229   0.988   9.237  0.5577  0.5767 -0.8813
  107OSM   C14S10958   0.375   0.846   9.167  0.4047  0.6659 -0.0048
  107OSM   H14S10959   0.321   0.749   9.162 -1.8514  1.8806 -0.4394
  107OSM   H14T10960   0.482   0.827   9.192 -0.0860  0.7731  2.3500
  107OSM   C15S10961   0.361   0.901   9.027  0.2816 -0.0769 -0.9474
  107OSM   H15S10962   0.253   0.895   9.004 -0.5851  2.2407  1.8987
  107OSM   H15T10963   0.419   0.843   8.952  1.1040 -0.2775 -0.1660
  107OSM   C16S10964   0.425   1.044   9.008  1.2059 -0.1189 -0.5643
  107OSM   H16S10965   0.535   1.033   9.019  1.4198  1.1851 -1.2336
  107OSM   H16T10966   0.380   1.114   9.082 -0.1178 -0.4012 -1.0784
  107OSM   C17S10967   0.389   1.095   8.869 -0.3942 -0.0456  0.0149
  107OSM   H17S10968   0.369   1.204   8.877  0.8505  0.0861  1.6407
  107OSM   H17T10969   0.294   1.054   8.828 -0.8252 -0.1585  1.0992
  107OSM   C18S10970   0.501   1.074   8.763  0.1112 -0.2256  0.7866
  107OSM   H18S10971   0.519   0.965   8.756  0.7714 -0.0324 -1.0696
  107OSM   H18T10972   0.596   1.127   8.788 -0.6050  0.4056  2.3526
  107OSM   H18U10973   0.469   1.108   8.663  0.3186 -0.7888  0.5257
  107OSM    C1F10974   0.446   1.412  10.412 -0.6252 -0.1376  0.6322
  107OSM     OF10975   0.560   1.387  10.455  0.0902 -0.5705 -0.1721
  107OSM    C2F10976   0.406   1.556  10.382 -0.6131 -0.0945  0.1033
  107OSM    H2F10977   0.355   1.596  10.471  1.7625 -0.9180  1.9574
  107OSM    H2G10978   0.346   1.550  10.289 -3.2641  0.0115  1.6987
  107OSM    C3F10979   0.532   1.645  10.357 -0.0449  0.4048  0.6048
  107OSM    H3F10980   0.607   1.627  10.437  1.8529 -1.8701 -1.4982
  107OSM    H3G10981   0.495   1.749  10.372 -1.6662 -0.1420  0.5161
  107OSM    C4F10982   0.613   1.624  10.223  0.3084  0.3877 -0.1424
  107OSM    H4F10983   0.654   1.521  10.227 -1.5685 -0.4039 -0.2572
  107OSM    H4G10984   0.698   1.693  10.204  0.6033  0.5539  1.6523
  107OSM    C5F10985   0.513   1.639  10.099 -0.6361  0.1097  0.2787
  107OSM    H5F10986   0.457   1.734  10.109 -1.1763 -0.0360 -1.1109
  107OSM    H5G10987   0.433   1.562  10.101 -1.2552  0.7611  2.0048
  107OSM    C6F10988   0.580   1.635   9.957 -0.2352 -0.5618 -0.2667
  107OSM    H6F10989   0.588   1.527   9.929 -2.3627 -0.3288 -2.0261
  107OSM    H6G10990   0.679   1.683   9.965  0.5852 -2.1186 -0.5561
  107OSM    C7F10991   0.514   1.699   9.833 -0.8332 -0.6832 -0.2382
  107OSM    H7F10992   0.509   1.805   9.866 -0.3385 -0.9343  0.6535
  107OSM    H7G10993   0.411   1.659   9.821 -0.3522 -2.1607  0.3163
  107OSM    C8F10994   0.593   1.662   9.705 -0.0806 -0.1390 -0.0326
  107OSM    H8F10995   0.616   1.553   9.705 -0.9685 -0.3410 -1.2417
  107OSM    H8G10996   0.691   1.715   9.710 -0.7267  1.0135  0.9958
  107OSM    C9F10997   0.521   1.708   9.575 -0.3779 -0.2774 -1.1309
  107OSM    H9F10998   0.413   1.686   9.569 -0.7343  1.2624 -0.7261
  107OSM   C10F10999   0.584   1.758   9.466 -0.8648  0.6434  0.6776
  107OSM   H10F11000   0.518   1.772   9.379 -2.7283 -4.0446  1.0286
  107OSM   C11F11001   0.729   1.776   9.449 -0.6837 -0.3377 -0.0518
  107OSM   H11F11002   0.794   1.789   9.538  2.1413  2.6938 -2.2734
  107OSM   H11G11003   0.751   1.867   9.390  0.3703  0.5782  1.6592
  107OSM   C12F11004   0.788   1.662   9.362  0.0698 -0.0785  0.1133
  107OSM   H12F11005   0.783   1.570   9.424 -1.4700  0.8546  1.4751
  107OSM   H12G11006   0.895   1.685   9.345  0.6814 -0.3758  3.0683
  107OSM   C13F11007   0.727   1.631   9.223  0.0733  0.3019 -0.5218
  107OSM   H13F11008   0.764   1.704   9.148 -0.2660  0.6208 -0.3816
  107OSM   H13G11009   0.617   1.643   9.235  0.1903 -0.2843  1.3029
  107OSM   C14F11010   0.749   1.484   9.171 -0.2497  1.0674 -0.5753
  107OSM   H14F11011   0.733   1.413   9.255  1.4733 -0.9096 -1.8294
  107OSM   H14G11012   0.856   1.467   9.149  0.3784  2.8221  0.8556
  107OSM   C15F11013   0.657   1.442   9.055 -0.7192  0.6661  0.0525
  107OSM   H15F11014   0.557   1.483   9.080  0.0127  2.0744  0.8054
  107OSM   H15G11015   0.649   1.331   9.048 -1.0705  0.6063  1.1404
  107OSM   C16F11016   0.699   1.506   8.925 -0.1596 -0.1704  0.9259
  107OSM   H16F11017   0.802   1.480   8.894 -0.2044  2.2993 -1.7028
  107OSM   H16G11018   0.713   1.614   8.949  0.6329 -0.2588  0.8905
  107OSM   C17F11019   0.603   1.471   8.811 -0.4803  0.6186 -0.6081
  107OSM   H17F11020   0.500   1.507   8.830 -1.7644 -2.4747 -1.0398
  107OSM   H17G11021   0.589   1.361   8.805 -0.2589  0.4922  0.8828
  107OSM   C18F11022   0.639   1.532   8.674  0.3754  0.1775  0.1144
  107OSM   H18F11023   0.549   1.522   8.611  0.5114  1.1586 -0.2375
  107OSM   H18G11024   0.728   1.483   8.629 -0.9390  0.6941 -3.3215
  107OSM   H18H11025   0.652   1.642   8.678 -0.3148  0.3330 -1.4463
  108OSM      N11026   5.511   3.105  10.630  0.0163 -0.0445 -0.5985
  108OSM    C1511027   5.489   3.247  10.665  0.0802 -0.2560  0.0363
  108OSM   H15A11028   5.560   3.282  10.738 -0.8903  1.4743  0.2114
  108OSM   H15B11029   5.387   3.271  10.693 -0.1151  2.2328 -2.3574
  108OSM   H15C11030   5.499   3.313  10.580  0.8290 -2.0013 -1.3021
  108OSM    C1411031   5.650   3.092  10.576 -0.1968  0.0715 -0.3543
  108OSM   H14A11032   5.723   3.103  10.655 -0.9707  3.3858  0.0756
  108OSM   H14B11033   5.662   3.165  10.497 -2.1918  0.6892 -0.1439
  108OSM   H14C11034   5.669   2.995  10.534 -0.3641 -0.9786  1.8605
  108OSM    C1311035   5.504   3.030  10.756 -0.6154  0.3106  0.0043
  108OSM   H13A11036   5.516   2.925  10.730 -0.5954  0.1157  0.7652
  108OSM   H13B11037   5.407   3.032  10.802 -0.4634  0.3918  0.3210
  108OSM   H13C11038   5.590   3.050  10.818  1.1254 -1.2989 -1.7285
  108OSM    C1211039   5.404   3.064  10.528  1.2919 -0.3810  0.3956
  108OSM   H12A11040   5.398   3.146  10.457 -1.5983  0.7443  1.8005
  108OSM   H12B11041   5.309   3.062  10.579  0.7790  0.9400 -0.4507
  108OSM    C1111042   5.420   2.931  10.454  0.1593  0.3921 -0.0995
  108OSM   H11A11043   5.504   2.941  10.382 -0.4616  0.0487 -0.8839
  108OSM   H11B11044   5.328   2.923  10.392 -0.8092  0.9768  1.1979
  108OSM      P11045   5.544   2.727  10.571 -0.1823  0.0462  0.0339
  108OSM    O1311046   5.657   2.775  10.493  0.0918 -0.1613  0.1989
  108OSM    O1411047   5.560   2.728  10.717  0.4011  0.2821  0.3231
  108OSM    O1111048   5.494   2.578  10.526  0.1008  0.0501 -0.1200
  108OSM    O1211049   5.413   2.813  10.537 -0.0227  0.1569  0.0191
  108OSM    C1S11050   5.426   2.564  10.407 -0.3119  0.5078  0.1299
  108OSM    H1S11051   5.490   2.607  10.327 -1.2282 -0.7687 -1.3385
  108OSM    H1T11052   5.330   2.617  10.397 -0.8809 -0.8610 -2.9249
  108OSM     NF11053   5.348   2.407  10.247  0.3202 -0.6386 -0.2994
  108OSM    HNF11054   5.249   2.407  10.235 -0.3418 -1.0366  3.6467
  108OSM    C2S11055   5.387   2.418  10.388 -0.9074 -0.8360 -0.1548
  108OSM    H2S11056   5.481   2.361  10.400 -1.0654 -1.1629 -0.4125
  108OSM    C3S11057   5.278   2.367  10.489  0.3007 -0.0254  0.4896
  108OSM    H3S11058   5.195   2.439  10.473 -0.3806 -0.3974  2.1580
  108OSM     O311059   5.326   2.380  10.624  0.6629 -0.7577  0.0278
  108OSM    HO311060   5.385   2.455  10.621  0.6797 -0.4133  3.8607
  108OSM    C4S11061   5.235   2.232  10.454  0.6207  0.3000 -0.4460
  108OSM    H4S11062   5.136   2.228  10.407  0.7532  1.8365 -0.9127
  108OSM    C5S11063   5.306   2.115  10.443  0.5227 -0.5358  0.4018
  108OSM    H5S11064   5.412   2.112  10.471  0.3296 -2.5093  1.0949
  108OSM    C6S11065   5.245   1.984  10.393 -0.1516  0.0925  0.6805
  108OSM    H6S11066   5.207   1.919  10.475 -1.5726  1.0767  0.8458
  108OSM    H6T11067   5.322   1.915  10.353 -1.6341 -1.0108 -0.3531
  108OSM    C7S11068   5.141   1.993  10.281 -0.4394  0.1992 -0.3451
  108OSM    H7S11069   5.061   2.057  10.325 -0.9101 -0.3894 -0.3325
  108OSM    H7T11070   5.101   1.894  10.251  0.8112 -0.4431  0.0595
  108OSM    C8S11071   5.201   2.043  10.147  0.0681 -0.0916 -0.0974
  108OSM    H8S11072   5.280   1.976  10.107  0.8317  0.1046  1.0298
  108OSM    H8T11073   5.266   2.124  10.186 -0.6232 -0.0940  1.1357
  108OSM    C9S11074   5.109   2.087  10.034 -0.5647 -0.2603 -0.3002
  108OSM    H9S11075   5.164   2.129   9.947  0.7366 -2.3004 -0.5322
  108OSM    H9T11076   5.039   2.168  10.063  0.9620  1.6104 -1.5826
  108OSM   C10S11077   5.020   1.976   9.983  0.2541  0.2714 -0.1853
  108OSM   H10S11078   4.953   1.932  10.061  0.0770  0.7694 -0.0519
  108OSM   H10T11079   5.077   1.891   9.939  0.2099 -0.1056  0.4726
  108OSM   C11S11080   4.919   2.031   9.873  0.4194 -0.3253 -0.3675
  108OSM   H11S11081   4.877   2.126   9.913 -2.9914 -2.3185  1.2797
  108OSM   H11T11082   4.839   1.953   9.874  0.5217 -0.4279  0.1883
  108OSM   C12S11083   4.971   2.054   9.728  0.0092 -0.0646 -0.8984
  108OSM   H12S11084   5.000   1.957   9.683  1.9550  0.5884 -1.1303
  108OSM   H12T11085   5.057   2.124   9.734  0.0330 -0.2109  1.8478
  108OSM   C13S11086   4.864   2.111   9.639  0.0267 -0.1875  0.2002
  108OSM   H13S11087   4.847   2.213   9.681  0.2750  0.3524 -0.9610
  108OSM   H13T11088   4.777   2.043   9.645 -1.7995  1.7959 -1.6416
  108OSM   C14S11089   4.909   2.141   9.493 -0.3916 -0.5991 -0.7584
  108OSM   H14S11090   5.012   2.182   9.502 -0.7281  0.5882 -1.9857
  108OSM   H14T11091   4.846   2.218   9.444 -2.2376 -0.2759  1.8804
  108OSM   C15S11092   4.890   2.015   9.399 -0.4222 -0.1999  0.3112
  108OSM   H15S11093   4.788   1.974   9.415 -0.7918  1.1649  1.6694
  108OSM   H15T11094   4.963   1.938   9.432 -0.2460  0.0688  0.5592
  108OSM   C16S11095   4.901   2.044   9.243 -0.5649  0.4467 -0.0789
  108OSM   H16S11096   4.904   1.948   9.187 -1.4586  0.0470  0.5232
  108OSM   H16T11097   4.996   2.100   9.231 -0.7713  0.8337  0.0593
  108OSM   C17S11098   4.782   2.131   9.187  0.1208  0.0125  0.2003
  108OSM   H17S11099   4.760   2.219   9.251  0.1077 -0.0375  0.2648
  108OSM   H17T11100   4.692   2.066   9.195 -0.6065  1.0896  1.1151
  108OSM   C18S11101   4.819   2.162   9.040  0.3692 -0.0821  0.4140
  108OSM   H18S11102   4.881   2.254   9.032 -1.1713  1.0364  0.8748
  108OSM   H18T11103   4.727   2.170   8.978  1.5512 -2.4332 -1.8758
  108OSM   H18U11104   4.883   2.079   9.002  1.5062 -0.1194  2.3079
  108OSM    C1F11105   5.426   2.403  10.138 -0.1649 -0.5391 -0.1605
  108OSM     OF11106   5.550   2.391  10.149 -0.0781 -0.0728 -0.6643
  108OSM    C2F11107   5.353   2.428  10.014  0.1039 -0.2038 -0.7503
  108OSM    H2F11108   5.370   2.530   9.975 -1.6959  0.5547  0.3234
  108OSM    H2G11109   5.244   2.413  10.025 -0.1359  0.9739 -1.3704
  108OSM    C3F11110   5.395   2.325   9.896 -0.4520 -0.1443 -0.3090
  108OSM    H3F11111   5.367   2.222   9.926 -0.8864 -0.9279 -3.0759
  108OSM    H3G11112   5.504   2.337   9.878 -0.2817  1.7707  1.6046
  108OSM    C4F11113   5.311   2.335   9.764  0.0571  0.5248  0.2283
  108OSM    H4F11114   5.203   2.323   9.785  0.2538  3.6908  4.1143
  108OSM    H4G11115   5.356   2.252   9.704  2.0966  2.5642 -1.2837
  108OSM    C5F11116   5.336   2.455   9.670 -0.2438  0.8354  0.0766
  108OSM    H5F11117   5.445   2.456   9.645 -0.1842 -0.6937  0.1775
  108OSM    H5G11118   5.311   2.543   9.732 -0.1077 -0.5390  2.1713
  108OSM    C6F11119   5.252   2.454   9.548 -0.2439  0.1737 -0.1269
  108OSM    H6F11120   5.252   2.556   9.504  0.9286  0.3673  0.2745
  108OSM    H6G11121   5.145   2.439   9.573  0.2843  0.5739  2.6340
  108OSM    C7F11122   5.286   2.358   9.429 -0.1866  0.4028 -0.8196
  108OSM    H7F11123   5.262   2.261   9.476  1.6064  0.0798 -0.5078
  108OSM    H7G11124   5.395   2.361   9.407 -0.3452  1.8633 -1.5170
  108OSM    C8F11125   5.201   2.376   9.310 -1.5503  0.1765  0.0773
  108OSM    H8F11126   5.097   2.380   9.349 -1.4778 -0.2877  0.3217
  108OSM    H8G11127   5.219   2.287   9.246  1.3812  0.5199  0.2837
  108OSM    C9F11128   5.232   2.508   9.240  0.0917  0.7763 -0.1118
  108OSM    H9F11129   5.279   2.587   9.300  0.8379  0.5612 -0.4108
  108OSM   C10F11130   5.218   2.531   9.108 -0.1525  0.3904 -0.6769
  108OSM   H10F11131   5.249   2.629   9.068  3.1222 -0.2309  0.0958
  108OSM   C11F11132   5.188   2.431   9.006 -0.7717 -0.1378  0.4106
  108OSM   H11F11133   5.132   2.345   9.050 -1.3213 -0.5127 -0.9680
  108OSM   H11G11134   5.285   2.395   8.965 -1.7732 -1.0517 -1.3020
  108OSM   C12F11135   5.085   2.485   8.900  0.1096  0.0955 -0.0630
  108OSM   H12F11136   5.120   2.588   8.877  1.4072 -0.4999 -0.8298
  108OSM   H12G11137   4.987   2.509   8.947  0.7862 -0.7050  1.8703
  108OSM   C13F11138   5.086   2.407   8.765  0.5679  0.2711  0.6913
  108OSM   H13F11139   5.056   2.303   8.790 -2.4871  0.6826 -0.7733
  108OSM   H13G11140   5.191   2.410   8.729  0.1826 -0.6638 -0.6242
  108OSM   C14F11141   4.988   2.462   8.660  0.2554  0.1311  0.2797
  108OSM   H14F11142   5.033   2.549   8.607 -2.8433 -0.8307 -4.5250
  108OSM   H14G11143   4.890   2.475   8.712  0.5376 -3.3826  2.0256
  108OSM   C15F11144   4.974   2.359   8.546 -0.6546 -0.2706  0.0881
  108OSM   H15F11145   4.920   2.273   8.591 -0.7692  0.4666  1.4005
  108OSM   H15G11146   5.069   2.326   8.500 -0.5284 -0.0815  0.2103
  108OSM   C16F11147   4.886   2.403   8.430  0.4098 -0.1238 -0.4825
  108OSM   H16F11148   4.802   2.461   8.474  0.4737 -0.3869 -0.0055
  108OSM   H16G11149   4.845   2.312   8.382  2.7019 -0.7666 -1.3478
  108OSM   C17F11150   4.954   2.500   8.336  0.4052  0.2393  0.2397
  108OSM   H17F11151   4.967   2.600   8.381  0.3310  0.7601 -0.8735
  108OSM   H17G11152   4.876   2.524   8.260  0.7133  0.6852  0.0623
  108OSM   C18F11153   5.082   2.456   8.269  0.0842  0.4727  0.1631
  108OSM   H18F11154   5.157   2.425   8.345 -1.2557  1.5010  1.9491
  108OSM   H18G11155   5.108   2.547   8.210 -1.6094 -0.1139 -1.6008
  108OSM   H18H11156   5.052   2.372   8.203 -1.2871  0.1561  1.1679
  109OSM      N11157   3.183   1.901  10.850  0.0545  0.1960  0.0760
  109OSM    C1511158   3.187   2.002  10.967  0.5142  1.0537 -0.4175
  109OSM   H15A11159   3.153   1.965  11.063  2.1804  1.8462  0.5135
  109OSM   H15B11160   3.126   2.085  10.934 -2.4868 -0.7471  0.2102
  109OSM   H15C11161   3.284   2.034  11.003  0.7153  1.2006 -1.0765
  109OSM    C1411162   3.042   1.875  10.808 -0.8523  0.5558 -0.7211
  109OSM   H14A11163   2.991   1.811  10.879 -0.1478 -1.0291 -1.5988
  109OSM   H14B11164   3.038   1.823  10.714 -1.5804 -0.5615 -0.1106
  109OSM   H14C11165   2.979   1.962  10.794 -1.1558  0.1666 -1.8224
  109OSM    C1311166   3.261   1.975  10.743 -0.2208  0.6925 -0.3487
  109OSM   H13A11167   3.368   1.969  10.757 -0.3210 -0.6113 -0.0561
  109OSM   H13B11168   3.231   2.077  10.726  0.6215  0.9570 -0.3235
  109OSM   H13C11169   3.251   1.926  10.648  2.2961 -0.6636 -0.0021
  109OSM    C1211170   3.254   1.773  10.889  0.1415  0.2393 -0.2770
  109OSM   H12A11171   3.356   1.790  10.921 -0.8088  0.1211  3.1219
  109OSM   H12B11172   3.256   1.704  10.805  1.7726  1.3961 -1.2572
  109OSM    C1111173   3.187   1.685  10.991 -0.8333  0.0198  0.5383
  109OSM   H11A11174   3.179   1.747  11.083  3.6590 -0.3750  1.4178
  109OSM   H11B11175   3.264   1.608  11.012  1.1485  1.8503  0.3920
  109OSM      P11176   3.065   1.500  10.871  0.3243  0.0475  0.1084
  109OSM    O1311177   3.127   1.400  10.955  0.2426 -0.1003  0.9642
  109OSM    O1411178   2.928   1.479  10.812  0.0187 -0.7416  0.2920
  109OSM    O1111179   3.161   1.528  10.751  0.0974  0.3674 -1.3803
  109OSM    O1211180   3.065   1.628  10.957 -0.4222 -0.0950  0.2923
  109OSM    C1S11181   3.107   1.524  10.617  0.1929 -0.0110  0.4924
  109OSM    H1S11182   3.035   1.608  10.605  1.9942  1.3209 -1.9815
  109OSM    H1T11183   3.063   1.424  10.600  1.1238 -0.8241  2.5514
  109OSM     NF11184   3.158   1.597  10.390 -0.3306 -0.4256  0.0561
  109OSM    HNF11185   3.162   1.520  10.327 -0.2420  1.2405 -2.0639
  109OSM    C2S11186   3.221   1.554  10.517  0.4031  0.3412  0.5768
  109OSM    H2S11187   3.272   1.644  10.559  1.4925  0.6239 -1.2261
  109OSM    C3S11188   3.321   1.445  10.499  0.3565  0.3224 -0.0984
  109OSM    H3S11189   3.273   1.362  10.443  0.5649  1.1787 -1.5860
  109OSM     O311190   3.380   1.393  10.618  0.1423  0.7429 -0.0357
  109OSM    HO311191   3.353   1.463  10.678  1.0679  0.3700  0.8430
  109OSM    C4S11192   3.440   1.499  10.425 -0.4115  0.5820 -0.1748
  109OSM    H4S11193   3.500   1.566  10.487 -0.1967  0.0748  0.1755
  109OSM    C5S11194   3.485   1.479  10.301 -0.3303  0.0754  0.2778
  109OSM    H5S11195   3.423   1.434  10.222 -1.0436 -0.2557  1.0085
  109OSM    C6S11196   3.604   1.540  10.251  0.3485  0.1506  0.1730
  109OSM    H6S11197   3.673   1.573  10.332 -2.3521  1.0908  2.2369
  109OSM    H6T11198   3.572   1.631  10.197 -0.5769 -0.6164 -0.5934
  109OSM    C7S11199   3.687   1.450  10.151  0.3121 -0.9799 -0.2705
  109OSM    H7S11200   3.615   1.420  10.072 -1.3489  3.0051 -0.5003
  109OSM    H7T11201   3.729   1.362  10.205  2.3521 -0.1859 -0.4998
  109OSM    C8S11202   3.808   1.538  10.105 -0.6788 -0.1603  0.1279
  109OSM    H8S11203   3.881   1.553  10.188 -0.4314  0.0591 -0.1233
  109OSM    H8T11204   3.772   1.633  10.060 -2.2568 -0.7503  0.1035
  109OSM    C9S11205   3.905   1.476   9.999  0.1670 -0.6401  0.5447
  109OSM    H9S11206   3.950   1.379  10.028 -1.0624 -1.0530  1.1311
  109OSM    H9T11207   3.994   1.539   9.975 -1.0614  0.5084 -1.2187
  109OSM   C10S11208   3.836   1.471   9.858 -0.1381 -0.5263 -0.5997
  109OSM   H10S11209   3.784   1.568   9.842 -0.4356 -0.3506  1.2585
  109OSM   H10T11210   3.757   1.394   9.871 -0.0211 -0.3138  1.7312
  109OSM   C11S11211   3.928   1.445   9.739 -0.2105 -0.0150  1.0937
  109OSM   H11S11212   4.000   1.365   9.766  0.3884  0.8639  2.2005
  109OSM   H11T11213   3.984   1.540   9.728 -0.9826  0.2038 -1.8052
  109OSM   C12S11214   3.857   1.408   9.604 -0.1037  0.4953  0.2376
  109OSM   H12S11215   3.765   1.469   9.595 -0.4795 -0.0946  0.0836
  109OSM   H12T11216   3.826   1.302   9.606  0.5954  0.2742  2.3231
  109OSM   C13S11217   3.950   1.433   9.481  0.0858  0.0511  0.1881
  109OSM   H13S11218   4.044   1.376   9.494 -0.1794 -0.4376 -0.0205
  109OSM   H13T11219   3.977   1.541   9.476  1.3318 -0.2657 -0.1390
  109OSM   C14S11220   3.884   1.401   9.342 -0.4899  0.1689  0.2152
  109OSM   H14S11221   3.871   1.290   9.335 -1.6936  0.2297  1.2193
  109OSM   H14T11222   3.957   1.431   9.264  1.3023 -1.6414  1.0944
  109OSM   C15S11223   3.750   1.472   9.329 -0.1787 -0.5861 -0.8278
  109OSM   H15S11224   3.785   1.574   9.355 -0.8178  0.0792 -2.4663
  109OSM   H15T11225   3.669   1.431   9.393  0.3304 -2.3054 -1.2187
  109OSM   C16S11226   3.688   1.487   9.193  0.4498  0.4968  0.4186
  109OSM   H16S11227   3.768   1.536   9.133  0.4529 -0.7518 -0.6399
  109OSM   H16T11228   3.603   1.557   9.204  0.3187  0.4292 -0.1049
  109OSM   C17S11229   3.645   1.362   9.107 -0.8259  0.2843  0.5267
  109OSM   H17S11230   3.575   1.296   9.162  0.9928 -0.6281  1.8768
  109OSM   H17T11231   3.732   1.299   9.080 -1.1900  0.2720 -0.6520
  109OSM   C18S11232   3.587   1.420   8.976 -0.0967 -0.0851 -0.0098
  109OSM   H18S11233   3.511   1.498   8.997  0.8990  1.0739 -0.5180
  109OSM   H18T11234   3.553   1.342   8.904  1.0475  0.8695 -1.6457
  109OSM   H18U11235   3.675   1.458   8.919 -0.3373  0.7301  0.1560
  109OSM    C1F11236   3.077   1.702  10.372  1.0733 -0.3462  0.9815
  109OSM     OF11237   3.058   1.784  10.466  0.0483 -0.1726 -0.0246
  109OSM    C2F11238   3.014   1.733  10.231 -0.0379  0.3277  0.0174
  109OSM    H2F11239   2.934   1.658  10.215  0.9004 -0.7038  0.0725
  109OSM    H2G11240   3.100   1.730  10.161 -0.6459 -1.6337 -0.7041
  109OSM    C3F11241   2.946   1.871  10.223  0.1130  0.1910  0.0313
  109OSM    H3F11242   3.011   1.958  10.249  0.2096  0.8103 -2.0877
  109OSM    H3G11243   2.854   1.870  10.285  0.8285  1.6764  1.1842
  109OSM    C4F11244   2.900   1.892  10.080  0.6469  1.2084  0.5011
  109OSM    H4F11245   2.978   1.879  10.002  0.6387  2.0849  0.3323
  109OSM    H4G11246   2.871   1.999  10.070 -1.4153  0.6691  0.1943
  109OSM    C5F11247   2.781   1.804  10.037  0.4090  0.4186  0.5607
  109OSM    H5F11248   2.722   1.795  10.131  2.8124  0.1359  2.1190
  109OSM    H5G11249   2.816   1.700  10.021  1.2813  1.0516 -2.1779
  109OSM    C6F11250   2.702   1.838   9.907 -0.0850  0.5898 -0.2701
  109OSM    H6F11251   2.752   1.929   9.869 -0.2272  1.2836  1.1496
  109OSM    H6G11252   2.597   1.866   9.933 -0.5801 -0.8737 -0.5737
  109OSM    C7F11253   2.692   1.725   9.804 -0.4930  0.3342  0.0289
  109OSM    H7F11254   2.662   1.628   9.849  1.2175 -0.8855 -1.3357
  109OSM    H7G11255   2.796   1.712   9.768 -0.7634  0.3583 -0.7683
  109OSM    C8F11256   2.610   1.763   9.676  0.0974 -0.1520 -0.1708
  109OSM    H8F11257   2.516   1.796   9.724  1.1326  0.9007  1.2390
  109OSM    H8G11258   2.578   1.672   9.622 -3.7443  0.1503  1.2747
  109OSM    C9F11259   2.670   1.871   9.589 -0.8996 -0.0911  0.2557
  109OSM    H9F11260   2.720   1.953   9.642 -0.7133 -0.8764  1.3405
  109OSM   C10F11261   2.688   1.863   9.454  0.4145 -0.1183  0.0943
  109OSM   H10F11262   2.724   1.956   9.407  1.9058 -0.2492  0.9327
  109OSM   C11F11263   2.665   1.754   9.354 -0.7797  0.1557 -0.2060
  109OSM   H11F11264   2.629   1.668   9.415  0.2712 -1.6074 -1.9500
  109OSM   H11G11265   2.756   1.717   9.301 -0.9252  1.3648 -1.3415
  109OSM   C12F11266   2.560   1.773   9.247  0.0567  0.1932  0.4046
  109OSM   H12F11267   2.474   1.835   9.283  0.3671  1.3681 -0.7577
  109OSM   H12G11268   2.517   1.677   9.213  1.0582  0.0357 -0.4651
  109OSM   C13F11269   2.606   1.843   9.115 -0.4141  0.9538  0.3251
  109OSM   H13F11270   2.690   1.794   9.061 -2.0371 -1.3551 -0.2537
  109OSM   H13G11271   2.642   1.942   9.150  2.5315 -0.5151  1.7646
  109OSM   C14F11272   2.501   1.861   9.008  0.8550 -0.9521  0.4531
  109OSM   H14F11273   2.413   1.923   9.039  1.0885 -0.1357 -0.4501
  109OSM   H14G11274   2.466   1.756   8.996 -0.8317 -0.6142  1.9017
  109OSM   C15F11275   2.551   1.920   8.871 -0.1261 -0.1149  0.2036
  109OSM   H15F11276   2.633   1.851   8.841 -0.5573 -0.6826  0.3178
  109OSM   H15G11277   2.602   2.017   8.886 -3.4116  1.4033  2.6618
  109OSM   C16F11278   2.449   1.927   8.755 -0.6543 -0.1458  0.3817
  109OSM   H16F11279   2.424   2.035   8.746  3.5251  0.9380 -0.7026
  109OSM   H16G11280   2.356   1.873   8.782 -2.4820  2.9914  0.8655
  109OSM   C17F11281   2.489   1.885   8.606 -0.8868 -0.6909 -0.4906
  109OSM   H17F11282   2.394   1.895   8.548 -0.8111  0.5850 -0.4223
  109OSM   H17G11283   2.542   1.788   8.619 -0.0476 -0.1944 -0.1924
  109OSM   C18F11284   2.589   1.982   8.551 -0.4493 -0.5573  0.0171
  109OSM   H18F11285   2.556   2.088   8.552  0.2612 -0.2750 -2.1045
  109OSM   H18G11286   2.617   1.953   8.448  0.0354 -3.8356  0.9613
  109OSM   H18H11287   2.685   1.987   8.607 -1.2512  1.4246  1.3269
  110OSM      N11288   4.350   6.509  11.401  0.3213 -0.4863  0.1739
  110OSM    C1511289   4.268   6.568  11.516  0.6567 -0.4254 -0.1711
  110OSM   H15A11290   4.254   6.674  11.502 -1.7341 -0.5876  0.4956
  110OSM   H15B11291   4.309   6.554  11.615 -0.8544  0.6610  0.6444
  110OSM   H15C11292   4.166   6.531  11.517  0.7927 -0.9006 -1.4847
  110OSM    C1411293   4.482   6.580  11.395  0.1127  0.1782 -0.0624
  110OSM   H14A11294   4.456   6.683  11.372 -0.1914 -0.1017 -1.0195
  110OSM   H14B11295   4.536   6.543  11.310 -0.7447  1.1509 -1.0634
  110OSM   H14C11296   4.539   6.567  11.486  0.3265 -1.2372 -0.3850
  110OSM    C1311297   4.360   6.366  11.431 -0.1364 -0.2924  0.2642
  110OSM   H13A11298   4.264   6.317  11.436 -0.1116 -0.7029 -2.2997
  110OSM   H13B11299   4.414   6.347  11.523  0.7782 -0.9499 -0.3921
  110OSM   H13C11300   4.422   6.317  11.358 -1.7877  1.7536 -2.7334
  110OSM    C1211301   4.277   6.524  11.266 -0.8261 -0.0480 -0.6732
  110OSM   H12A11302   4.238   6.624  11.251 -1.0606 -0.0111  0.1620
  110OSM   H12B11303   4.187   6.468  11.281 -0.8590  0.2931  0.5387
  110OSM    C1111304   4.354   6.482  11.141  1.0827  0.2013  0.0318
  110OSM   H11A11305   4.277   6.488  11.061 -1.3529 -2.5836  1.9500
  110OSM   H11B11306   4.394   6.378  11.141 -3.8240 -1.9816  1.6933
  110OSM      P11307   4.596   6.561  11.052  0.0453  0.1552 -0.4601
  110OSM    O1311308   4.651   6.692  11.019  0.4222 -0.9278 -0.9291
  110OSM    O1411309   4.670   6.478  11.148  0.4430 -0.1886 -0.1615
  110OSM    O1111310   4.579   6.480  10.924 -0.4899 -0.3135  0.5780
  110OSM    O1211311   4.447   6.580  11.107 -0.3676 -1.2143 -0.5295
  110OSM    C1S11312   4.465   6.506  10.840 -0.2891 -0.0697  0.9449
  110OSM    H1S11313   4.392   6.574  10.888 -0.0322  0.1486  1.0287
  110OSM    H1T11314   4.421   6.412  10.800  1.7986 -0.7722  0.1514
  110OSM     NF11315   4.392   6.640  10.642  0.4613  0.3607 -0.7930
  110OSM    HNF11316   4.343   6.574  10.586  1.2017  0.7815 -1.9693
  110OSM    C2S11317   4.504   6.592  10.714 -0.6058 -0.5536 -0.4333
  110OSM    H2S11318   4.548   6.688  10.748  0.1014 -0.0610 -2.6065
  110OSM    C3S11319   4.614   6.524  10.629 -0.0225  0.1310 -0.6602
  110OSM    H3S11320   4.582   6.421  10.601 -0.1074  0.2391 -0.9704
  110OSM     O311321   4.741   6.500  10.693 -0.0008 -0.5387 -0.3868
  110OSM    HO311322   4.730   6.512  10.787 -0.7075 -0.2819 -0.4979
  110OSM    C4S11323   4.646   6.607  10.501 -0.0138 -0.2960  0.2022
  110OSM    H4S11324   4.661   6.715  10.515  0.9716 -0.5124  0.9398
  110OSM    C5S11325   4.617   6.558  10.379  0.0543 -0.1528  0.1757
  110OSM    H5S11326   4.568   6.463  10.355  1.0261 -1.4564  2.9369
  110OSM    C6S11327   4.647   6.651  10.255 -0.5640  0.0272  0.0232
  110OSM    H6S11328   4.715   6.737  10.274  0.3358 -0.1366 -2.1252
  110OSM    H6T11329   4.551   6.696  10.223 -0.0853  0.0807 -1.4393
  110OSM    C7S11330   4.694   6.564  10.137 -0.5190 -0.8564  0.0752
  110OSM    H7S11331   4.613   6.491  10.116  0.2773 -1.7669  0.0467
  110OSM    H7T11332   4.777   6.494  10.165 -1.2258 -1.2683  1.2017
  110OSM    C8S11333   4.734   6.650  10.023  0.0872  0.5037 -0.1658
  110OSM    H8S11334   4.841   6.641   9.998  0.0631 -1.3712  0.2136
  110OSM    H8T11335   4.716   6.756  10.049  1.5852  0.7882 -0.2181
  110OSM    C9S11336   4.651   6.604   9.907 -0.0920 -0.2444  0.5015
  110OSM    H9S11337   4.552   6.654   9.903  0.3740  0.9430 -5.7091
  110OSM    H9T11338   4.631   6.495   9.906  3.1530 -0.9658  1.2909
  110OSM   C10S11339   4.716   6.641   9.771  0.3910  0.3590 -0.2191
  110OSM   H10S11340   4.816   6.595   9.761  0.0855 -0.3743  0.0695
  110OSM   H10T11341   4.710   6.752   9.762  0.2484  0.4980  1.3548
  110OSM   C11S11342   4.640   6.570   9.657 -0.6020 -0.4601 -0.6517
  110OSM   H11S11343   4.540   6.617   9.669  0.2386  0.9598  1.3899
  110OSM   H11T11344   4.636   6.461   9.678 -3.7582 -0.1448  0.9397
  110OSM   C12S11345   4.700   6.601   9.521  0.2505  0.1058  0.5915
  110OSM   H12S11346   4.808   6.575   9.518  0.4442  0.9804 -0.9611
  110OSM   H12T11347   4.685   6.710   9.506  1.1757 -0.0598 -1.8758
  110OSM   C13S11348   4.636   6.519   9.414  0.4013 -0.2131 -0.1829
  110OSM   H13S11349   4.529   6.545   9.402  0.8224  1.8488  0.1276
  110OSM   H13T11350   4.636   6.412   9.443 -0.6264 -0.5174 -1.2211
  110OSM   C14S11351   4.690   6.531   9.272 -0.5001 -0.4480  0.3041
  110OSM   H14S11352   4.662   6.440   9.214  0.5967 -0.0563 -0.8803
  110OSM   H14T11353   4.798   6.520   9.294 -0.4055  1.4468  0.9156
  110OSM   C15S11354   4.659   6.662   9.198  0.1476 -0.6968  0.7823
  110OSM   H15S11355   4.659   6.751   9.264  0.9734  1.1407 -1.5699
  110OSM   H15T11356   4.556   6.652   9.156 -0.5469 -0.5868  2.3869
  110OSM   C16S11357   4.748   6.698   9.084  0.0625 -0.9007  0.0292
  110OSM   H16S11358   4.751   6.609   9.018 -1.0963  0.6023 -2.1662
  110OSM   H16T11359   4.850   6.720   9.122  0.0336 -0.7504  0.0213
  110OSM   C17S11360   4.692   6.812   9.002  0.9434  0.4435  0.3626
  110OSM   H17S11361   4.643   6.882   9.072 -0.7072  0.1922 -0.4892
  110OSM   H17T11362   4.608   6.775   8.940  0.4885 -1.0538  1.7898
  110OSM   C18S11363   4.798   6.884   8.926  0.6312  0.9864 -0.2893
  110OSM   H18S11364   4.868   6.932   8.997  2.7730 -0.2279 -1.4575
  110OSM   H18T11365   4.760   6.961   8.855 -0.6783 -0.5130 -1.3091
  110OSM   H18U11366   4.859   6.815   8.864 -1.0513  0.7065 -1.7179
  110OSM    C1F11367   4.330   6.752  10.680  0.0205 -0.2078 -0.9796
  110OSM     OF11368   4.363   6.812  10.785  0.1419 -0.0600  0.3043
  110OSM    C2F11369   4.207   6.795  10.602  0.4926  0.4633  0.6354
  110OSM    H2F11370   4.215   6.897  10.558  1.1212 -0.0406 -0.4633
  110OSM    H2G11371   4.126   6.804  10.677  1.0560 -1.2501  1.4934
  110OSM    C3F11372   4.165   6.692  10.495 -0.4458  0.9364 -0.1135
  110OSM    H3F11373   4.143   6.599  10.552  0.2261  0.9333  0.1526
  110OSM    H3G11374   4.252   6.673  10.429  0.4588 -0.9232  1.5063
  110OSM    C4F11375   4.040   6.739  10.415 -0.6010 -0.3115 -0.1372
  110OSM    H4F11376   4.065   6.835  10.366  0.1211 -1.0343 -1.2178
  110OSM    H4G11377   3.950   6.748  10.480 -0.4947 -0.3881  0.0216
  110OSM    C5F11378   4.008   6.649  10.297 -0.5796  0.2525 -0.3050
  110OSM    H5F11379   3.999   6.547  10.341 -1.6412  1.1016  1.5447
  110OSM    H5G11380   4.100   6.643  10.235 -0.4690 -1.2052 -0.0379
  110OSM    C6F11381   3.887   6.675  10.219  0.3499 -0.1176 -0.1918
  110OSM    H6F11382   3.910   6.739  10.131 -1.2276  0.3961 -0.2581
  110OSM    H6G11383   3.818   6.732  10.284  2.0664 -0.2100  1.8435
  110OSM    C7F11384   3.826   6.547  10.160  0.2098  0.5816 -0.3135
  110OSM    H7F11385   3.792   6.482  10.243  0.9064 -0.9014 -1.1520
  110OSM    H7G11386   3.910   6.500  10.105 -0.0119 -0.6469  0.3517
  110OSM    C8F11387   3.699   6.573  10.068 -0.2297  0.7836 -0.5848
  110OSM    H8F11388   3.723   6.647   9.989  0.3017 -0.3680 -1.5445
  110OSM    H8G11389   3.630   6.624  10.137  0.8565  0.5291  0.7393
  110OSM    C9F11390   3.635   6.446  10.019 -0.2157 -0.0677  0.9651
  110OSM    H9F11391   3.605   6.370  10.092 -0.3873 -1.3683 -0.3993
  110OSM   C10F11392   3.608   6.411   9.891 -0.2825 -0.4170  0.2948
  110OSM   H10F11393   3.566   6.311   9.871 -0.6554  0.0196 -1.2593
  110OSM   C11F11394   3.639   6.511   9.773  0.5522 -0.0005  0.1271
  110OSM   H11F11395   3.645   6.614   9.815  1.1157  0.1988 -0.4324
  110OSM   H11G11396   3.559   6.511   9.696 -1.5447  1.9615  2.1370
  110OSM   C12F11397   3.778   6.492   9.706 -0.1148  0.4305 -0.6549
  110OSM   H12F11398   3.812   6.389   9.731 -1.7451 -0.9172 -3.5258
  110OSM   H12G11399   3.855   6.564   9.742  0.8347 -0.4222 -0.9198
  110OSM   C13F11400   3.774   6.492   9.555 -0.5675  0.1193 -0.5266
  110OSM   H13F11401   3.696   6.417   9.528  0.2403 -1.4892  1.3285
  110OSM   H13G11402   3.873   6.467   9.511  0.8871  1.2757  1.8716
  110OSM   C14F11403   3.739   6.627   9.495  0.2497 -0.9676 -0.3100
  110OSM   H14F11404   3.629   6.633   9.506  0.3215 -1.1651  0.6785
  110OSM   H14G11405   3.759   6.625   9.386 -1.7169  0.2243 -0.7377
  110OSM   C15F11406   3.815   6.745   9.557  0.2095  0.2963  0.4993
  110OSM   H15F11407   3.919   6.710   9.545 -0.2503 -0.8642 -0.2641
  110OSM   H15G11408   3.791   6.768   9.663 -0.8216  2.3979 -0.1216
  110OSM   C16F11409   3.788   6.875   9.473 -0.0614  0.0170 -0.1459
  110OSM   H16F11410   3.836   6.840   9.379  0.3188  0.7356 -0.2237
  110OSM   H16G11411   3.845   6.965   9.504 -1.6636  1.0624 -0.1204
  110OSM   C17F11412   3.636   6.907   9.449  0.3980  0.4108 -0.5372
  110OSM   H17F11413   3.568   6.895   9.536  0.9441  0.2033 -0.1358
  110OSM   H17G11414   3.600   6.836   9.372  1.2735 -1.0946  0.3946
  110OSM   C18F11415   3.621   7.047   9.401 -0.1054  0.2470 -0.2798
  110OSM   H18F11416   3.678   7.120   9.462  1.7885 -0.9159 -0.5838
  110OSM   H18G11417   3.518   7.083   9.382 -0.6690 -0.7434  0.7396
  110OSM   H18H11418   3.673   7.054   9.303 -0.7355 -0.9533 -0.7219
  111OSM      N11419   6.130   5.404  10.930  0.1151 -0.4248  0.0362
  111OSM    C1511420   6.166   5.549  10.966 -0.1940  0.0643  0.3517
  111OSM   H15A11421   6.271   5.569  10.949 -0.1001  2.8109  3.1400
  111OSM   H15B11422   6.156   5.570  11.072 -1.4189 -1.8695  0.6465
  111OSM   H15C11423   6.107   5.620  10.910 -0.9967 -2.8041 -2.6903
  111OSM    C1411424   6.221   5.305  11.000 -0.1608 -0.5107  0.6918
  111OSM   H14A11425   6.319   5.316  10.957  0.0055 -1.6737  0.7423
  111OSM   H14B11426   6.184   5.209  10.969  0.7506 -0.5834 -0.2231
  111OSM   H14C11427   6.222   5.329  11.105  0.5311  2.6727  0.0706
  111OSM    C1311428   5.988   5.382  10.982 -0.5965 -0.4773  0.3574
  111OSM   H13A11429   5.922   5.460  10.949  1.2851  1.0176 -0.0239
  111OSM   H13B11430   5.995   5.385  11.090  1.3043  0.9640  0.2234
  111OSM   H13C11431   5.946   5.289  10.946  1.2314 -0.7820 -1.1697
  111OSM    C1211432   6.136   5.394  10.782  0.3653  0.4106 -0.5035
  111OSM   H12A11433   6.235   5.421  10.749  0.4806  1.7390  0.8539
  111OSM   H12B11434   6.067   5.460  10.732  0.6251 -0.5289 -2.1951
  111OSM    C1111435   6.104   5.253  10.723  0.2349  0.3406  0.7990
  111OSM   H11A11436   6.090   5.261  10.614  0.3307  1.6376  0.8648
  111OSM   H11B11437   6.007   5.217  10.763 -1.0511  2.1023 -0.5430
  111OSM      P11438   6.350   5.171  10.689  0.4273 -0.4845  0.3773
  111OSM    O1311439   6.403   5.306  10.713  0.0649  0.4621  0.0217
  111OSM    O1411440   6.434   5.059  10.737 -0.3902 -0.0096  0.2645
  111OSM    O1111441   6.311   5.149  10.535 -0.0585  0.3474 -0.0898
  111OSM    O1211442   6.213   5.158  10.757  0.5558 -0.3447 -0.1993
  111OSM    C1S11443   6.230   5.044  10.483 -0.0817 -0.4524  0.5821
  111OSM    H1S11444   6.125   5.043  10.521 -0.0568 -0.7190  0.6455
  111OSM    H1T11445   6.264   4.941  10.504 -1.8520 -0.9575  1.1657
  111OSM     NF11446   6.135   4.951  10.264  0.3419 -0.3225 -0.8275
  111OSM    HNF11447   6.177   4.861  10.256  0.3518 -0.5313  1.0606
  111OSM    C2S11448   6.228   5.051  10.324  0.1665  1.3868 -0.2709
  111OSM    H2S11449   6.189   5.151  10.299  2.3511  2.5396  0.6211
  111OSM    C3S11450   6.374   5.042  10.276 -0.1402  0.0690  0.1135
  111OSM    H3S11451   6.429   4.964  10.333 -0.7766  0.0347  0.6888
  111OSM     O311452   6.451   5.161  10.318 -0.1721  0.2600 -0.5707
  111OSM    HO311453   6.418   5.187  10.404  1.9182  0.6252  0.1692
  111OSM    C4S11454   6.372   5.017  10.127 -0.4280  0.2985  0.1309
  111OSM    H4S11455   6.351   4.912  10.099 -2.0160  0.9089 -1.0910
  111OSM    C5S11456   6.399   5.106  10.026 -0.1682  0.2524 -0.3448
  111OSM    H5S11457   6.427   5.211  10.042 -0.3749  0.0651  1.5150
  111OSM    C6S11458   6.382   5.082   9.875  0.0523  0.9039 -1.1187
  111OSM    H6S11459   6.303   5.140   9.823 -0.1710  1.3858 -0.2581
  111OSM    H6T11460   6.370   4.972   9.869  3.8580  0.2244  0.4970
  111OSM    C7S11461   6.517   5.104   9.794  0.7188  0.7346 -0.4976
  111OSM    H7S11462   6.596   5.041   9.839 -0.2993  0.0758  0.4093
  111OSM    H7T11463   6.540   5.213   9.795 -1.8966  1.3707 -0.5822
  111OSM    C8S11464   6.492   5.061   9.653  0.2939  0.5886 -0.6520
  111OSM    H8S11465   6.391   5.086   9.614  0.1095 -0.4281 -0.8522
  111OSM    H8T11466   6.503   4.951   9.659  3.3385  0.8227 -0.2987
  111OSM    C9S11467   6.588   5.118   9.555 -0.4419  1.2348 -0.5259
  111OSM    H9S11468   6.694   5.110   9.587  0.3382  2.9253 -2.4178
  111OSM    H9T11469   6.560   5.226   9.549  1.3422  1.8155  0.9592
  111OSM   C10S11470   6.569   5.064   9.414  0.0064 -0.3232  0.4559
  111OSM   H10S11471   6.459   5.062   9.397 -0.0618 -1.2878  0.9457
  111OSM   H10T11472   6.612   4.962   9.423  0.4063 -0.0564  1.8753
  111OSM   C11S11473   6.628   5.153   9.300  0.3966 -0.2617  0.4568
  111OSM   H11S11474   6.738   5.159   9.319  0.2334 -3.1349  2.9140
  111OSM   H11T11475   6.573   5.249   9.308  0.4113 -0.2702  0.6836
  111OSM   C12S11476   6.611   5.102   9.155 -0.1269  0.6251 -0.1022
  111OSM   H12S11477   6.503   5.099   9.127 -0.1079 -0.5146 -0.1323
  111OSM   H12T11478   6.646   4.997   9.146 -0.9645  0.1824  1.4561
  111OSM   C13S11479   6.688   5.185   9.050 -0.7436  0.2088 -0.1024
  111OSM   H13S11480   6.793   5.176   9.083 -1.1417 -0.5027  1.0301
  111OSM   H13T11481   6.643   5.287   9.053 -3.3044 -0.8355 -0.4517
  111OSM   C14S11482   6.683   5.118   8.908  0.5575  0.0097 -0.6057
  111OSM   H14S11483   6.581   5.080   8.886  0.4346 -2.1186  2.9338
  111OSM   H14T11484   6.758   5.037   8.908  1.2224  0.6077 -1.4354
  111OSM   C15S11485   6.715   5.216   8.794  0.1932  0.2958  0.7719
  111OSM   H15S11486   6.810   5.269   8.817 -1.0583  2.9559  0.2107
  111OSM   H15T11487   6.646   5.303   8.791  1.7883  1.5981  0.3834
  111OSM   C16S11488   6.722   5.136   8.669 -0.2121 -0.1175  1.1400
  111OSM   H16S11489   6.650   5.051   8.671  1.8447 -1.9933  0.3932
  111OSM   H16T11490   6.823   5.095   8.651 -0.3920  0.4475 -1.5997
  111OSM   C17S11491   6.678   5.220   8.544  0.3151 -0.6176 -0.9647
  111OSM   H17S11492   6.569   5.242   8.535  0.4634  0.9736  0.7293
  111OSM   H17T11493   6.699   5.162   8.451  1.0987  1.3303 -2.0431
  111OSM   C18S11494   6.754   5.354   8.532 -0.1095 -0.0233 -0.0064
  111OSM   H18S11495   6.734   5.384   8.427  0.1361 -0.6701 -0.2476
  111OSM   H18T11496   6.862   5.349   8.555 -0.3882 -0.8185  1.2330
  111OSM   H18U11497   6.707   5.428   8.600  1.4819  0.2217  0.8647
  111OSM    C1F11498   5.999   4.949  10.291 -0.3525  0.2154 -0.0386
  111OSM     OF11499   5.937   5.041  10.339 -0.4938 -0.3840  0.0058
  111OSM    C2F11500   5.935   4.821  10.245  0.2650  0.8377 -0.0836
  111OSM    H2F11501   5.957   4.757  10.333 -0.7585 -1.5515 -1.4540
  111OSM    H2G11502   5.993   4.784  10.157 -1.3047  0.7283 -1.1117
  111OSM    C3F11503   5.782   4.819  10.216 -0.2461  0.5225  0.2924
  111OSM    H3F11504   5.729   4.870  10.299  2.0391  1.1694  1.4409
  111OSM    H3G11505   5.756   4.711  10.218 -0.2530  0.5117  2.3227
  111OSM    C4F11506   5.751   4.885  10.086 -0.4276  0.1261 -0.2491
  111OSM    H4F11507   5.834   4.870  10.014 -0.8469  3.1849 -1.5428
  111OSM    H4G11508   5.749   4.996  10.098 -0.6522  0.0252  0.7903
  111OSM    C5F11509   5.626   4.830  10.024  0.3126  0.0546 -0.0794
  111OSM    H5F11510   5.549   4.833  10.104  0.7373  0.5153  0.3177
  111OSM    H5G11511   5.653   4.726   9.993  0.4926 -0.0412  0.3870
  111OSM    C6F11512   5.591   4.903   9.894  0.9162 -0.2699  0.3397
  111OSM    H6F11513   5.671   4.894   9.817 -0.1193 -0.5934 -0.7365
  111OSM    H6G11514   5.580   5.012   9.913  0.8746 -0.1796 -0.1741
  111OSM    C7F11515   5.467   4.846   9.816  0.5607 -0.4835  0.5258
  111OSM    H7F11516   5.376   4.853   9.878  0.4682 -3.1096  0.8213
  111OSM    H7G11517   5.487   4.736   9.823  1.1759 -0.3471  1.0296
  111OSM    C8F11518   5.457   4.898   9.675 -0.4002 -0.2329 -0.4011
  111OSM    H8F11519   5.377   4.845   9.621 -1.5396 -1.7873  2.5605
  111OSM    H8G11520   5.547   4.874   9.616  0.8689  1.7691  0.5778
  111OSM    C9F11521   5.435   5.046   9.669 -0.1668 -0.3522 -0.4125
  111OSM    H9F11522   5.333   5.070   9.704 -0.8619 -3.9435  0.4453
  111OSM   C10F11523   5.508   5.149   9.623  0.4800 -0.2732  0.0763
  111OSM   H10F11524   5.481   5.250   9.657  1.1489 -0.2328  0.5009
  111OSM   C11F11525   5.644   5.145   9.549 -0.9140  0.4119 -0.3021
  111OSM   H11F11526   5.706   5.059   9.582  1.9882  2.2489 -0.5826
  111OSM   H11G11527   5.699   5.238   9.576 -2.8902  1.5607  0.0077
  111OSM   C12F11528   5.612   5.152   9.404  0.2180 -0.3951 -0.1519
  111OSM   H12F11529   5.554   5.244   9.382  1.2833 -0.0981 -1.8705
  111OSM   H12G11530   5.543   5.066   9.385  0.5175 -0.5165 -0.7233
  111OSM   C13F11531   5.734   5.119   9.323  0.4982  0.0059 -0.2986
  111OSM   H13F11532   5.791   5.031   9.361  0.7301  0.7283  1.1097
  111OSM   H13G11533   5.808   5.199   9.344  0.9739 -0.4523 -0.1907
  111OSM   C14F11534   5.716   5.105   9.170  0.1695 -0.1406 -0.1028
  111OSM   H14F11535   5.634   5.177   9.146  0.1118 -0.3541 -0.5475
  111OSM   H14G11536   5.691   5.002   9.139 -0.4372 -0.5629  1.6376
  111OSM   C15F11537   5.847   5.148   9.101 -0.0625  0.3254 -0.5492
  111OSM   H15F11538   5.921   5.069   9.125 -0.7723  0.1130  1.0466
  111OSM   H15G11539   5.887   5.245   9.138 -1.2397  0.4899  0.3419
  111OSM   C16F11540   5.841   5.158   8.948 -0.3586 -0.2091  0.3054
  111OSM   H16F11541   5.802   5.259   8.927 -0.4509  0.1970  2.1946
  111OSM   H16G11542   5.781   5.086   8.889 -0.7651  1.5546 -1.5393
  111OSM   C17F11543   5.982   5.155   8.894  0.1530  0.9860  0.2499
  111OSM   H17F11544   6.026   5.054   8.902 -1.8412 -0.0059 -0.5671
  111OSM   H17G11545   6.043   5.223   8.959 -0.8298 -0.1357  2.4704
  111OSM   C18F11546   5.996   5.194   8.744 -0.2344  0.1617  0.1468
  111OSM   H18F11547   6.101   5.209   8.709 -0.4617  3.8675  0.7112
  111OSM   H18G11548   5.949   5.293   8.730  1.0950  1.0026  1.3190
  111OSM   H18H11549   5.949   5.121   8.675  0.9019 -1.6273  1.1853
  112OSM      N11550   5.245   2.722  10.887 -0.1288 -0.4633  0.5321
  112OSM    C1511551   5.368   2.802  10.945  0.0127 -0.5098  0.5690
  112OSM   H15A11552   5.381   2.776  11.049 -0.3252 -2.3880  0.1756
  112OSM   H15B11553   5.342   2.906  10.949 -0.8099 -0.7418  1.7062
  112OSM   H15C11554   5.455   2.779  10.884  0.0876  0.2922  0.3635
  112OSM    C1411555   5.282   2.585  10.899  0.0549 -0.2568 -0.5368
  112OSM   H14A11556   5.207   2.526  10.848 -0.7867  1.7039 -1.6823
  112OSM   H14B11557   5.295   2.546  10.999  1.2618  0.7817 -0.2767
  112OSM   H14C11558   5.378   2.570  10.853  1.2755  1.7758  1.2023
  112OSM    C1311559   5.127   2.746  10.976 -0.1911  0.2719  0.5742
  112OSM   H13A11560   5.048   2.687  10.932 -0.9611  1.1173  0.7992
  112OSM   H13B11561   5.096   2.849  10.967 -2.8169 -0.4034  0.8757
  112OSM   H13C11562   5.143   2.709  11.076  0.5624 -2.2834 -0.4128
  112OSM    C1211563   5.219   2.759  10.747 -0.2796 -0.3617  0.5017
  112OSM   H12A11564   5.313   2.784  10.701 -0.4356  0.4294  0.6011
  112OSM   H12B11565   5.170   2.855  10.751  0.3752 -0.0190  0.4459
  112OSM    C1111566   5.137   2.669  10.659  0.5462  0.5724 -0.3619
  112OSM   H11A11567   5.185   2.569  10.649  0.0366  0.2145  0.6317
  112OSM   H11B11568   5.143   2.715  10.558  0.8026 -3.0234 -2.1588
  112OSM      P11569   4.935   2.528  10.726  0.6684  0.0664  0.1618
  112OSM    O1311570   5.006   2.449  10.828  0.0580 -0.4083 -0.1749
  112OSM    O1411571   4.791   2.561  10.756  0.4425  0.2537  0.0198
  112OSM    O1111572   4.931   2.463  10.580 -0.0025 -0.1670  0.2320
  112OSM    O1211573   5.003   2.666  10.707 -0.0013 -0.4025 -0.2331
  112OSM    C1S11574   4.877   2.527  10.462  0.2700  0.3478  0.1270
  112OSM    H1S11575   4.946   2.604  10.423 -1.0777  0.7488 -1.6130
  112OSM    H1T11576   4.783   2.583  10.484 -0.4723 -1.1196  0.8294
  112OSM     NF11577   4.866   2.479  10.220 -0.2474 -0.6937 -0.2833
  112OSM    HNF11578   4.781   2.488  10.169 -2.6359  1.3870  3.5417
  112OSM    C2S11579   4.847   2.422  10.348 -0.3432  0.1686 -0.0973
  112OSM    H2S11580   4.916   2.337  10.362 -0.7602 -0.0310  0.7880
  112OSM    C3S11581   4.697   2.372  10.365  0.3873 -0.0550  0.4324
  112OSM    H3S11582   4.627   2.456  10.344  0.2790 -0.4038 -0.6488
  112OSM     O311583   4.679   2.325  10.499 -0.3627 -0.0089  0.2209
  112OSM    HO311584   4.768   2.334  10.533 -0.2868  3.7745 -0.5094
  112OSM    C4S11585   4.660   2.256  10.279 -0.9242  0.1947  0.3055
  112OSM    H4S11586   4.695   2.164  10.329  1.2821  0.8964  0.1668
  112OSM    C5S11587   4.577   2.250  10.173  0.0735 -0.4568 -0.4787
  112OSM    H5S11588   4.524   2.345  10.153  1.2322  0.3521  0.1727
  112OSM    C6S11589   4.527   2.126  10.107  0.4832  0.2885  0.3556
  112OSM    H6S11590   4.419   2.112  10.126  0.6694 -0.5629  0.8722
  112OSM    H6T11591   4.564   2.033  10.155  0.2369 -0.1311 -0.2572
  112OSM    C7S11592   4.548   2.114   9.956  0.2752 -0.7409 -0.3645
  112OSM    H7S11593   4.521   2.011   9.926 -1.9367 -0.1265 -0.6993
  112OSM    H7T11594   4.656   2.125   9.930  0.1721 -0.1039 -0.5346
  112OSM    C8S11595   4.472   2.206   9.858 -0.3896  0.3137  0.2572
  112OSM    H8S11596   4.496   2.313   9.876 -1.1628  0.5878 -0.3075
  112OSM    H8T11597   4.363   2.197   9.877 -0.7450  1.1659 -1.2464
  112OSM    C9S11598   4.512   2.172   9.715  0.3371  0.2132  0.2566
  112OSM    H9S11599   4.478   2.068   9.695 -0.7127  0.7872 -1.1469
  112OSM    H9T11600   4.621   2.181   9.697  0.1178 -0.5729 -1.7168
  112OSM   C10S11601   4.431   2.270   9.625 -0.1734 -0.2013 -0.9226
  112OSM   H10S11602   4.471   2.369   9.655 -1.5606  0.8085 -2.2530
  112OSM   H10T11603   4.326   2.277   9.658 -0.6475 -0.6983 -2.2441
  112OSM   C11S11604   4.458   2.264   9.473  0.8138  0.4560 -0.0634
  112OSM   H11S11605   4.425   2.167   9.429  0.8032  0.9784 -1.2292
  112OSM   H11T11606   4.566   2.281   9.453  1.1709  0.6239  1.7891
  112OSM   C12S11607   4.399   2.383   9.393 -0.2841  0.3136  0.8810
  112OSM   H12S11608   4.441   2.364   9.292  1.2180 -1.7619  1.8062
  112OSM   H12T11609   4.447   2.470   9.444  1.0168 -0.5933  1.2722
  112OSM   C13S11610   4.242   2.395   9.392  0.1502  0.0988  0.5873
  112OSM   H13S11611   4.203   2.397   9.496 -0.3235 -1.1303  0.4410
  112OSM   H13T11612   4.205   2.305   9.340  2.4455  0.8630 -2.7174
  112OSM   C14S11613   4.185   2.516   9.312  0.1747 -0.0950  0.5933
  112OSM   H14S11614   4.234   2.608   9.351  1.3096 -0.4737  0.0978
  112OSM   H14T11615   4.076   2.530   9.330  0.1433  0.9488 -0.2461
  112OSM   C15S11616   4.210   2.508   9.158  0.3390  0.3409  0.3735
  112OSM   H15S11617   4.187   2.405   9.125  3.1332 -0.3627  0.3917
  112OSM   H15T11618   4.318   2.530   9.147 -0.0608  1.8512 -0.9609
  112OSM   C16S11619   4.110   2.605   9.090 -0.4827 -0.2259  0.5721
  112OSM   H16S11620   4.133   2.712   9.108  1.3234 -0.3540 -0.7082
  112OSM   H16T11621   4.013   2.561   9.123 -0.6423 -1.6220 -1.5793
  112OSM   C17S11622   4.115   2.597   8.938 -0.3382  0.1863 -0.5603
  112OSM   H17S11623   4.019   2.647   8.911 -1.7860 -1.9479  0.2966
  112OSM   H17T11624   4.119   2.493   8.899 -0.1305 -0.3642  0.8386
  112OSM   C18S11625   4.235   2.673   8.884 -0.3954 -0.0836  0.2718
  112OSM   H18S11626   4.322   2.647   8.947 -1.9985 -0.7571  2.2829
  112OSM   H18T11627   4.235   2.782   8.905  0.3780  0.1104 -0.6513
  112OSM   H18U11628   4.256   2.659   8.775 -0.0956  0.7072  0.2202
  112OSM    C1F11629   4.986   2.507  10.166  0.2505  0.2686 -0.4255
  112OSM     OF11630   5.084   2.465  10.218 -0.1575 -0.0533  0.2445
  112OSM    C2F11631   4.999   2.586  10.039  0.3786 -0.0212 -0.2507
  112OSM    H2F11632   5.102   2.601  10.000  0.1985 -0.3534 -0.8605
  112OSM    H2G11633   4.960   2.689  10.060 -1.5679 -0.7540 -0.0400
  112OSM    C3F11634   4.913   2.514   9.937  0.3888 -0.3485  0.8926
  112OSM    H3F11635   4.805   2.504   9.960 -0.0969 -0.0265 -1.0697
  112OSM    H3G11636   4.953   2.413   9.919 -0.4715 -0.4343 -0.7257
  112OSM    C4F11637   4.917   2.576   9.796 -0.3147 -0.1989  0.3185
  112OSM    H4F11638   5.019   2.556   9.756  0.5498  1.9229  1.3239
  112OSM    H4G11639   4.915   2.686   9.812  3.7548 -0.1531  1.6363
  112OSM    C5F11640   4.805   2.527   9.708  0.1316 -0.0682 -0.0290
  112OSM    H5F11641   4.713   2.517   9.769  0.9750  0.7421  1.4554
  112OSM    H5G11642   4.837   2.426   9.676 -0.0278  0.1238 -0.8263
  112OSM    C6F11643   4.775   2.611   9.591 -0.3298  0.3976 -0.8124
  112OSM    H6F11644   4.702   2.688   9.626 -1.4167  0.6890 -3.4475
  112OSM    H6G11645   4.724   2.531   9.532  1.8756 -1.5186 -0.2391
  112OSM    C7F11646   4.886   2.678   9.519  0.1271 -0.0586 -0.9792
  112OSM    H7F11647   4.985   2.627   9.522 -0.1459 -0.5647 -0.0484
  112OSM    H7G11648   4.908   2.777   9.564 -1.8270  0.4896 -1.1439
  112OSM    C8F11649   4.853   2.709   9.370  0.3482  0.4919  0.6496
  112OSM    H8F11650   4.933   2.779   9.337 -1.5500  2.0706 -0.7996
  112OSM    H8G11651   4.755   2.760   9.364 -0.7719 -1.7346 -1.6256
  112OSM    C9F11652   4.851   2.586   9.277  0.3540 -0.0889 -0.9621
  112OSM    H9F11653   4.909   2.500   9.314 -0.3501 -1.2302 -2.3901
  112OSM   C10F11654   4.760   2.559   9.175 -0.4428 -0.4732 -0.4316
  112OSM   H10F11655   4.757   2.458   9.132 -0.7612 -0.5863 -0.1519
  112OSM   C11F11656   4.643   2.645   9.125  0.1088 -0.4355 -1.0703
  112OSM   H11F11657   4.649   2.754   9.148  1.9050 -0.2338 -2.2770
  112OSM   H11G11658   4.547   2.612   9.170  0.0410  1.7563  0.5556
  112OSM   C12F11659   4.622   2.627   8.974  0.2692 -0.9184 -0.4333
  112OSM   H12F11660   4.717   2.654   8.923 -0.8736 -0.2810 -2.3486
  112OSM   H12G11661   4.535   2.688   8.941 -0.6421 -1.6576  0.4906
  112OSM   C13F11662   4.579   2.483   8.921 -0.0269 -0.0854  0.6503
  112OSM   H13F11663   4.484   2.450   8.969 -0.5944 -0.3257 -0.6062
  112OSM   H13G11664   4.662   2.413   8.944 -1.1143 -1.5147  0.3778
  112OSM   C14F11665   4.568   2.485   8.767  0.1788 -0.6076  0.0569
  112OSM   H14F11666   4.662   2.518   8.718  0.6186  0.1551  1.3656
  112OSM   H14G11667   4.487   2.558   8.749  0.5364 -0.4596 -1.0079
  112OSM   C15F11668   4.535   2.358   8.687  0.0182 -0.6381 -0.1707
  112OSM   H15F11669   4.626   2.295   8.689  0.3051 -0.2288  1.4486
  112OSM   H15G11670   4.507   2.386   8.583 -0.1574 -1.4661 -0.3526
  112OSM   C16F11671   4.417   2.290   8.758 -0.4181 -0.3059  0.2946
  112OSM   H16F11672   4.346   2.370   8.789  0.7832  1.3002 -0.8889
  112OSM   H16G11673   4.442   2.244   8.856 -1.8383 -1.3285  0.2100
  112OSM   C17F11674   4.362   2.181   8.662 -0.3768 -0.6051  0.5015
  112OSM   H17F11675   4.453   2.118   8.656 -0.6946 -0.8863 -2.6203
  112OSM   H17G11676   4.338   2.220   8.561  1.8914 -0.8621 -0.2041
  112OSM   C18F11677   4.250   2.088   8.706 -0.1968 -0.3361 -0.6616
  112OSM   H18F11678   4.279   2.051   8.807  1.1462  0.0023 -0.9077
  112OSM   H18G11679   4.235   2.005   8.634  0.4646 -2.4448  1.4799
  112OSM   H18H11680   4.157   2.147   8.726  0.5995  0.1631  2.1323
  113OSM      N11681   4.770   2.043  11.190  0.2549 -0.6183  0.8861
  113OSM    C1511682   4.831   2.114  11.300 -0.4862  0.6563  0.2082
  113OSM   H15A11683   4.778   2.207  11.310 -1.7145  0.0381 -0.2882
  113OSM   H15B11684   4.932   2.143  11.277 -1.1952  1.7511 -1.8344
  113OSM   H15C11685   4.819   2.074  11.399 -0.8545  2.2839  0.8515
  113OSM    C1411686   4.796   2.120  11.065 -0.0036  0.0921  0.1829
  113OSM   H14A11687   4.774   2.225  11.077 -0.6844  0.2377 -1.8459
  113OSM   H14B11688   4.737   2.084  10.981 -0.3439  0.1364  0.4015
  113OSM   H14C11689   4.902   2.120  11.043  0.2006 -4.0404  0.2308
  113OSM    C1311690   4.838   1.908  11.182 -0.5853  0.0689 -0.3211
  113OSM   H13A11691   4.943   1.919  11.162 -0.2509 -0.3125  1.1240
  113OSM   H13B11692   4.790   1.850  11.104 -1.7341  1.9654 -1.0949
  113OSM   H13C11693   4.837   1.856  11.277  0.5443 -0.5452 -0.6225
  113OSM    C1211694   4.620   2.016  11.212 -0.2848 -0.0208 -0.6919
  113OSM   H12A11695   4.574   2.112  11.227  1.1376  0.4662  0.8372
  113OSM   H12B11696   4.606   1.958  11.302 -1.2883  1.5902  0.2397
  113OSM    C1111697   4.542   1.943  11.104  0.0953  0.0036 -0.1184
  113OSM   H11A11698   4.434   1.945  11.130 -0.1555 -1.4548 -0.9691
  113OSM   H11B11699   4.584   1.841  11.099 -0.2480 -0.0849 -2.2305
  113OSM      P11700   4.456   1.988  10.858  0.1825 -0.3225 -0.3671
  113OSM    O1311701   4.321   1.959  10.909  0.2395  0.3331 -0.5300
  113OSM    O1411702   4.469   2.115  10.782 -0.9374  0.3361  0.1390
  113OSM    O1111703   4.499   1.860  10.776 -0.0954 -0.4421  0.0918
  113OSM    O1211704   4.560   1.993  10.972  0.4935  0.1774  0.6146
  113OSM    C1S11705   4.635   1.828  10.751 -1.4577  0.3601  0.5508
  113OSM    H1S11706   4.665   1.747  10.822  2.8697  0.0244 -1.3302
  113OSM    H1T11707   4.706   1.912  10.768 -1.2267  0.1079  0.8582
  113OSM     NF11708   4.774   1.706  10.607 -0.0697 -0.2927  0.4280
  113OSM    HNF11709   4.848   1.762  10.570 -0.1305 -1.5380 -1.7207
  113OSM    C2S11710   4.649   1.772  10.610  0.4517 -0.5822 -0.4192
  113OSM    H2S11711   4.562   1.706  10.591  0.0967 -0.2863  0.1373
  113OSM    C3S11712   4.640   1.886  10.500 -0.6104  0.1059 -0.8177
  113OSM    H3S11713   4.717   1.964  10.517  0.0081 -1.1587  3.2523
  113OSM     O311714   4.516   1.950  10.501  0.2640 -0.4482 -0.1553
  113OSM    HO311715   4.480   1.913  10.582  0.9105 -1.2570 -0.2274
  113OSM    C4S11716   4.664   1.812  10.364  0.1719 -0.5187  0.1491
  113OSM    H4S11717   4.583   1.740  10.349  0.0960 -0.2667 -0.6753
  113OSM    C5S11718   4.765   1.820  10.273  0.5689 -0.1374  0.1439
  113OSM    H5S11719   4.852   1.884  10.292  0.9928 -0.1367 -1.5849
  113OSM    C6S11720   4.777   1.741  10.145  0.4588 -0.4083  0.2182
  113OSM    H6S11721   4.878   1.693  10.145  1.3513  1.1745 -3.0934
  113OSM    H6T11722   4.784   1.809  10.058 -0.1677 -0.2502  0.2867
  113OSM    C7S11723   4.676   1.627  10.104  0.3182  0.4335 -0.5068
  113OSM    H7S11724   4.577   1.672  10.082  0.0820  0.8357  1.2093
  113OSM    H7T11725   4.662   1.563  10.194  1.4361 -0.2259 -0.7826
  113OSM    C8S11726   4.720   1.540   9.980 -0.2404 -0.6011 -0.1875
  113OSM    H8S11727   4.640   1.464   9.967 -0.5382 -0.4856  0.8816
  113OSM    H8T11728   4.812   1.497  10.027  0.7234  2.3515  0.8455
  113OSM    C9S11729   4.740   1.620   9.845  0.6610  0.3231  0.6878
  113OSM    H9S11730   4.757   1.537   9.773  1.5640  0.0167  1.2342
  113OSM    H9T11731   4.836   1.675   9.850  0.4600  0.5575  3.1443
  113OSM   C10S11732   4.616   1.713   9.808 -0.4831  0.0676 -0.2145
  113OSM   H10S11733   4.626   1.802   9.873  0.6390 -0.6308  0.6018
  113OSM   H10T11734   4.523   1.659   9.836 -0.0267 -0.3044  0.6179
  113OSM   C11S11735   4.610   1.761   9.663 -0.6299 -0.2157 -0.5230
  113OSM   H11S11736   4.692   1.834   9.644  0.0910 -0.7203  0.5620
  113OSM   H11T11737   4.520   1.820   9.634 -0.7846 -1.3050 -2.4015
  113OSM   C12S11738   4.617   1.641   9.562  0.8477 -0.0966 -0.0112
  113OSM   H12S11739   4.576   1.547   9.606  1.0147 -0.1333  0.0681
  113OSM   H12T11740   4.720   1.606   9.541  0.6451 -1.6134  1.2915
  113OSM   C13S11741   4.543   1.668   9.433  0.2397  0.2832  0.2623
  113OSM   H13S11742   4.446   1.716   9.457  0.6162  0.0407  2.4591
  113OSM   H13T11743   4.527   1.574   9.375  0.3611  0.1603  0.4299
  113OSM   C14S11744   4.620   1.767   9.339 -0.3428  0.4547 -0.3084
  113OSM   H14S11745   4.731   1.756   9.343  0.0232  3.4731  0.5344
  113OSM   H14T11746   4.611   1.867   9.387 -1.8098  0.8221 -1.2828
  113OSM   C15S11747   4.578   1.775   9.203 -0.1664  0.3885  0.0774
  113OSM   H15S11748   4.585   1.676   9.152  0.5726  1.7087 -2.5713
  113OSM   H15T11749   4.639   1.849   9.146  2.8190 -0.3262  2.1203
  113OSM   C16S11750   4.427   1.832   9.188  0.1566 -0.7787  0.0999
  113OSM   H16S11751   4.426   1.923   9.252 -1.3386 -1.1942  0.7127
  113OSM   H16T11752   4.343   1.768   9.222 -0.4469 -1.4299 -2.4022
  113OSM   C17S11753   4.398   1.883   9.049 -0.6799 -0.0825 -0.1047
  113OSM   H17S11754   4.483   1.929   8.993  0.4098 -0.4903  1.1564
  113OSM   H17T11755   4.314   1.954   9.062 -0.4066 -0.1294  2.6385
  113OSM   C18S11756   4.363   1.768   8.957  0.0094  0.4551 -0.5116
  113OSM   H18S11757   4.303   1.799   8.869  0.6665 -0.1825 -1.1995
  113OSM   H18T11758   4.287   1.711   9.015  2.4567 -1.5001  0.9402
  113OSM   H18U11759   4.447   1.706   8.921 -0.6341  0.6737 -2.5352
  113OSM    C1F11760   4.803   1.587  10.650  0.0531  0.6382 -0.5283
  113OSM     OF11761   4.719   1.524  10.722 -0.5899  0.1927 -0.4027
  113OSM    C2F11762   4.943   1.532  10.617 -0.1364  0.6524  0.7239
  113OSM    H2F11763   4.993   1.534  10.716  1.2884  1.0252  0.0188
  113OSM    H2G11764   4.998   1.601  10.550 -0.7238 -0.4185 -0.9088
  113OSM    C3F11765   4.953   1.378  10.560  0.6460 -0.1266  0.2003
  113OSM    H3F11766   4.904   1.308  10.631 -0.1583  0.9575  0.7483
  113OSM    H3G11767   5.062   1.357  10.556  0.8480  0.3883  2.2411
  113OSM    C4F11768   4.902   1.368  10.415  0.6809 -0.4518  0.3098
  113OSM    H4F11769   4.951   1.441  10.348 -0.9122  2.1605  1.8367
  113OSM    H4G11770   4.795   1.397  10.403  0.5786 -1.0794 -0.3769
  113OSM    C5F11771   4.924   1.227  10.363  0.1932 -0.4653  0.2009
  113OSM    H5F11772   4.862   1.157  10.422  0.5435 -1.9650 -1.1250
  113OSM    H5G11773   5.030   1.198  10.378  0.3640 -0.1145 -0.2926
  113OSM    C6F11774   4.885   1.224  10.217  0.0805  0.2615 -0.6557
  113OSM    H6F11775   4.955   1.299  10.173  2.0762 -1.5641 -0.7256
  113OSM    H6G11776   4.781   1.263  10.204 -0.2406  0.3963  1.8500
  113OSM    C7F11777   4.901   1.098  10.135  0.4979  0.1979  0.9846
  113OSM    H7F11778   4.828   1.025  10.178  2.3146 -1.1538  1.8914
  113OSM    H7G11779   5.002   1.060  10.159 -0.0140 -1.2078  1.0121
  113OSM    C8F11780   4.890   1.119   9.977 -0.4254  0.2240 -0.0889
  113OSM    H8F11781   4.946   1.036   9.928  0.3180  1.2639 -1.0668
  113OSM    H8G11782   4.957   1.208   9.973 -0.7107  0.4578  0.2848
  113OSM    C9F11783   4.755   1.162   9.935 -0.3584  0.6403  0.8145
  113OSM    H9F11784   4.698   1.212  10.015 -0.4724  0.3486  0.9174
  113OSM   C10F11785   4.696   1.130   9.820 -1.1598  0.6341 -0.3880
  113OSM   H10F11786   4.601   1.180   9.800 -0.5749  1.5327 -0.9812
  113OSM   C11F11787   4.755   1.047   9.706  0.8412 -0.2821 -0.1848
  113OSM   H11F11788   4.698   0.955   9.682 -0.4369  0.2984  0.5207
  113OSM   H11G11789   4.857   1.014   9.736  0.5333 -0.3976  0.7546
  113OSM   C12F11790   4.778   1.136   9.582  0.5493 -0.6284  0.8178
  113OSM   H12F11791   4.852   1.086   9.516  0.9440  1.2256 -0.2167
  113OSM   H12G11792   4.821   1.234   9.609 -0.7907 -0.0086  0.7842
  113OSM   C13F11793   4.650   1.152   9.495  0.1565 -0.0877  0.0086
  113OSM   H13F11794   4.590   1.222   9.557  1.0775  1.4592 -0.7739
  113OSM   H13G11795   4.601   1.053   9.497 -0.1350 -0.0368  3.7179
  113OSM   C14F11796   4.689   1.211   9.361  0.4872  0.0141 -0.2459
  113OSM   H14F11797   4.753   1.302   9.374 -1.3078  1.3825 -0.5790
  113OSM   H14G11798   4.593   1.238   9.312  1.4348  0.2513 -2.0727
  113OSM   C15F11799   4.774   1.114   9.279  0.2025  0.4545 -0.0510
  113OSM   H15F11800   4.871   1.102   9.331  0.0085  0.5739  0.3414
  113OSM   H15G11801   4.799   1.156   9.179 -4.4355  2.3162 -0.6686
  113OSM   C16F11802   4.705   0.981   9.239  0.5532  0.3752  0.2258
  113OSM   H16F11803   4.698   0.910   9.324 -1.1325 -1.6550 -1.5043
  113OSM   H16G11804   4.771   0.924   9.169 -0.3154 -1.1783  0.6185
  113OSM   C17F11805   4.566   0.985   9.169 -0.2160  0.1822 -0.4214
  113OSM   H17F11806   4.488   1.045   9.221  0.6101  2.1334 -1.3275
  113OSM   H17G11807   4.526   0.882   9.169 -0.7390  0.3617  0.9364
  113OSM   C18F11808   4.590   1.036   9.030  0.1798  0.4219 -0.1380
  113OSM   H18F11809   4.641   0.958   8.970  3.0041  1.2785  1.0101
  113OSM   H18G11810   4.652   1.128   9.023 -1.3106  1.6453  1.8564
  113OSM   H18H11811   4.485   1.050   8.995 -0.8851 -2.9182  1.2825
  114OSM      N11812   5.324   0.610  11.433 -0.1364  0.0143 -0.0469
  114OSM    C1511813   5.331   0.482  11.517 -0.3904  0.0382  0.2967
  114OSM   H15A11814   5.315   0.393  11.458 -0.4118  0.7899 -0.8914
  114OSM   H15B11815   5.253   0.483  11.591 -0.5117 -2.4184  0.2767
  114OSM   H15C11816   5.426   0.481  11.569  0.3791  0.0761 -1.0505
  114OSM    C1411817   5.310   0.737  11.517 -0.9381 -0.1715 -0.2420
  114OSM   H14A11818   5.233   0.730  11.593  0.0090 -2.0402  0.6048
  114OSM   H14B11819   5.284   0.816  11.449 -1.5812 -1.8118 -2.0062
  114OSM   H14C11820   5.403   0.763  11.565 -1.1773  0.9685 -0.3619
  114OSM    C1311821   5.447   0.611  11.344  0.1558 -0.6986 -0.1118
  114OSM   H13A11822   5.540   0.601  11.399  2.1577 -0.7816 -3.3055
  114OSM   H13B11823   5.446   0.705  11.290 -0.1159  0.0812  1.1801
  114OSM   H13C11824   5.439   0.537  11.266  0.4558 -1.3873  0.5009
  114OSM    C1211825   5.201   0.598  11.348  0.7005  0.0006  0.1634
  114OSM   H12A11826   5.116   0.580  11.413  1.5940 -2.2115  0.8350
  114OSM   H12B11827   5.205   0.506  11.291  1.1325  1.0224 -1.4923
  114OSM    C1111828   5.169   0.713  11.251  0.1363 -0.2417  0.2233
  114OSM   H11A11829   5.079   0.678  11.196  0.1775 -0.9728  0.6134
  114OSM   H11B11830   5.250   0.725  11.176  0.5682 -0.8673  0.5801
  114OSM      P11831   5.008   0.914  11.330 -0.0713 -0.0245  0.3771
  114OSM    O1311832   4.903   0.818  11.374  0.2990 -0.8843  0.2324
  114OSM    O1411833   5.028   1.033  11.410  0.0112 -0.6541  0.1555
  114OSM    O1111834   4.957   0.952  11.185 -0.5992  0.0404  0.3615
  114OSM    O1211835   5.145   0.847  11.302  0.1200 -0.6411 -0.1490
  114OSM    C1S11836   5.045   0.980  11.077 -0.5604 -0.2749  0.4054
  114OSM    H1S11837   5.131   0.911  11.060  0.6673  1.3495 -0.2309
  114OSM    H1T11838   5.078   1.083  11.102 -1.9075  0.3090 -0.0977
  114OSM     NF11839   5.063   1.018  10.828  0.5768  0.0376  0.2531
  114OSM    HNF11840   5.040   1.104  10.781  0.2694 -1.2321 -2.0880
  114OSM    C2S11841   4.976   0.987  10.938  0.2351 -0.2621  0.1994
  114OSM    H2S11842   4.946   0.881  10.922  2.1820 -0.8826  0.4687
  114OSM    C3S11843   4.846   1.072  10.953 -0.7689  0.0566 -0.5289
  114OSM    H3S11844   4.887   1.174  10.969  0.4769 -0.1364 -2.1479
  114OSM     O311845   4.761   1.040  11.061 -0.3203  0.4419  0.3817
  114OSM    HO311846   4.818   0.995  11.124 -1.0172 -1.7879 -0.4677
  114OSM    C4S11847   4.754   1.072  10.830  0.0988 -0.1978  0.2558
  114OSM    H4S11848   4.702   0.979  10.802  1.0326 -0.2706 -1.4250
  114OSM    C5S11849   4.711   1.182  10.762  0.3804 -0.0152 -0.7583
  114OSM    H5S11850   4.732   1.284  10.797 -1.7146  0.2923 -0.2579
  114OSM    C6S11851   4.617   1.190  10.646  0.1284  0.0254 -0.6455
  114OSM    H6S11852   4.673   1.258  10.579  1.3819  0.2503  0.5682
  114OSM    H6T11853   4.517   1.232  10.668 -0.3161  0.2043 -2.8025
  114OSM    C7S11854   4.589   1.064  10.565 -0.2629 -0.1289 -0.5626
  114OSM    H7S11855   4.521   1.002  10.628  1.4828 -0.2881  1.2789
  114OSM    H7T11856   4.687   1.015  10.546 -0.1266  0.5855 -1.8203
  114OSM    C8S11857   4.524   1.080  10.433 -0.5849 -0.4193  0.3401
  114OSM    H8S11858   4.594   1.140  10.371 -0.9436  0.9524  1.2286
  114OSM    H8T11859   4.428   1.134  10.446 -0.2320 -0.1951  2.3370
  114OSM    C9S11860   4.505   0.939  10.375  0.3069  0.2033 -0.1495
  114OSM    H9S11861   4.416   0.903  10.432  0.9879 -2.5144 -0.6536
  114OSM    H9T11862   4.588   0.867  10.392  1.3765  1.0183 -1.7043
  114OSM   C10S11863   4.492   0.937  10.225  0.1154  0.5306  0.0434
  114OSM   H10S11864   4.576   0.984  10.170 -0.3171 -0.3217 -1.4223
  114OSM   H10T11865   4.400   0.997  10.208  0.3984  0.9775  0.0619
  114OSM   C11S11866   4.477   0.795  10.161  0.9935  0.2196 -0.7164
  114OSM   H11S11867   4.415   0.738  10.234  1.6486 -0.6924 -0.8542
  114OSM   H11T11868   4.570   0.733  10.158  1.7505  1.3143 -0.3360
  114OSM   C12S11869   4.407   0.794  10.028 -0.2343  0.0686 -0.2502
  114OSM   H12S11870   4.307   0.841  10.039 -1.4354 -2.3046 -0.2909
  114OSM   H12T11871   4.391   0.692   9.988  0.0200  0.7625 -2.1904
  114OSM   C13S11872   4.483   0.881   9.923 -0.5087  0.4691  0.2303
  114OSM   H13S11873   4.588   0.845   9.915 -0.9537 -0.6286 -1.0352
  114OSM   H13T11874   4.481   0.984   9.964 -0.8288  1.5109 -2.1957
  114OSM   C14S11875   4.416   0.879   9.783 -0.5908 -0.5751 -0.2749
  114OSM   H14S11876   4.466   0.952   9.717 -0.8666  0.1920  0.3476
  114OSM   H14T11877   4.316   0.926   9.793 -0.1304  0.1879  1.1024
  114OSM   C15S11878   4.396   0.748   9.713  0.5011  0.3817 -0.0222
  114OSM   H15S11879   4.328   0.685   9.774 -0.9444 -1.3888 -3.1779
  114OSM   H15T11880   4.496   0.702   9.706 -0.1623 -1.2355  0.7324
  114OSM   C16S11881   4.348   0.763   9.575  0.3689  0.0285  0.3337
  114OSM   H16S11882   4.417   0.816   9.506 -1.2535 -1.5832 -2.7498
  114OSM   H16T11883   4.252   0.819   9.571  1.2718  1.6035 -0.4639
  114OSM   C17S11884   4.324   0.623   9.511  1.0255  0.3552 -0.0471
  114OSM   H17S11885   4.236   0.583   9.566  0.9812  1.4039  0.6733
  114OSM   H17T11886   4.410   0.558   9.541 -0.9509 -2.0400  0.7575
  114OSM   C18S11887   4.298   0.619   9.361  0.0309 -0.1743 -0.1171
  114OSM   H18S11888   4.265   0.516   9.336  0.1335 -0.4661  0.9016
  114OSM   H18T11889   4.397   0.633   9.312 -0.7729  1.3901 -1.4144
  114OSM   H18U11890   4.222   0.686   9.315  2.5056  2.8826 -0.1074
  114OSM    C1F11891   5.166   0.944  10.792  0.4021 -0.0898 -0.8592
  114OSM     OF11892   5.173   0.827  10.827 -0.0357 -0.1594 -0.5054
  114OSM    C2F11893   5.274   1.006  10.715  0.6132 -0.1218 -0.1630
  114OSM    H2F11894   5.362   0.938  10.717  0.9871  0.2808 -1.4952
  114OSM    H2G11895   5.306   1.102  10.761  2.4024 -0.0698 -1.4255
  114OSM    C3F11896   5.236   1.039  10.570  0.3734  0.2910 -0.5946
  114OSM    H3F11897   5.284   1.137  10.549  0.2910 -0.0128 -2.3374
  114OSM    H3G11898   5.128   1.055  10.550  0.1394 -0.2602  0.1457
  114OSM    C4F11899   5.275   0.930  10.472  0.7088 -1.0325  0.6219
  114OSM    H4F11900   5.199   0.849  10.475  0.0585 -0.5302 -1.0114
  114OSM    H4G11901   5.374   0.891  10.502  1.3116 -1.1038 -1.3340
  114OSM    C5F11902   5.271   0.984  10.325 -0.1588  0.2755  0.2459
  114OSM    H5F11903   5.325   1.080  10.339 -0.4513  0.1644  2.6107
  114OSM    H5G11904   5.170   1.015  10.290  0.3135  0.1292 -1.3009
  114OSM    C6F11905   5.328   0.877  10.230  0.1882  0.3133  0.2541
  114OSM    H6F11906   5.249   0.801  10.211  1.2515 -0.5002 -1.0729
  114OSM    H6G11907   5.413   0.832  10.287  1.1833  0.0175 -1.4192
  114OSM    C7F11908   5.376   0.937  10.096 -0.0494 -0.2788  0.4007
  114OSM    H7F11909   5.425   0.853  10.041  1.2834  0.8464 -0.1787
  114OSM    H7G11910   5.457   1.010  10.118  1.4527 -1.9470  0.6818
  114OSM    C8F11911   5.269   0.983  10.001  0.4545 -0.1273  0.5668
  114OSM    H8F11912   5.200   1.054  10.052 -1.0673 -1.6535  0.7198
  114OSM    H8G11913   5.197   0.910   9.959  0.3669  1.6168 -2.6608
  114OSM    C9F11914   5.325   1.065   9.885 -0.5649  0.5442  0.0829
  114OSM    H9F11915   5.349   1.170   9.905  2.3625 -0.1118  0.5522
  114OSM   C10F11916   5.346   1.021   9.761 -0.1625  0.3256 -0.2079
  114OSM   H10F11917   5.387   1.076   9.675  0.0823  0.7852  0.1948
  114OSM   C11F11918   5.316   0.872   9.725 -0.7090  0.0700 -0.3854
  114OSM   H11F11919   5.286   0.806   9.810 -0.4284  0.5117  0.0572
  114OSM   H11G11920   5.415   0.839   9.687  0.0821  2.9238 -1.0303
  114OSM   C12F11921   5.206   0.844   9.618 -0.2236 -0.1179  0.4337
  114OSM   H12F11922   5.105   0.875   9.654 -0.2556 -0.1551  0.3770
  114OSM   H12G11923   5.188   0.737   9.593 -1.4850  0.1423  0.1476
  114OSM   C13F11924   5.250   0.906   9.480  0.2735 -0.5455 -0.0797
  114OSM   H13F11925   5.320   0.828   9.444  0.2978 -2.3127  3.4367
  114OSM   H13G11926   5.293   1.008   9.486 -0.3562 -0.0153 -2.9011
  114OSM   C14F11927   5.133   0.907   9.389 -0.1278  0.0889  0.5079
  114OSM   H14F11928   5.066   0.988   9.425  0.1023 -0.7418  3.0232
  114OSM   H14G11929   5.069   0.817   9.399 -0.4300  0.1386 -0.7987
  114OSM   C15F11930   5.176   0.945   9.249 -0.0559 -0.6520 -0.2422
  114OSM   H15F11931   5.242   0.864   9.211  2.0108 -0.1606  2.0490
  114OSM   H15G11932   5.240   1.036   9.248  0.5349 -1.0475  0.1683
  114OSM   C16F11933   5.061   0.968   9.150 -0.1417  0.2365  0.1678
  114OSM   H16F11934   5.009   1.066   9.164  2.0071  1.8747 -2.1839
  114OSM   H16G11935   4.992   0.881   9.152  3.8619 -3.2638  0.0718
  114OSM   C17F11936   5.116   0.964   9.000  0.2918  0.1702 -0.4602
  114OSM   H17F11937   5.165   0.866   8.980 -0.8962 -0.5265 -0.0484
  114OSM   H17G11938   5.196   1.041   8.990  1.5975 -0.8201  1.5257
  114OSM   C18F11939   5.008   0.973   8.896  0.5200  0.5069 -0.5022
  114OSM   H18F11940   5.055   0.962   8.796  2.4189 -2.9050  0.6252
  114OSM   H18G11941   4.957   1.071   8.909 -0.0806  0.3306 -1.4020
  114OSM   H18H11942   4.937   0.889   8.912 -0.6881  1.1692 -2.0728
  115OSM      N11943   1.294   5.314   5.852  0.7023 -0.1346 -0.0156
  115OSM    C1511944   1.314   5.462   5.881  0.3207  0.0979 -0.3155
  115OSM   H15A11945   1.337   5.516   5.790  2.2721  4.0434  2.2831
  115OSM   H15B11946   1.389   5.480   5.956 -0.2467 -1.8562  0.7824
  115OSM   H15C11947   1.216   5.502   5.903 -0.2340 -1.1403 -0.4286
  115OSM    C1411948   1.158   5.300   5.791 -0.1747 -0.0202  0.8044
  115OSM   H14A11949   1.142   5.359   5.702 -2.1147 -1.8760 -0.1773
  115OSM   H14B11950   1.081   5.342   5.854  0.4456  3.2542 -0.3929
  115OSM   H14C11951   1.139   5.196   5.770  0.9363  0.3480 -2.8161
  115OSM    C1311952   1.398   5.267   5.764 -0.4764 -0.2181  0.1887
  115OSM   H13A11953   1.400   5.160   5.750  1.9138 -0.0752 -1.1584
  115OSM   H13B11954   1.497   5.293   5.800 -0.9366  3.1791 -0.6551
  115OSM   H13C11955   1.393   5.305   5.663  2.8275  2.4601  0.8173
  115OSM    C1211956   1.299   5.234   5.979 -0.6179 -0.5249  0.6438
  115OSM   H12A11957   1.401   5.232   6.015 -1.0118 -2.8866  1.8626
  115OSM   H12B11958   1.275   5.129   5.963  1.5446 -0.8275 -1.1321
  115OSM    C1111959   1.213   5.278   6.095 -0.6325 -0.0734  0.1834
  115OSM   H11A11960   1.220   5.388   6.102 -0.9332 -0.1434  2.0726
  115OSM   H11B11961   1.264   5.234   6.183  1.7940  4.4785  1.3672
  115OSM      P11962   0.956   5.334   6.138 -0.5096 -0.0862 -0.1762
  115OSM    O1311963   0.944   5.433   6.034 -0.5522 -0.2600  0.5063
  115OSM    O1411964   0.839   5.256   6.168  0.2213  0.9580  0.0023
  115OSM    O1111965   1.006   5.409   6.270 -0.3638 -0.2732  0.0501
  115OSM    O1211966   1.075   5.239   6.088 -0.0311 -0.0165 -0.1322
  115OSM    C1S11967   1.006   5.335   6.393  0.0909 -0.5054 -0.2553
  115OSM    H1S11968   1.066   5.241   6.383  0.5034 -0.0355 -3.1215
  115OSM    H1T11969   0.902   5.314   6.427  0.0988 -0.2692 -0.0822
  115OSM     NF11970   1.065   5.337   6.626 -0.0130  0.0236  0.6334
  115OSM    HNF11971   0.991   5.358   6.690 -1.2871  0.0297 -0.7994
  115OSM    C2S11972   1.068   5.415   6.506  0.1883  0.6520  0.0610
  115OSM    H2S11973   1.174   5.431   6.479  0.0884  1.8844  0.3253
  115OSM    C3S11974   0.998   5.556   6.523  1.2653  0.2684 -0.7050
  115OSM    H3S11975   0.894   5.540   6.559  1.2731  2.3189  0.3922
  115OSM     O311976   0.989   5.639   6.408  0.0070 -0.6285  0.0431
  115OSM    HO311977   1.031   5.586   6.340  1.3949  2.8360 -2.0036
  115OSM    C4S11978   1.074   5.639   6.620  0.1080  0.2295  0.2581
  115OSM    H4S11979   1.175   5.658   6.581  0.5254 -2.7489 -0.3744
  115OSM    C5S11980   1.040   5.666   6.744  0.3344 -0.2357 -0.3225
  115OSM    H5S11981   0.949   5.627   6.791  1.0554 -1.8691 -0.2159
  115OSM    C6S11982   1.132   5.735   6.837 -0.3011  0.3286 -0.1985
  115OSM    H6S11983   1.088   5.819   6.894  2.1188  0.5259  1.5605
  115OSM    H6T11984   1.215   5.788   6.786 -0.0825  0.2114  0.0290
  115OSM    C7S11985   1.210   5.627   6.925 -0.0352 -0.6861  0.0749
  115OSM    H7S11986   1.267   5.571   6.848  0.4031  1.0764 -0.9309
  115OSM    H7T11987   1.140   5.564   6.985 -0.0864 -0.2791  0.4477
  115OSM    C8S11988   1.305   5.696   7.030  0.4878 -0.0566  0.8326
  115OSM    H8S11989   1.393   5.739   6.977 -0.6621  1.8984  0.4421
  115OSM    H8T11990   1.344   5.623   7.105 -0.3068 -0.5047  0.8151
  115OSM    C9S11991   1.252   5.807   7.124 -0.1339 -0.0712  0.3938
  115OSM    H9S11992   1.157   5.784   7.178 -0.9465  0.6680 -0.6708
  115OSM    H9T11993   1.221   5.896   7.066 -0.4515 -0.0305  0.6195
  115OSM   C10S11994   1.370   5.845   7.212 -0.3411  0.0529  0.0578
  115OSM   H10S11995   1.456   5.843   7.142 -1.5990 -1.8881 -1.5351
  115OSM   H10T11996   1.384   5.782   7.302 -0.9845 -0.1775 -0.0011
  115OSM   C11S11997   1.356   5.993   7.262 -0.0977 -0.5339  0.3664
  115OSM   H11S11998   1.275   5.986   7.337 -0.0247 -0.1852  0.4798
  115OSM   H11T11999   1.339   6.053   7.170  3.9301  0.5522  0.1209
  115OSM   C12S12000   1.488   6.050   7.319 -0.4478 -0.2348  0.2408
  115OSM   H12S12001   1.495   6.158   7.293 -0.9746 -0.2039  0.2154
  115OSM   H12T12002   1.572   6.004   7.264 -0.6849 -1.9512  1.2323
  115OSM   C13S12003   1.506   6.030   7.468 -0.0385  0.3004 -0.2314
  115OSM   H13S12004   1.491   5.926   7.504  0.4897  1.0265  2.2883
  115OSM   H13T12005   1.436   6.096   7.524  1.9756  0.7107  2.0121
  115OSM   C14S12006   1.653   6.062   7.507  0.9868 -0.2112  0.0089
  115OSM   H14S12007   1.674   6.167   7.478 -2.7676  0.2052 -1.7904
  115OSM   H14T12008   1.710   5.999   7.435  1.0661  0.5212 -0.5764
  115OSM   C15S12009   1.686   6.044   7.656 -0.1780  0.3647 -0.3451
  115OSM   H15S12010   1.681   5.936   7.685  1.7847  0.1966 -0.5210
  115OSM   H15T12011   1.611   6.101   7.716  0.8336  0.5715  0.7636
  115OSM   C16S12012   1.821   6.091   7.699 -1.2785 -0.6403 -0.0619
  115OSM   H16S12013   1.822   6.201   7.709  0.3772 -0.7200  1.0874
  115OSM   H16T12014   1.895   6.053   7.626 -1.1512 -0.0134 -0.2561
  115OSM   C17S12015   1.884   6.027   7.827  0.5021  0.2021 -0.1154
  115OSM   H17S12016   1.925   5.926   7.805  2.4527  0.7439  0.7907
  115OSM   H17T12017   1.801   6.000   7.895 -0.4391  0.9398 -0.9345
  115OSM   C18S12018   1.983   6.112   7.909 -0.7759  0.1734 -0.2938
  115OSM   H18S12019   1.946   6.214   7.931 -0.5996  0.1501  0.1291
  115OSM   H18T12020   2.068   6.127   7.839  0.2697  0.3844  0.9830
  115OSM   H18U12021   2.000   6.063   8.008 -0.3676 -0.0437 -0.4691
  115OSM    C1F12022   1.149   5.238   6.647  0.2412  0.5302 -0.2689
  115OSM     OF12023   1.222   5.190   6.563 -0.2535  0.8678  0.3723
  115OSM    C2F12024   1.159   5.192   6.795  0.0246  0.6513 -0.5204
  115OSM    H2F12025   1.065   5.138   6.820 -0.2222  1.1168 -0.4285
  115OSM    H2G12026   1.166   5.288   6.850  1.7959 -0.9646  2.3259
  115OSM    C3F12027   1.284   5.097   6.823  0.0144  0.1242 -0.6661
  115OSM    H3F12028   1.357   5.126   6.745  1.4995  1.9757  1.2949
  115OSM    H3G12029   1.260   4.991   6.800  1.4070 -0.0308 -1.4890
  115OSM    C4F12030   1.320   5.093   6.969 -0.4776 -0.1214 -1.0322
  115OSM    H4F12031   1.367   4.996   6.995  0.3073  0.1251 -1.4931
  115OSM    H4G12032   1.229   5.098   7.032  1.4367 -0.0123  1.9049
  115OSM    C5F12033   1.408   5.212   7.013  1.2268 -0.3783  0.5201
  115OSM    H5F12034   1.366   5.313   6.998  0.2901 -0.4949  2.1665
  115OSM    H5G12035   1.496   5.200   6.946  1.9647  0.0393  1.3948
  115OSM    C6F12036   1.461   5.192   7.156 -0.7363  0.0013  0.2238
  115OSM    H6F12037   1.553   5.253   7.166 -0.6510  0.5217 -2.8147
  115OSM    H6G12038   1.500   5.089   7.170  0.5953  0.5446  0.6743
  115OSM    C7F12039   1.360   5.225   7.267 -0.1516  0.5003  0.0204
  115OSM    H7F12040   1.283   5.145   7.256  1.6588 -1.2208 -0.7926
  115OSM    H7G12041   1.313   5.325   7.252  0.9084  0.9176 -0.6400
  115OSM    C8F12042   1.418   5.196   7.412 -0.2236 -0.6184  0.1396
  115OSM    H8F12043   1.466   5.096   7.412  2.1015  0.4112 -0.7453
  115OSM    H8G12044   1.337   5.201   7.488  0.4063 -2.0688  0.9385
  115OSM    C9F12045   1.519   5.305   7.441  0.2496 -0.3568 -0.2089
  115OSM    H9F12046   1.537   5.364   7.350 -0.2086 -0.7639 -0.5635
  115OSM   C10F12047   1.569   5.335   7.564  0.0180 -0.5254 -0.2247
  115OSM   H10F12048   1.636   5.419   7.586 -1.2318 -0.3168  3.5026
  115OSM   C11F12049   1.534   5.257   7.686  0.3948 -0.4201  0.1931
  115OSM   H11F12050   1.620   5.192   7.714  2.3639  1.3523 -1.4329
  115OSM   H11G12051   1.440   5.200   7.676 -0.4292  0.9897 -0.3707
  115OSM   C12F12052   1.503   5.360   7.805  0.1825 -0.0907  0.1542
  115OSM   H12F12053   1.403   5.406   7.785 -0.5850 -0.9519  1.8346
  115OSM   H12G12054   1.585   5.435   7.809 -1.4932  1.9081 -0.4945
  115OSM   C13F12055   1.478   5.292   7.937  0.3843  0.7902  0.0616
  115OSM   H13F12056   1.565   5.226   7.960  0.4167  0.5253 -0.7820
  115OSM   H13G12057   1.394   5.223   7.912 -0.0447  1.2155  0.3192
  115OSM   C14F12058   1.431   5.391   8.052 -0.5711  1.2411 -0.0228
  115OSM   H14F12059   1.329   5.432   8.039 -0.1919  2.1844 -0.1032
  115OSM   H14G12060   1.505   5.474   8.052  1.9058 -0.8317 -0.6085
  115OSM   C15F12061   1.442   5.326   8.192 -0.3932  0.5511  0.0673
  115OSM   H15F12062   1.538   5.272   8.200 -1.1957 -1.6601 -3.2972
  115OSM   H15G12063   1.355   5.258   8.200  0.5229 -0.6447  0.0617
  115OSM   C16F12064   1.438   5.431   8.297  0.1831  0.5312 -0.0882
  115OSM   H16F12065   1.515   5.506   8.271  1.7913 -1.0246 -0.0601
  115OSM   H16G12066   1.474   5.387   8.393  4.0806  0.7682 -1.2732
  115OSM   C17F12067   1.300   5.495   8.315  0.1950  0.2642 -0.8316
  115OSM   H17F12068   1.233   5.414   8.351  0.9427  1.2878  3.3686
  115OSM   H17G12069   1.271   5.533   8.215 -1.0308  2.1631  0.1975
  115OSM   C18F12070   1.309   5.608   8.424  0.1159 -0.1400 -0.2429
  115OSM   H18F12071   1.345   5.566   8.520 -2.4605 -0.6844  0.5660
  115OSM   H18G12072   1.214   5.662   8.441 -0.4459 -1.7033  1.9595
  115OSM   H18H12073   1.384   5.684   8.393 -0.6120  0.1634 -1.3396
  116OSM      N12074   0.707   0.897   6.164  0.5851 -0.4298  0.4738
  116OSM    C1512075   0.839   0.837   6.122 -0.1430 -0.2392 -0.0551
  116OSM   H15A12076   0.916   0.912   6.134  0.2474 -0.4338 -1.2259
  116OSM   H15B12077   0.852   0.805   6.020  1.7808 -1.9074  0.6346
  116OSM   H15C12078   0.871   0.756   6.187 -0.1132  0.4344  0.7834
  116OSM    C1412079   0.667   0.998   6.059 -0.2269 -0.6928  0.6259
  116OSM   H14A12080   0.675   0.953   5.961  1.2195 -0.3944  0.5894
  116OSM   H14B12081   0.725   1.088   6.055 -1.5466  0.2328  1.4212
  116OSM   H14C12082   0.565   1.027   6.080  0.3549  0.4601  2.0199
  116OSM    C1312083   0.592   0.798   6.154 -0.1296  0.0819 -0.3028
  116OSM   H13A12084   0.606   0.721   6.228 -0.6993  1.5905  1.4419
  116OSM   H13B12085   0.584   0.746   6.059 -1.0169  0.4694 -0.4553
  116OSM   H13C12086   0.497   0.848   6.167 -1.4503 -2.4724  0.5924
  116OSM    C1212087   0.723   0.957   6.298  0.5566 -0.4020 -0.7227
  116OSM   H12A12088   0.816   1.012   6.299  0.2942  0.0436 -0.8833
  116OSM   H12B12089   0.736   0.882   6.375 -0.3699 -0.7513 -0.8899
  116OSM    C1112090   0.603   1.039   6.346 -0.3347 -0.0641  0.2760
  116OSM   H11A12091   0.603   1.132   6.285  1.4555  0.0199  0.3435
  116OSM   H11B12092   0.630   1.081   6.446  0.8932  1.5828 -0.6988
  116OSM      P12093   0.353   1.052   6.336 -0.0602  0.1708 -0.3453
  116OSM    O1312094   0.349   1.098   6.198 -0.0803 -0.2592 -0.0930
  116OSM    O1412095   0.234   0.969   6.378  0.2135  0.1197 -0.2408
  116OSM    O1112096   0.381   1.176   6.435 -0.0964 -0.5648  0.6022
  116OSM    O1212097   0.483   0.968   6.353 -0.1201  0.6378  0.5002
  116OSM    C1S12098   0.358   1.177   6.574 -0.6061  0.4083 -0.2078
  116OSM    H1S12099   0.428   1.111   6.630 -0.5739  0.4059 -0.2500
  116OSM    H1T12100   0.254   1.152   6.601 -0.8869  1.8361  0.0977
  116OSM     NF12101   0.367   1.324   6.780  0.4817  0.0462  0.0681
  116OSM    HNF12102   0.292   1.382   6.809  0.6443  0.8761 -1.0799
  116OSM    C2S12103   0.391   1.321   6.635  0.1767 -0.2449 -0.0436
  116OSM    H2S12104   0.497   1.348   6.618 -0.0541  1.1941  0.6493
  116OSM    C3S12105   0.311   1.433   6.562  0.1409 -0.3215 -0.3254
  116OSM    H3S12106   0.204   1.407   6.568  0.6505 -2.5112  0.3070
  116OSM     O312107   0.333   1.443   6.422 -0.1195 -0.2958 -0.2708
  116OSM    HO312108   0.384   1.368   6.389  0.6142  0.3036 -0.5555
  116OSM    C4S12109   0.340   1.567   6.636  0.5763  1.1198  0.0977
  116OSM    H4S12110   0.249   1.610   6.679 -1.0752 -1.2355 -0.8666
  116OSM    C5S12111   0.461   1.627   6.628 -0.5664  0.1787  0.2406
  116OSM    H5S12112   0.545   1.583   6.574  1.2961  1.8446  1.6218
  116OSM    C6S12113   0.497   1.759   6.696 -0.2171 -0.0143  0.1743
  116OSM    H6S12114   0.546   1.822   6.619  0.5844 -1.0099 -0.1497
  116OSM    H6T12115   0.584   1.738   6.762  0.6545 -0.8995 -1.2089
  116OSM    C7S12116   0.379   1.829   6.773 -0.1841  0.2254  0.2014
  116OSM    H7S12117   0.293   1.794   6.712  0.3347 -1.2104  0.2529
  116OSM    H7T12118   0.384   1.937   6.751  1.0563 -0.2574 -2.2818
  116OSM    C8S12119   0.381   1.793   6.925 -0.0176 -0.3634  0.5531
  116OSM    H8S12120   0.468   1.841   6.974 -0.9891  0.9465  1.0553
  116OSM    H8T12121   0.377   1.683   6.936  0.3048 -0.3776  0.5389
  116OSM    C9S12122   0.264   1.868   6.997 -0.1085 -0.1279  0.5046
  116OSM    H9S12123   0.184   1.867   6.920 -0.4455  0.6860  0.8385
  116OSM    H9T12124   0.279   1.975   7.020  1.0968  0.4568 -2.4716
  116OSM   C10S12125   0.226   1.789   7.124 -0.4861  0.1979 -0.3337
  116OSM   H10S12126   0.233   1.678   7.114 -0.0892  0.3316 -1.8555
  116OSM   H10T12127   0.119   1.808   7.146 -0.1687 -0.3595  1.9397
  116OSM   C11S12128   0.319   1.817   7.237 -0.3758 -0.7875  0.2937
  116OSM   H11S12129   0.313   1.926   7.261  1.1371 -0.4445 -0.6882
  116OSM   H11T12130   0.426   1.795   7.218 -0.1717  0.3084  0.0809
  116OSM   C12S12131   0.285   1.731   7.365  0.2365  0.0053 -0.2357
  116OSM   H12S12132   0.261   1.627   7.337  0.4841  0.1325 -0.9210
  116OSM   H12T12133   0.194   1.778   7.409 -0.3207 -3.5638  2.9275
  116OSM   C13S12134   0.381   1.745   7.482  0.1028  0.1944 -0.1399
  116OSM   H13S12135   0.376   1.844   7.534  1.6988 -0.6012  1.6502
  116OSM   H13T12136   0.486   1.734   7.446  0.5114  1.0474  0.7342
  116OSM   C14S12137   0.344   1.637   7.581  0.4847 -0.0484  0.1772
  116OSM   H14S12138   0.341   1.539   7.528 -2.5899  1.3945 -2.7183
  116OSM   H14T12139   0.241   1.660   7.619  0.1842 -0.5299 -0.3301
  116OSM   C15S12140   0.435   1.647   7.709  0.0166  0.3386 -0.4618
  116OSM   H15S12141   0.445   1.750   7.751 -1.9894 -0.8519  3.4405
  116OSM   H15T12142   0.539   1.619   7.685  1.8048  1.2245  4.8295
  116OSM   C16S12143   0.393   1.552   7.831 -0.3250 -0.4688 -0.2227
  116OSM   H16S12144   0.466   1.559   7.914 -3.6939  1.3633  2.8574
  116OSM   H16T12145   0.391   1.450   7.786 -0.6759 -0.6819  0.2686
  116OSM   C17S12146   0.258   1.571   7.890  0.8081  0.1333 -0.4160
  116OSM   H17S12147   0.229   1.481   7.949 -2.6576  2.5887  2.0807
  116OSM   H17T12148   0.189   1.578   7.802 -0.2822  2.1429  0.5339
  116OSM   C18S12149   0.223   1.698   7.970  0.2796  0.1936 -0.4588
  116OSM   H18S12150   0.212   1.787   7.904  1.8654  0.9911  0.2995
  116OSM   H18T12151   0.288   1.709   8.059  1.9832  1.6355 -1.7934
  116OSM   H18U12152   0.120   1.686   8.009  0.2922  1.6627  0.0766
  116OSM    C1F12153   0.424   1.234   6.866  0.6659 -0.9447  0.1923
  116OSM     OF12154   0.531   1.175   6.845  0.0775  0.7017  0.2614
  116OSM    C2F12155   0.359   1.216   6.995  0.2059  0.2959 -0.1770
  116OSM    H2F12156   0.290   1.129   6.995  1.5740 -0.9283  2.8056
  116OSM    H2G12157   0.292   1.300   7.023 -0.3613 -0.9187  2.4401
  116OSM    C3F12158   0.454   1.175   7.113 -0.2003  0.7198  0.6878
  116OSM    H3F12159   0.535   1.251   7.118 -0.2035  1.1707 -2.8863
  116OSM    H3G12160   0.513   1.085   7.085 -0.0114  0.7712  0.9223
  116OSM    C4F12161   0.377   1.174   7.245 -0.5794  0.3750  0.6292
  116OSM    H4F12162   0.285   1.111   7.235 -1.4880  1.7378  0.0751
  116OSM    H4G12163   0.354   1.282   7.256 -3.2490 -0.1596  1.1643
  116OSM    C5F12164   0.457   1.131   7.369  0.1923  0.3152  0.1702
  116OSM    H5F12165   0.555   1.182   7.381  0.5105 -0.0366 -0.8113
  116OSM    H5G12166   0.477   1.026   7.339  1.3262  0.5421  0.1005
  116OSM    C6F12167   0.379   1.136   7.501 -0.7741  0.5584 -0.0104
  116OSM    H6F12168   0.284   1.078   7.500 -1.0876  1.0644 -0.4240
  116OSM    H6G12169   0.359   1.244   7.521 -1.5026  0.2727  0.8948
  116OSM    C7F12170   0.463   1.085   7.615 -0.9548  0.0238  0.5862
  116OSM    H7F12171   0.557   1.143   7.626  0.1643 -1.6330  0.1019
  116OSM    H7G12172   0.480   0.976   7.604 -0.5120  0.2291 -1.1289
  116OSM    C8F12173   0.388   1.102   7.754 -0.4672 -0.4478 -0.2263
  116OSM    H8F12174   0.278   1.090   7.743 -0.4193  0.2435 -1.7288
  116OSM    H8G12175   0.385   1.213   7.766  0.1381 -0.4072 -0.4556
  116OSM    C9F12176   0.461   1.033   7.866  0.0799 -0.0252 -0.6865
  116OSM    H9F12177   0.563   1.070   7.886  0.0122 -0.1564 -0.0643
  116OSM   C10F12178   0.406   0.937   7.942 -1.2610  0.4776  0.3757
  116OSM   H10F12179   0.472   0.889   8.016  0.4226  0.4116 -1.1053
  116OSM   C11F12180   0.265   0.884   7.932 -0.2610 -0.3753  0.3057
  116OSM   H11F12181   0.259   0.773   7.938  0.7761 -0.5913 -1.9074
  116OSM   H11G12182   0.221   0.900   7.831  2.2291  0.1062 -0.7695
  116OSM   C12F12183   0.174   0.937   8.051 -0.2388  0.8871  0.1156
  116OSM   H12F12184   0.069   0.902   8.041 -0.3279  1.1911 -0.0400
  116OSM   H12G12185   0.173   1.048   8.050 -0.2121  0.9560  2.3396
  116OSM   C13F12186   0.224   0.906   8.192  0.3808 -0.5038 -0.0310
  116OSM   H13F12187   0.160   0.953   8.270  1.1565  1.6656 -0.6274
  116OSM   H13G12188   0.325   0.953   8.198 -0.4292  1.4525 -0.7080
  116OSM   C14F12189   0.230   0.759   8.229  0.2075 -0.5657  0.1298
  116OSM   H14F12190   0.305   0.703   8.169  0.3990 -0.1023 -0.0600
  116OSM   H14G12191   0.139   0.702   8.202  0.0200 -0.1830 -0.0460
  116OSM   C15F12192   0.271   0.745   8.380  0.1995 -0.4593  0.6519
  116OSM   H15F12193   0.249   0.841   8.431  0.3607  0.1008 -0.3127
  116OSM   H15G12194   0.379   0.720   8.378  0.0062 -1.3111  0.5175
  116OSM   C16F12195   0.201   0.628   8.459 -0.2546  0.0671  0.1022
  116OSM   H16F12196   0.222   0.532   8.408 -0.1706 -1.1644  2.3407
  116OSM   H16G12197   0.091   0.634   8.470 -0.0559  0.3039  2.5287
  116OSM   C17F12198   0.241   0.608   8.606 -0.0658 -0.2028  0.2475
  116OSM   H17F12199   0.352   0.619   8.612 -0.0159 -1.0554  1.1536
  116OSM   H17G12200   0.231   0.506   8.649  2.3625 -0.2244  0.9467
  116OSM   C18F12201   0.172   0.704   8.701 -0.2684 -0.8165  0.2028
  116OSM   H18F12202   0.207   0.675   8.802  0.8755  0.3505  0.1714
  116OSM   H18G12203   0.061   0.697   8.701 -0.3733  0.5563  0.5042
  116OSM   H18H12204   0.215   0.799   8.662 -1.4530 -1.5514 -3.2709
  117OSM      N12205   5.646   4.048   6.233  0.2276  0.1166 -0.3588
  117OSM    C1512206   5.646   3.981   6.366 -0.2787  0.1907  0.2689
  117OSM   H15A12207   5.741   3.973   6.416  1.5203  3.5042 -2.1697
  117OSM   H15B12208   5.617   3.879   6.347 -2.3139  0.7014  0.3206
  117OSM   H15C12209   5.584   4.030   6.440  0.1528  3.8524 -1.5364
  117OSM    C1412210   5.740   3.987   6.149  0.4758  0.3264 -0.7910
  117OSM   H14A12211   5.730   4.014   6.045 -0.0073 -1.5311 -1.2708
  117OSM   H14B12212   5.732   3.879   6.158 -2.8540  0.5318  0.1975
  117OSM   H14C12213   5.838   4.021   6.178  0.3341  1.6529 -1.7851
  117OSM    C1312214   5.517   4.013   6.175 -0.5385  0.2491  0.1311
  117OSM   H13A12215   5.490   4.058   6.081 -1.3176  0.7354  0.5729
  117OSM   H13B12216   5.436   4.052   6.236  0.1704  0.4472  0.9651
  117OSM   H13C12217   5.510   3.905   6.168 -0.0039  0.2558 -0.5640
  117OSM    C1212218   5.650   4.201   6.227  0.3982  0.2113 -0.4207
  117OSM   H12A12219   5.659   4.220   6.122  3.0378  1.0847 -0.0994
  117OSM   H12B12220   5.736   4.245   6.274  0.0831  0.1000  0.2808
  117OSM    C1112221   5.537   4.276   6.299  0.3790  0.0125  0.2276
  117OSM   H11A12222   5.576   4.379   6.311  1.2442 -0.1585 -0.9212
  117OSM   H11B12223   5.527   4.231   6.400  0.0451  0.6919  0.5045
  117OSM      P12224   5.359   4.404   6.165 -0.5874 -0.0637 -0.2906
  117OSM    O1312225   5.461   4.477   6.089 -0.1184 -0.3335 -0.3501
  117OSM    O1412226   5.233   4.362   6.099 -0.1548 -0.1786  0.1401
  117OSM    O1112227   5.311   4.476   6.303  0.1159 -0.6823  0.2193
  117OSM    O1212228   5.422   4.263   6.212  0.2742 -0.3862 -0.2683
  117OSM    C1S12229   5.234   4.393   6.393  0.4216  0.4526 -0.0855
  117OSM    H1S12230   5.273   4.289   6.402 -1.2199 -0.1366  0.7526
  117OSM    H1T12231   5.129   4.401   6.357  0.5003 -0.4426 -0.5439
  117OSM     NF12232   5.161   4.376   6.628 -0.2011 -0.1530 -0.2314
  117OSM    HNF12233   5.077   4.418   6.664  0.2563 -0.7789  1.6472
  117OSM    C2S12234   5.233   4.458   6.537  0.1790  0.1798  0.2104
  117OSM    H2S12235   5.339   4.459   6.568  0.0676 -0.3560  0.6203
  117OSM    C3S12236   5.177   4.610   6.518  0.0383 -0.1704  0.2167
  117OSM    H3S12237   5.075   4.601   6.476  1.3490 -0.4778 -3.1753
  117OSM     O312238   5.243   4.703   6.435  0.0802  0.4871 -0.7734
  117OSM    HO312239   5.285   4.649   6.369  0.0389 -1.1660  0.4759
  117OSM    C4S12240   5.159   4.674   6.654 -1.0186  0.1216 -0.4308
  117OSM    H4S12241   5.060   4.661   6.700 -0.9061  1.1626  0.1264
  117OSM    C5S12242   5.256   4.734   6.732  0.1313  0.0527  0.6944
  117OSM    H5S12243   5.349   4.756   6.678  0.4046 -1.4059  0.5338
  117OSM    C6S12244   5.224   4.804   6.863  0.2411 -0.3035 -0.6276
  117OSM    H6S12245   5.117   4.832   6.875 -0.0932 -1.2590 -1.2633
  117OSM    H6T12246   5.285   4.896   6.873 -0.5109  0.0147  1.5435
  117OSM    C7S12247   5.250   4.710   6.982 -0.4880  0.1707  0.4881
  117OSM    H7S12248   5.359   4.689   6.981 -1.0577 -3.5485 -0.7942
  117OSM    H7T12249   5.196   4.613   6.969  2.8424 -1.5119 -2.9053
  117OSM    C8S12250   5.201   4.753   7.126 -0.1406 -0.3022 -0.3999
  117OSM    H8S12251   5.090   4.763   7.124 -0.1505  0.1704  1.1375
  117OSM    H8T12252   5.233   4.858   7.140  2.8566 -1.2731  0.7726
  117OSM    C9S12253   5.256   4.665   7.232 -0.4245 -0.7935  0.1739
  117OSM    H9S12254   5.365   4.687   7.239 -0.6700  0.1841  1.4782
  117OSM    H9T12255   5.246   4.556   7.213  1.1156 -1.5306  2.9115
  117OSM   C10S12256   5.200   4.705   7.370  0.1538  0.0810  0.4513
  117OSM   H10S12257   5.090   4.715   7.356  0.5356  0.2818 -3.6672
  117OSM   H10T12258   5.240   4.799   7.414  1.8713 -0.6106  0.4374
  117OSM   C11S12259   5.230   4.596   7.475  0.4804 -0.5930  0.2778
  117OSM   H11S12260   5.339   4.589   7.492  0.1573  0.1942  3.4797
  117OSM   H11T12261   5.197   4.505   7.420 -2.4518 -0.0000  0.8649
  117OSM   C12S12262   5.157   4.608   7.610  0.0823 -0.4499  0.6224
  117OSM   H12S12263   5.138   4.508   7.656 -0.5346 -0.8370 -0.4268
  117OSM   H12T12264   5.060   4.654   7.580  1.3978  1.6893 -0.6023
  117OSM   C13S12265   5.234   4.697   7.707 -0.0946 -0.0183  0.3573
  117OSM   H13S12266   5.215   4.802   7.674  2.4225  0.1701 -0.7854
  117OSM   H13T12267   5.344   4.683   7.696 -0.6162 -2.7902 -2.8036
  117OSM   C14S12268   5.200   4.661   7.845  0.2227  0.3491  0.2124
  117OSM   H14S12269   5.238   4.558   7.863  1.3875  0.5461 -0.9486
  117OSM   H14T12270   5.093   4.665   7.872  0.3143  2.1999  0.4211
  117OSM   C15S12271   5.284   4.738   7.943  0.2450  0.2613 -0.2070
  117OSM   H15S12272   5.233   4.836   7.954 -2.5744 -1.1954  0.7113
  117OSM   H15T12273   5.391   4.751   7.914  0.4413 -0.2166  0.2789
  117OSM   C16S12274   5.264   4.680   8.084  0.1429  0.7404 -0.0721
  117OSM   H16S12275   5.331   4.592   8.089  0.0367  0.5653 -1.3629
  117OSM   H16T12276   5.159   4.645   8.099  0.4886 -0.5234 -0.4341
  117OSM   C17S12277   5.315   4.776   8.188  0.5130  0.6093  0.5395
  117OSM   H17S12278   5.412   4.822   8.158  3.4425 -4.0362  1.8260
  117OSM   H17T12279   5.329   4.714   8.279 -0.8333  0.5041  0.6918
  117OSM   C18S12280   5.213   4.885   8.214 -0.0256 -0.1337 -0.2315
  117OSM   H18S12281   5.211   4.932   8.315 -1.5136  2.0102 -1.1895
  117OSM   H18T12282   5.113   4.837   8.207  0.6950 -2.4606  2.8805
  117OSM   H18U12283   5.212   4.968   8.140  0.3213 -0.2632 -0.3829
  117OSM    C1F12284   5.191   4.248   6.663 -0.8774 -1.2545 -0.5226
  117OSM     OF12285   5.277   4.183   6.599 -0.3760 -0.1324 -0.0657
  117OSM    C2F12286   5.112   4.186   6.774 -0.0971 -0.0174 -0.3418
  117OSM    H2F12287   5.022   4.130   6.740 -0.9840  1.1106  0.0581
  117OSM    H2G12288   5.069   4.273   6.829 -1.4091 -0.3842 -0.7498
  117OSM    C3F12289   5.204   4.108   6.868  0.4217 -0.8258  0.0643
  117OSM    H3F12290   5.301   4.161   6.878  0.9457 -0.9513 -3.2768
  117OSM    H3G12291   5.237   4.011   6.824  0.5116 -0.9192  0.3325
  117OSM    C4F12292   5.149   4.077   7.011  0.6663  0.5419  0.2236
  117OSM    H4F12293   5.221   4.006   7.056  1.7031  1.0124 -0.6618
  117OSM    H4G12294   5.056   4.019   6.993  2.4801 -2.8203  0.8008
  117OSM    C5F12295   5.126   4.196   7.098  0.2712 -0.7343 -0.7314
  117OSM    H5F12296   5.065   4.270   7.042 -1.3125 -2.6859 -1.7031
  117OSM    H5G12297   5.225   4.239   7.126 -1.0259  1.2485  1.2240
  117OSM    C6F12298   5.073   4.153   7.232  0.7104 -0.4801  0.5888
  117OSM    H6F12299   5.154   4.138   7.307  0.5342  0.5994  1.0128
  117OSM    H6G12300   5.003   4.067   7.228 -4.0478  2.8987  2.0558
  117OSM    C7F12301   4.977   4.263   7.280  1.0673  0.4149  0.1386
  117OSM    H7F12302   4.882   4.263   7.221  0.4198 -1.0814  1.1138
  117OSM    H7G12303   5.034   4.358   7.290  0.4813  0.5127  3.6860
  117OSM    C8F12304   4.922   4.241   7.423  0.2385 -0.3289  0.0178
  117OSM    H8F12305   4.863   4.330   7.453  0.3648 -0.5994  1.1101
  117OSM    H8G12306   5.011   4.239   7.489  0.4338 -1.6042 -0.2566
  117OSM    C9F12307   4.844   4.117   7.436  0.3146  0.5798 -0.5434
  117OSM    H9F12308   4.750   4.109   7.380 -0.0817 -4.8983  0.3381
  117OSM   C10F12309   4.870   4.008   7.510  0.2686  0.3377 -0.1159
  117OSM   H10F12310   4.791   3.932   7.520  0.6613 -0.1511 -0.6061
  117OSM   C11F12311   4.993   3.977   7.585  0.3208 -0.5844 -0.7145
  117OSM   H11F12312   5.088   4.008   7.537  0.9870 -0.8583  0.3815
  117OSM   H11G12313   4.998   3.867   7.605  0.0352 -0.4743 -0.0025
  117OSM   C12F12314   4.974   4.030   7.728  0.0739  0.3124  0.0848
  117OSM   H12F12315   5.063   3.994   7.785 -0.3899  0.9906  1.2609
  117OSM   H12G12316   4.890   3.990   7.789 -0.0972  2.8377  1.6702
  117OSM   C13F12317   4.964   4.180   7.746 -0.3090 -0.7453 -0.5687
  117OSM   H13F12318   4.857   4.207   7.729 -0.1212 -0.3445 -1.1770
  117OSM   H13G12319   5.031   4.239   7.679 -1.3467  0.9365 -0.2040
  117OSM   C14F12320   4.987   4.212   7.897 -0.1362  0.2418 -0.7955
  117OSM   H14F12321   5.092   4.186   7.920 -0.3648  0.4271  0.5735
  117OSM   H14G12322   4.920   4.150   7.962  0.2003 -0.2855 -0.9515
  117OSM   C15F12323   4.974   4.362   7.934 -0.2454  0.1740  0.1614
  117OSM   H15F12324   4.869   4.386   7.908 -0.6075 -1.4701 -0.0181
  117OSM   H15G12325   5.036   4.421   7.863  2.3745 -2.4924  0.0187
  117OSM   C16F12326   5.010   4.398   8.071 -0.4629  0.2113  0.7064
  117OSM   H16F12327   5.013   4.508   8.084  0.5465  0.3132 -0.3245
  117OSM   H16G12328   5.115   4.365   8.085  0.0252  1.0308 -0.8506
  117OSM   C17F12329   4.916   4.338   8.179  0.2323 -0.0144 -0.0589
  117OSM   H17F12330   4.923   4.229   8.195 -1.3317  0.0245  1.0839
  117OSM   H17G12331   4.955   4.380   8.274 -1.0311  0.1104  0.4219
  117OSM   C18F12332   4.776   4.371   8.162  0.5820 -0.2373  0.0316
  117OSM   H18F12333   4.741   4.314   8.073  1.2154 -0.7748  0.1182
  117OSM   H18G12334   4.765   4.481   8.149 -2.4969 -0.4399  0.0836
  117OSM   H18H12335   4.710   4.339   8.246  0.6398  0.0348  0.1805
  118OSM      N12336   1.366   1.210   6.083  0.0591 -0.1541 -0.4621
  118OSM    C1512337   1.267   1.322   6.098 -0.0882  0.4450 -0.1473
  118OSM   H15A12338   1.199   1.302   6.179 -0.1937  1.6343  0.0738
  118OSM   H15B12339   1.218   1.354   6.007 -4.2047  0.0468  1.6918
  118OSM   H15C12340   1.321   1.409   6.133  0.6565 -1.0586  2.6980
  118OSM    C1412341   1.297   1.086   6.045 -0.2792 -0.0558  0.2600
  118OSM   H14A12342   1.362   1.000   6.048 -1.8981 -1.4001 -1.3614
  118OSM   H14B12343   1.257   1.088   5.945  0.6556  1.0327 -0.1113
  118OSM   H14C12344   1.215   1.058   6.110  0.2867 -1.5144  0.3743
  118OSM    C1312345   1.464   1.248   5.972  0.2529  0.1945 -0.2664
  118OSM   H13A12346   1.535   1.168   5.960 -1.1209 -0.9694 -0.8875
  118OSM   H13B12347   1.526   1.331   6.001 -1.9029  2.8063 -2.4821
  118OSM   H13C12348   1.419   1.271   5.876  0.9561  0.8679 -0.4438
  118OSM    C1212349   1.443   1.195   6.209 -0.8555  0.5445  0.0688
  118OSM   H12A12350   1.508   1.280   6.222 -1.5182  1.1178 -0.3308
  118OSM   H12B12351   1.513   1.113   6.199 -1.3594 -0.0848  1.4384
  118OSM    C1112352   1.359   1.162   6.334 -0.6525  0.6402 -0.1806
  118OSM   H11A12353   1.288   1.247   6.342 -0.4021  0.6632  2.7423
  118OSM   H11B12354   1.435   1.178   6.413  0.7458  2.0910 -1.7201
  118OSM      P12355   1.352   0.898   6.359  0.0902 -0.3515  0.0635
  118OSM    O1312356   1.246   0.802   6.336  0.0978  0.2103 -0.7959
  118OSM    O1412357   1.474   0.877   6.278 -0.3544 -0.5351 -0.9244
  118OSM    O1112358   1.390   0.904   6.507 -0.0442  0.2489 -0.4464
  118OSM    O1212359   1.286   1.036   6.333  0.0091 -0.3145  0.3874
  118OSM    C1S12360   1.306   0.964   6.605 -0.1811  0.1474 -0.3667
  118OSM    H1S12361   1.200   0.933   6.594 -0.6071  0.6178  1.9837
  118OSM    H1T12362   1.311   1.075   6.595 -1.8312  0.3618  0.6296
  118OSM     NF12363   1.244   0.990   6.838  0.0429 -0.1438 -0.1672
  118OSM    HNF12364   1.265   1.064   6.901  1.3763 -0.5418 -0.1248
  118OSM    C2S12365   1.346   0.932   6.753 -0.2310 -0.0290  0.0080
  118OSM    H2S12366   1.329   0.823   6.768  1.3158 -0.1305  1.3092
  118OSM    C3S12367   1.491   0.982   6.778  0.0995 -0.3319 -0.6486
  118OSM    H3S12368   1.512   1.091   6.772 -0.8419 -0.0511  0.7025
  118OSM     O312369   1.589   0.932   6.685 -0.3396  0.0601 -0.6899
  118OSM    HO312370   1.542   0.896   6.609 -0.5291 -1.4514  0.1092
  118OSM    C4S12371   1.525   0.945   6.918 -0.1331  0.2354 -0.3638
  118OSM    H4S12372   1.500   0.847   6.960  0.1167  0.4981  0.4148
  118OSM    C5S12373   1.580   1.026   7.010  0.2951 -0.1313  0.0836
  118OSM    H5S12374   1.591   1.134   6.991  0.9194 -0.0711  0.7171
  118OSM    C6S12375   1.606   0.970   7.145 -0.5034 -0.6235 -0.6676
  118OSM    H6S12376   1.654   0.870   7.143 -1.5526 -1.5901  5.1989
  118OSM    H6T12377   1.515   0.953   7.206  0.1561 -0.4484  0.3865
  118OSM    C7S12378   1.695   1.049   7.242 -0.3467 -0.1318 -0.2097
  118OSM    H7S12379   1.661   1.153   7.261 -0.5370 -0.2428  0.0528
  118OSM    H7T12380   1.796   1.055   7.194 -0.1639  0.2974  0.2261
  118OSM    C8S12381   1.705   0.993   7.381  0.3127 -0.6608 -0.0656
  118OSM    H8S12382   1.760   0.896   7.374  2.0172  0.1799  0.9923
  118OSM    H8T12383   1.602   0.971   7.415  0.2898  1.1398  1.1455
  118OSM    C9S12384   1.785   1.074   7.483  0.2368  0.0942  0.8277
  118OSM    H9S12385   1.737   1.173   7.498 -0.1779  0.4194 -2.0912
  118OSM    H9T12386   1.887   1.086   7.442  0.7477  2.0257  2.5095
  118OSM   C10S12387   1.780   1.014   7.622  0.2538  0.2004  0.6912
  118OSM   H10S12388   1.823   0.911   7.622  0.4506  0.1333 -3.0964
  118OSM   H10T12389   1.679   1.004   7.666 -0.0555  2.9293  0.7456
  118OSM   C11S12390   1.854   1.114   7.719 -0.3835  0.7702  0.2197
  118OSM   H11S12391   1.796   1.206   7.739 -1.1888  0.7531 -1.8350
  118OSM   H11T12392   1.947   1.140   7.664 -1.9264  0.1299 -2.9092
  118OSM   C12S12393   1.887   1.037   7.847  0.2785 -0.0222 -0.1412
  118OSM   H12S12394   1.966   0.963   7.822  0.6995  0.1313  0.7137
  118OSM   H12T12395   1.801   0.970   7.868 -0.0408  0.8001  1.2787
  118OSM   C13S12396   1.930   1.130   7.958  0.2580  0.1430  0.0246
  118OSM   H13S12397   1.967   1.221   7.907  0.6880 -0.1092 -0.1198
  118OSM   H13T12398   2.021   1.095   8.012 -0.5845  0.0462  1.4290
  118OSM   C14S12399   1.812   1.159   8.055  0.2994 -0.1459  0.0014
  118OSM   H14S12400   1.709   1.169   8.014 -0.3584  1.3383  1.8951
  118OSM   H14T12401   1.827   1.254   8.111 -1.6895  1.0539 -1.3458
  118OSM   C15S12402   1.811   1.041   8.161 -0.1096  0.1491 -0.1356
  118OSM   H15S12403   1.911   1.045   8.210  0.1287  0.0424 -0.6011
  118OSM   H15T12404   1.810   0.942   8.111  0.1943 -0.3303  0.7819
  118OSM   C16S12405   1.696   1.053   8.260 -0.1586 -0.2211 -0.3608
  118OSM   H16S12406   1.594   1.018   8.233 -1.0663  1.5563  0.6036
  118OSM   H16T12407   1.683   1.162   8.280 -0.3268 -0.3552  0.2942
  118OSM   C17S12408   1.712   0.992   8.405 -0.4212  0.2894  0.1889
  118OSM   H17S12409   1.809   1.032   8.441  0.5619 -1.2935 -0.6119
  118OSM   H17T12410   1.724   0.882   8.401  0.1750  0.2783  1.8414
  118OSM   C18S12411   1.603   1.023   8.504 -0.3066  0.5191  0.4410
  118OSM   H18S12412   1.504   0.985   8.471 -0.0556  0.2398  0.0017
  118OSM   H18T12413   1.608   1.132   8.522 -0.0063  0.3455  1.4526
  118OSM   H18U12414   1.618   0.969   8.600 -2.5018 -1.2104 -0.1097
  118OSM    C1F12415   1.121   0.948   6.838  0.1305  0.1983 -0.3910
  118OSM     OF12416   1.092   0.847   6.774 -0.0254 -0.1078 -0.4663
  118OSM    C2F12417   1.014   1.021   6.911  0.4210 -0.3529 -0.2795
  118OSM    H2F12418   0.924   1.013   6.847  0.1252  0.9209 -0.0379
  118OSM    H2G12419   1.031   1.130   6.923  2.4795 -0.3627 -2.5380
  118OSM    C3F12420   0.977   0.953   7.043  0.6309  1.1139 -0.5699
  118OSM    H3F12421   1.058   0.988   7.110  1.0413 -1.2100  0.2223
  118OSM    H3G12422   0.970   0.842   7.042 -1.1969  1.1928 -0.9759
  118OSM    C4F12423   0.849   1.001   7.101  0.2094 -0.1882  0.0081
  118OSM    H4F12424   0.775   0.998   7.018 -0.9286 -1.1139  1.0027
  118OSM    H4G12425   0.847   1.109   7.126 -2.2284 -0.0548 -0.4603
  118OSM    C5F12426   0.791   0.909   7.210 -0.3056 -0.0576 -0.1931
  118OSM    H5F12427   0.747   0.813   7.176 -1.8428 -0.1429  1.8956
  118OSM    H5G12428   0.711   0.965   7.261  0.6437  1.6717 -0.5104
  118OSM    C6F12429   0.893   0.874   7.326  0.4264 -0.0187  0.8798
  118OSM    H6F12430   0.923   0.975   7.362 -2.8803  0.6303  2.1822
  118OSM    H6G12431   0.986   0.826   7.288  0.7228 -0.0597  1.6311
  118OSM    C7F12432   0.830   0.794   7.445  0.2766  0.4142  0.0372
  118OSM    H7F12433   0.831   0.685   7.420  2.5260  0.5044 -0.4381
  118OSM    H7G12434   0.724   0.821   7.467  0.3392  1.0686 -0.4369
  118OSM    C8F12435   0.908   0.813   7.583 -0.5222 -0.5805  0.1702
  118OSM    H8F12436   1.016   0.814   7.557 -0.7815 -2.4605 -1.2783
  118OSM    H8G12437   0.904   0.724   7.650  2.2567 -1.8661 -1.1927
  118OSM    C9F12438   0.871   0.947   7.639 -0.2889 -0.0223  0.2723
  118OSM    H9F12439   0.865   1.023   7.559 -0.0806  0.1837  0.4498
  118OSM   C10F12440   0.840   0.978   7.769 -0.3038 -0.6934  1.1412
  118OSM   H10F12441   0.797   1.077   7.789 -0.4324 -0.3102 -0.7689
  118OSM   C11F12442   0.821   0.875   7.877  0.3802  0.4515  0.3904
  118OSM   H11F12443   0.825   0.772   7.834 -1.6242 -0.5773  2.4197
  118OSM   H11G12444   0.730   0.886   7.940  0.0684 -3.4750  0.9053
  118OSM   C12F12445   0.947   0.888   7.961  0.3495  0.8033  0.3661
  118OSM   H12F12446   0.981   0.991   7.986 -1.3915  1.8618 -1.3964
  118OSM   H12G12447   1.029   0.835   7.907  0.9697  0.5214  1.5399
  118OSM   C13F12448   0.938   0.807   8.095 -0.2022 -0.5258  0.9428
  118OSM   H13F12449   0.905   0.706   8.064 -0.9149  0.8271 -3.4252
  118OSM   H13G12450   0.859   0.847   8.162  0.4508 -1.1652  2.1282
  118OSM   C14F12451   1.071   0.797   8.170 -0.2327 -0.2117 -1.1786
  118OSM   H14F12452   1.106   0.902   8.165  1.0770 -0.5628  0.1175
  118OSM   H14G12453   1.137   0.725   8.117  0.8565  0.7802 -1.2057
  118OSM   C15F12454   1.048   0.761   8.320  0.7974  0.2372 -0.5114
  118OSM   H15F12455   1.011   0.657   8.330 -0.5886  0.8484  1.2137
  118OSM   H15G12456   0.954   0.812   8.350  1.3371  2.2692 -2.0228
  118OSM   C16F12457   1.157   0.800   8.408  0.2519 -0.5707 -0.6427
  118OSM   H16F12458   1.171   0.910   8.395  1.0438  0.0860  4.0729
  118OSM   H16G12459   1.253   0.753   8.380 -0.9683 -3.8326  0.2011
  118OSM   C17F12460   1.137   0.786   8.562 -0.3125 -0.1715  0.0041
  118OSM   H17F12461   1.028   0.797   8.583 -0.0527  0.7587  0.8900
  118OSM   H17G12462   1.204   0.860   8.608 -1.7722 -0.2818  2.4995
  118OSM   C18F12463   1.200   0.652   8.608  0.5930 -0.3394 -0.1181
  118OSM   H18F12464   1.147   0.578   8.545 -0.8721  1.3421 -0.9678
  118OSM   H18G12465   1.188   0.640   8.717  2.9170 -0.4136  0.1894
  118OSM   H18H12466   1.310   0.639   8.595  0.4465 -2.2353  0.3146
  119OSM      N12467   2.571   3.843   5.979 -0.4129 -0.6864  0.2033
  119OSM    C1512468   2.547   3.792   6.117 -0.6015  0.0460 -0.2617
  119OSM   H15A12469   2.489   3.857   6.181 -1.1169 -0.4701 -0.1963
  119OSM   H15B12470   2.638   3.775   6.171 -0.6336 -1.5329 -0.6660
  119OSM   H15C12471   2.484   3.704   6.115 -2.2194  1.1702 -1.1573
  119OSM    C1412472   2.632   3.735   5.904  0.0460 -0.0626  0.2302
  119OSM   H14A12473   2.565   3.650   5.896  0.3190 -0.1666 -1.2470
  119OSM   H14B12474   2.727   3.714   5.950  0.1589 -0.3289 -0.1220
  119OSM   H14C12475   2.653   3.762   5.802  0.1494  1.6810  0.6874
  119OSM    C1312476   2.437   3.884   5.916  0.2137  0.4092 -0.1160
  119OSM   H13A12477   2.356   3.877   5.987  0.0795  1.0904 -0.1907
  119OSM   H13B12478   2.415   3.829   5.826  2.5838  1.1462 -1.2480
  119OSM   H13C12479   2.443   3.990   5.897 -2.1134  0.6194  0.1325
  119OSM    C1212480   2.661   3.969   5.989  0.1111 -0.5170  0.3635
  119OSM   H12A12481   2.659   4.027   5.898 -1.7408  1.8342  1.7806
  119OSM   H12B12482   2.759   3.942   6.025  0.5920  2.2745  1.3257
  119OSM    C1112483   2.619   4.076   6.088  0.6455 -0.2311  0.6844
  119OSM   H11A12484   2.708   4.142   6.088 -0.8222  1.8907 -0.9827
  119OSM   H11B12485   2.599   4.039   6.190 -0.5086  1.1986  1.0197
  119OSM      P12486   2.519   4.287   5.970 -0.1321  0.3211  0.0810
  119OSM    O1312487   2.632   4.276   5.876  0.0072 -0.3898 -0.3898
  119OSM    O1412488   2.390   4.334   5.913  0.3019  0.3740  0.1918
  119OSM    O1112489   2.568   4.388   6.084 -0.2076  0.0595 -0.3885
  119OSM    O1212490   2.506   4.139   6.034  0.5388 -0.2600  0.1415
  119OSM    C1S12491   2.481   4.405   6.197  0.2296 -0.6443  0.2600
  119OSM    H1S12492   2.387   4.346   6.190 -1.2260  1.5074  1.0557
  119OSM    H1T12493   2.446   4.510   6.203  1.4149 -0.0640 -1.9047
  119OSM     NF12494   2.464   4.368   6.438  0.4950 -0.0664  0.3755
  119OSM    HNF12495   2.463   4.461   6.473  0.0024 -0.7657  2.3498
  119OSM    C2S12496   2.553   4.350   6.324 -0.5753 -0.6334 -0.3164
  119OSM    H2S12497   2.587   4.244   6.326  2.2363  0.1828 -0.4910
  119OSM    C3S12498   2.681   4.441   6.345  0.2599 -0.0869 -0.3874
  119OSM    H3S12499   2.651   4.547   6.331  1.2356  0.0619 -1.6159
  119OSM     O312500   2.785   4.414   6.253  0.0851 -0.9773  0.2247
  119OSM    HO312501   2.751   4.364   6.178 -0.4894 -2.6130  1.4950
  119OSM    C4S12502   2.741   4.422   6.479  0.1124 -1.0153  0.1311
  119OSM    H4S12503   2.766   4.315   6.493 -1.9586 -1.3784  1.6232
  119OSM    C5S12504   2.779   4.519   6.563  0.4699 -0.1674 -0.8019
  119OSM    H5S12505   2.759   4.626   6.548 -0.7614 -0.1869  0.4854
  119OSM    C6S12506   2.853   4.499   6.691 -0.8555  0.0917 -0.2387
  119OSM    H6S12507   2.923   4.585   6.700 -0.9866  0.4159 -1.9351
  119OSM    H6T12508   2.909   4.403   6.695  0.5397  0.7393 -2.4086
  119OSM    C7S12509   2.756   4.531   6.811 -0.5022 -0.9069  0.2925
  119OSM    H7S12510   2.676   4.455   6.817 -1.2801 -0.1082  0.1632
  119OSM    H7T12511   2.717   4.632   6.791  1.4469 -0.0498  0.5600
  119OSM    C8S12512   2.843   4.539   6.945  0.5731 -0.2219  0.0749
  119OSM    H8S12513   2.938   4.594   6.933  1.1420 -1.2366 -0.1453
  119OSM    H8T12514   2.870   4.433   6.965  1.0273  0.2523  2.2005
  119OSM    C9S12515   2.760   4.580   7.067 -0.1503  0.3748  0.7494
  119OSM    H9S12516   2.660   4.531   7.059 -2.0191  3.7518  1.3582
  119OSM    H9T12517   2.731   4.688   7.066 -0.5342  0.2894  1.6648
  119OSM   C10S12518   2.830   4.548   7.199  0.3576 -0.2453 -0.5061
  119OSM   H10S12519   2.909   4.625   7.186  0.0745  0.0197 -0.6760
  119OSM   H10T12520   2.879   4.448   7.202  1.7981  0.4173 -1.1320
  119OSM   C11S12521   2.748   4.562   7.328  0.9095  0.2849 -0.0643
  119OSM   H11S12522   2.716   4.669   7.335 -0.6065  0.1336 -2.9745
  119OSM   H11T12523   2.805   4.525   7.415 -1.6122  0.0258  1.5883
  119OSM   C12S12524   2.612   4.470   7.327  0.0667 -0.0453 -0.1342
  119OSM   H12S12525   2.653   4.370   7.304 -0.9089 -0.5383  0.2197
  119OSM   H12T12526   2.548   4.512   7.246 -0.2720 -1.4846 -0.6354
  119OSM   C13S12527   2.547   4.457   7.462  0.3875  0.6150 -0.2797
  119OSM   H13S12528   2.441   4.428   7.449  0.6175  0.7204 -2.8138
  119OSM   H13T12529   2.558   4.552   7.519 -0.1276 -0.9378  2.6143
  119OSM   C14S12530   2.607   4.348   7.555  0.4735  0.5739 -0.4283
  119OSM   H14S12531   2.713   4.332   7.524  0.7849  2.0265 -0.2105
  119OSM   H14T12532   2.553   4.253   7.536 -0.0836  0.8701 -0.3532
  119OSM   C15S12533   2.600   4.390   7.705 -0.1504 -0.5359 -0.1685
  119OSM   H15S12534   2.650   4.488   7.718 -1.8456  0.0113  3.7130
  119OSM   H15T12535   2.660   4.315   7.762  0.8742  1.4459  1.4920
  119OSM   C16S12536   2.456   4.378   7.759 -0.9534  0.9964  0.9594
  119OSM   H16S12537   2.414   4.290   7.705 -0.1262  1.4339 -0.4393
  119OSM   H16T12538   2.403   4.469   7.722 -0.7921 -0.0136 -2.0822
  119OSM   C17S12539   2.430   4.357   7.910  0.1334 -0.3452 -0.2794
  119OSM   H17S12540   2.320   4.342   7.922  0.2497  0.6427  2.7093
  119OSM   H17T12541   2.458   4.458   7.947 -0.7159 -0.8315  1.7952
  119OSM   C18S12542   2.525   4.260   7.981  0.1742 -0.7286  0.1224
  119OSM   H18S12543   2.500   4.237   8.087 -0.9569 -0.2498 -0.0283
  119OSM   H18T12544   2.626   4.307   7.975 -0.4027  0.4497 -0.7130
  119OSM   H18U12545   2.538   4.167   7.922  1.4827  0.0539 -0.8828
  119OSM    C1F12546   2.368   4.273   6.471  0.0435 -0.0122  0.0659
  119OSM     OF12547   2.372   4.162   6.425  0.4454 -0.1978  0.3375
  119OSM    C2F12548   2.252   4.311   6.564  0.6029  0.1842  0.4443
  119OSM    H2F12549   2.153   4.293   6.516 -0.3186 -0.7348  2.5652
  119OSM    H2G12550   2.272   4.417   6.592  2.6729  0.3323 -1.3408
  119OSM    C3F12551   2.260   4.237   6.702 -0.5225  0.8173  0.4820
  119OSM    H3F12552   2.252   4.128   6.687  1.6397  0.5405  1.0619
  119OSM    H3G12553   2.173   4.272   6.761  0.3062  1.3736  1.4132
  119OSM    C4F12554   2.394   4.271   6.774  0.1186  0.5509 -0.1271
  119OSM    H4F12555   2.398   4.378   6.805  0.4382  0.4762  0.1062
  119OSM    H4G12556   2.483   4.253   6.710  1.1296  0.2836  1.3004
  119OSM    C5F12557   2.404   4.180   6.905  0.5785 -0.7044 -0.6614
  119OSM    H5F12558   2.416   4.071   6.885 -0.4895 -1.0440  0.4165
  119OSM    H5G12559   2.310   4.189   6.963  1.2489  1.5701  0.1619
  119OSM    C6F12560   2.506   4.231   7.011  0.1795  0.0824  0.2862
  119OSM    H6F12561   2.474   4.329   7.054 -0.1784  0.2053 -0.2458
  119OSM    H6G12562   2.599   4.232   6.951 -1.7808 -1.4150 -3.0588
  119OSM    C7F12563   2.525   4.130   7.121  0.5131 -0.0546 -0.1941
  119OSM    H7F12564   2.622   4.157   7.168  0.3176  0.9955 -0.3797
  119OSM    H7G12565   2.538   4.026   7.085  0.0752 -0.4758  0.8214
  119OSM    C8F12566   2.414   4.145   7.228  0.0389  0.1346  0.3835
  119OSM    H8F12567   2.314   4.131   7.182 -0.0866  2.3097 -0.1269
  119OSM    H8G12568   2.425   4.247   7.271 -0.0652  2.0020 -3.5506
  119OSM    C9F12569   2.429   4.046   7.344 -0.4924 -0.0816 -0.4198
  119OSM    H9F12570   2.520   3.984   7.337 -0.4844 -0.2561  0.8639
  119OSM   C10F12571   2.332   4.007   7.433 -0.7326 -0.2110  0.0765
  119OSM   H10F12572   2.361   3.937   7.513 -0.5190  0.2265  0.3880
  119OSM   C11F12573   2.196   4.067   7.438  0.5409  0.3460 -0.0512
  119OSM   H11F12574   2.168   4.124   7.347 -0.5538 -0.2289 -0.1010
  119OSM   H11G12575   2.195   4.129   7.530  1.2593 -0.9099  0.8386
  119OSM   C12F12576   2.089   3.955   7.435 -0.1006 -0.5778 -0.1088
  119OSM   H12F12577   2.106   3.896   7.527  0.8877  0.0948  0.1601
  119OSM   H12G12578   2.092   3.878   7.354 -0.1864 -1.9836  1.1829
  119OSM   C13F12579   1.942   4.007   7.440  0.1824 -0.3496 -0.8179
  119OSM   H13F12580   1.921   4.062   7.346  2.0890 -0.2150 -1.2058
  119OSM   H13G12581   1.935   4.082   7.521 -0.6683  1.4978 -2.5123
  119OSM   C14F12582   1.829   3.901   7.452 -0.0674 -0.3642  0.1651
  119OSM   H14F12583   1.853   3.818   7.383 -0.4697 -1.2666  1.0908
  119OSM   H14G12584   1.726   3.939   7.433  0.5521  1.1503 -0.2916
  119OSM   C15F12585   1.811   3.853   7.594  0.1809 -0.1734  0.3834
  119OSM   H15F12586   1.905   3.826   7.647 -0.7619  0.2578  2.3420
  119OSM   H15G12587   1.749   3.760   7.600 -1.1797  0.7585  1.2976
  119OSM   C16F12588   1.740   3.955   7.688 -0.5619 -0.0752  0.2443
  119OSM   H16F12589   1.630   3.942   7.681 -0.5684  0.4677 -0.9099
  119OSM   H16G12590   1.772   4.057   7.656  1.3577 -0.7429 -0.1070
  119OSM   C17F12591   1.765   3.946   7.843 -0.3556  0.1474  0.1929
  119OSM   H17F12592   1.870   3.917   7.864 -1.2679 -3.7411  0.0778
  119OSM   H17G12593   1.720   3.851   7.880 -0.2649  0.2009  0.4402
  119OSM   C18F12594   1.716   4.062   7.925  0.2217 -0.4410  0.4833
  119OSM   H18F12595   1.695   4.036   8.031  4.0757 -0.4125  1.4128
  119OSM   H18G12596   1.624   4.109   7.885  0.4600  1.6785  2.2113
  119OSM   H18H12597   1.781   4.152   7.917 -1.1868  0.6945  1.2971
  120OSM      N12598   6.793   1.947   6.437  0.3839 -0.0153  0.7244
  120OSM    C1512599   6.785   1.933   6.290  0.4469  0.0230  0.2715
  120OSM   H15A12600   6.704   1.981   6.237  1.7271  0.3715 -1.4686
  120OSM   H15B12601   6.782   1.827   6.269 -2.3021 -0.2279  1.5179
  120OSM   H15C12602   6.876   1.974   6.251 -0.4431 -0.2380 -2.2885
  120OSM    C1412603   6.803   2.092   6.469  0.0658 -0.0344  0.6438
  120OSM   H14A12604   6.839   2.104   6.570  1.9218 -1.9862  0.2793
  120OSM   H14B12605   6.708   2.138   6.447 -1.2935 -2.3503  1.3146
  120OSM   H14C12606   6.872   2.144   6.403 -2.9302 -0.2561 -3.0545
  120OSM    C1312607   6.669   1.893   6.499  0.8146 -0.3945 -0.1780
  120OSM   H13A12608   6.653   1.788   6.480  2.2618 -0.7579  0.4048
  120OSM   H13B12609   6.592   1.947   6.447  0.1281 -1.0920  0.0936
  120OSM   H13C12610   6.665   1.909   6.606  1.2444 -1.6948  0.0526
  120OSM    C1212611   6.918   1.864   6.481  1.3349  0.5962  0.4789
  120OSM   H12A12612   6.897   1.759   6.471 -2.2642  1.1291  1.0505
  120OSM   H12B12613   6.939   1.885   6.585 -0.1137  0.8075  0.7504
  120OSM    C1112614   7.055   1.906   6.411 -0.1531  0.1388 -0.2233
  120OSM   H11A12615   7.032   1.924   6.304 -0.5643  0.6458 -0.0552
  120OSM   H11B12616   7.110   1.813   6.437 -2.4515 -0.9025  1.2615
  120OSM      P12617   7.221   2.103   6.407 -0.0653  0.0396  0.1726
  120OSM    O1312618   7.345   2.023   6.425  0.5757 -0.1143 -0.3140
  120OSM    O1412619   7.185   2.156   6.267 -0.9881 -0.1569 -0.6203
  120OSM    O1112620   7.237   2.222   6.499  0.4862  0.0497  0.2686
  120OSM    O1212621   7.099   2.029   6.473 -0.2503  0.1342 -0.5294
  120OSM    C1S12622   7.153   2.284   6.587  0.1529  0.1703 -0.1701
  120OSM    H1S12623   7.047   2.253   6.572 -0.5114  0.0191  3.7627
  120OSM    H1T12624   7.150   2.393   6.564 -0.5500  0.3524  0.7401
  120OSM     NF12625   7.095   2.278   6.834 -0.2781  0.3696 -0.2513
  120OSM    HNF12626   7.108   2.367   6.878 -4.8102 -0.3417  3.3322
  120OSM    C2S12627   7.198   2.249   6.733  0.0316 -0.8630 -0.2666
  120OSM    H2S12628   7.213   2.139   6.731  0.9351 -0.7354 -1.3652
  120OSM    C3S12629   7.339   2.302   6.756 -0.1479  0.3758  0.3532
  120OSM    H3S12630   7.337   2.413   6.754  0.6554  0.3929 -1.3146
  120OSM     O312631   7.432   2.265   6.654  0.1631 -0.0463  0.1358
  120OSM    HO312632   7.372   2.215   6.599  0.6865  1.0702 -1.5304
  120OSM    C4S12633   7.383   2.258   6.891  0.9844 -0.4995 -0.2948
  120OSM    H4S12634   7.333   2.320   6.968  1.9728 -1.0244  0.8065
  120OSM    C5S12635   7.460   2.159   6.927 -0.0528 -0.2771 -0.1585
  120OSM    H5S12636   7.516   2.103   6.851  1.6792  0.6639  0.3725
  120OSM    C6S12637   7.503   2.123   7.074  0.0838 -0.0501 -0.0081
  120OSM    H6S12638   7.612   2.132   7.089 -0.0676  0.1519  1.0665
  120OSM    H6T12639   7.465   2.020   7.090 -2.5470  0.9787  1.0660
  120OSM    C7S12640   7.444   2.205   7.185  0.0862  0.2166 -0.2503
  120OSM    H7S12641   7.335   2.180   7.190 -0.0225  0.6369 -0.5064
  120OSM    H7T12642   7.438   2.312   7.157 -0.1816  0.5283  0.9502
  120OSM    C8S12643   7.513   2.181   7.325  0.4296  0.4581  0.2133
  120OSM    H8S12644   7.472   2.255   7.398 -1.2365 -0.3459  0.1487
  120OSM    H8T12645   7.621   2.205   7.321  0.1538  1.7287  0.0475
  120OSM    C9S12646   7.493   2.035   7.371 -0.0656  0.6445 -0.0175
  120OSM    H9S12647   7.551   1.982   7.293 -1.0086  0.5965 -0.7000
  120OSM    H9T12648   7.389   1.996   7.367 -0.0840  0.3998  1.7792
  120OSM   C10S12649   7.545   2.008   7.515  1.0495 -0.2357  0.4726
  120OSM   H10S12650   7.463   2.028   7.588  0.4529  0.1386 -0.2922
  120OSM   H10T12651   7.630   2.076   7.539  2.7275 -1.5135 -1.5638
  120OSM   C11S12652   7.603   1.870   7.539  0.0990  0.3449  0.1384
  120OSM   H11S12653   7.691   1.868   7.471 -0.5657  1.4691 -0.7858
  120OSM   H11T12654   7.529   1.788   7.523  3.5531 -3.0760  0.0854
  120OSM   C12S12655   7.658   1.851   7.688 -0.4352  0.2686  0.3154
  120OSM   H12S12656   7.759   1.896   7.695 -0.9335  1.2656  1.7593
  120OSM   H12T12657   7.674   1.741   7.691 -0.4398  0.2492 -0.2566
  120OSM   C13S12658   7.576   1.895   7.810  0.0672 -0.6297 -0.0266
  120OSM   H13S12659   7.475   1.853   7.788  0.3020 -2.2436  1.7841
  120OSM   H13T12660   7.566   2.005   7.821 -2.6490 -0.8750  0.7670
  120OSM   C14S12661   7.626   1.825   7.936 -0.0373 -0.6016 -0.6839
  120OSM   H14S12662   7.733   1.852   7.949 -0.8744  4.0358 -1.8205
  120OSM   H14T12663   7.611   1.716   7.923 -2.4426 -0.5977  1.1961
  120OSM   C15S12664   7.543   1.865   8.056 -0.0560 -0.1452  0.5688
  120OSM   H15S12665   7.434   1.870   8.036  0.0869  0.7438 -0.0547
  120OSM   H15T12666   7.566   1.971   8.082 -1.0443  0.2837 -0.2430
  120OSM   C16S12667   7.551   1.775   8.184 -0.1341  0.0500 -0.1418
  120OSM   H16S12668   7.654   1.734   8.192 -0.1766 -0.1812 -0.6952
  120OSM   H16T12669   7.491   1.689   8.147 -0.8681  1.5802 -2.8116
  120OSM   C17S12670   7.496   1.823   8.317 -0.1746 -0.5659  0.1484
  120OSM   H17S12671   7.561   1.907   8.353  0.5039  0.7056 -3.6251
  120OSM   H17T12672   7.496   1.747   8.398 -0.0896 -1.3258 -0.5534
  120OSM   C18S12673   7.357   1.877   8.311  0.4919 -0.7175 -0.2103
  120OSM   H18S12674   7.283   1.808   8.263 -2.0750  2.0713 -0.5672
  120OSM   H18T12675   7.345   1.981   8.275 -1.6393 -0.5252  0.8773
  120OSM   H18U12676   7.316   1.895   8.413  1.4678 -2.0969  0.4551
  120OSM    C1F12677   6.976   2.215   6.839  0.0985  0.7940 -0.5071
  120OSM     OF12678   6.958   2.108   6.782  0.1821 -0.4498 -0.0049
  120OSM    C2F12679   6.868   2.284   6.919 -0.5651  0.3340  0.5377
  120OSM    H2F12680   6.771   2.296   6.866 -0.0837 -1.0450 -0.7477
  120OSM    H2G12681   6.900   2.383   6.956 -1.8128  0.3657  1.6110
  120OSM    C3F12682   6.825   2.202   7.040 -0.1523  0.1778 -0.6214
  120OSM    H3F12683   6.796   2.102   7.003  0.2077  0.0242 -0.4949
  120OSM    H3G12684   6.739   2.250   7.090  2.9839  2.6262  3.0742
  120OSM    C4F12685   6.939   2.190   7.145  0.1860 -0.0295 -0.6717
  120OSM    H4F12686   7.041   2.164   7.109  0.6313 -0.9106  1.1215
  120OSM    H4G12687   6.907   2.110   7.215 -0.7636  0.1991 -0.8273
  120OSM    C5F12688   6.959   2.320   7.216 -0.5415  0.0824 -0.4979
  120OSM    H5F12689   6.878   2.340   7.288  0.7873 -0.1573  1.1344
  120OSM    H5G12690   6.987   2.407   7.153  0.7508 -0.5117 -0.7878
  120OSM    C6F12691   7.068   2.299   7.328 -0.0091  0.3172  0.6078
  120OSM    H6F12692   7.165   2.298   7.275 -0.1845  0.5278  0.2795
  120OSM    H6G12693   7.056   2.198   7.373  0.6960  0.8145  1.9670
  120OSM    C7F12694   7.078   2.396   7.444  0.3711 -0.5573  0.0851
  120OSM    H7F12695   6.980   2.408   7.496 -0.9507 -0.7885 -2.2340
  120OSM    H7G12696   7.088   2.497   7.399 -0.5683  0.2664  1.6371
  120OSM    C8F12697   7.186   2.372   7.556  0.0741  0.0242  0.7932
  120OSM    H8F12698   7.177   2.450   7.635  0.5426 -0.7638  1.6464
  120OSM    H8G12699   7.284   2.395   7.509 -0.7970  2.1234 -0.1430
  120OSM    C9F12700   7.187   2.234   7.609  0.2677 -0.0796  0.7100
  120OSM    H9F12701   7.165   2.157   7.534  0.5794 -1.4382  1.9655
  120OSM   C10F12702   7.200   2.195   7.737 -1.3128  0.0209  0.1525
  120OSM   H10F12703   7.196   2.088   7.760 -0.4620  0.1011  0.7243
  120OSM   C11F12704   7.227   2.290   7.854  0.1663  0.0694 -0.4137
  120OSM   H11F12705   7.140   2.359   7.863  0.9844  1.0740  0.1066
  120OSM   H11G12706   7.309   2.364   7.840 -1.5446  2.4518  1.3543
  120OSM   C12F12707   7.237   2.223   8.000 -0.1438  0.0064  0.2921
  120OSM   H12F12708   7.285   2.273   8.086  0.3662  1.7761 -0.9533
  120OSM   H12G12709   7.301   2.132   7.996 -0.6539 -0.3963  1.2707
  120OSM   C13F12710   7.098   2.192   8.045  0.5171 -0.1916  0.8774
  120OSM   H13F12711   7.034   2.133   7.975  1.2046  0.4615 -0.3433
  120OSM   H13G12712   7.041   2.287   8.048 -2.5661 -1.9006  3.1005
  120OSM   C14F12713   7.082   2.149   8.186 -0.3688  0.3103 -0.8460
  120OSM   H14F12714   7.115   2.043   8.198 -0.6664 -0.0893 -3.0623
  120OSM   H14G12715   6.974   2.163   8.207  0.1483  3.3615  0.1315
  120OSM   C15F12716   7.137   2.242   8.295 -0.3410 -0.3986  0.8793
  120OSM   H15F12717   7.121   2.351   8.284 -1.4880 -0.6228  0.1880
  120OSM   H15G12718   7.244   2.214   8.293 -0.1935  0.1754  0.4291
  120OSM   C16F12719   7.073   2.222   8.426 -0.9329  0.1215 -0.7693
  120OSM   H16F12720   6.967   2.254   8.420 -0.9216  1.1253  2.4540
  120OSM   H16G12721   7.105   2.307   8.489 -1.9349  0.6559 -0.9682
  120OSM   C17F12722   7.084   2.084   8.492  0.0565  0.4421 -0.1071
  120OSM   H17F12723   7.192   2.072   8.513  0.9083  1.9436 -3.1534
  120OSM   H17G12724   7.047   1.998   8.433 -0.5311  0.1631  0.6477
  120OSM   C18F12725   7.012   2.070   8.626 -0.0119 -0.1723 -0.4952
  120OSM   H18F12726   7.002   1.966   8.662  1.4952 -0.8833 -1.9950
  120OSM   H18G12727   6.906   2.102   8.608 -0.0334 -0.2183 -0.4478
  120OSM   H18H12728   7.052   2.136   8.705 -0.6953  1.0012 -1.0992
  121OSM      N12729   2.697   3.141   5.925  0.2883  0.8610  0.3903
  121OSM    C1512730   2.688   3.034   5.816 -0.0167  0.6157 -0.3447
  121OSM   H15A12731   2.586   2.998   5.826 -0.4227  1.3840 -1.4659
  121OSM   H15B12732   2.755   2.950   5.826  1.5339  1.7760 -0.7450
  121OSM   H15C12733   2.690   3.069   5.714 -0.6134 -0.8693 -0.8972
  121OSM    C1412734   2.660   3.078   6.053 -0.6209  0.6583 -0.2973
  121OSM   H14A12735   2.648   3.157   6.126  2.1894  1.0235 -0.1061
  121OSM   H14B12736   2.733   3.008   6.092 -1.6611  0.6900  1.8017
  121OSM   H14C12737   2.567   3.025   6.060 -1.1080  1.2980 -1.5618
  121OSM    C1312738   2.835   3.196   5.943 -0.2681  0.5965 -0.4160
  121OSM   H13A12739   2.842   3.257   6.032  1.2722 -1.0362  0.6499
  121OSM   H13B12740   2.855   3.245   5.849 -0.3276  1.1918 -0.1200
  121OSM   H13C12741   2.908   3.121   5.971  1.5084  1.0237 -3.4197
  121OSM    C1212742   2.603   3.251   5.895  0.0582  0.0419 -0.1082
  121OSM   H12A12743   2.503   3.220   5.922  0.8933  0.6625  4.4474
  121OSM   H12B12744   2.609   3.286   5.793 -0.4415 -1.3269 -0.6253
  121OSM    C1112745   2.629   3.383   5.982 -0.5912 -0.1611 -0.0365
  121OSM   H11A12746   2.586   3.462   5.918  0.2833 -0.5697 -1.1450
  121OSM   H11B12747   2.736   3.409   5.987  0.1152 -2.8535  0.5604
  121OSM      P12748   2.410   3.389   6.109 -0.1657 -0.5432  0.3794
  121OSM    O1312749   2.372   3.534   6.101  0.1019 -0.0850  0.3737
  121OSM    O1412750   2.343   3.301   6.005 -0.5914  0.0856 -0.4030
  121OSM    O1112751   2.376   3.340   6.250 -0.2385 -0.0332 -0.3276
  121OSM    O1212752   2.568   3.366   6.111 -0.4323 -0.4203  0.2184
  121OSM    C1S12753   2.445   3.239   6.321  0.3132  0.0337  0.6685
  121OSM    H1S12754   2.524   3.193   6.258  0.5788 -2.3225  2.5874
  121OSM    H1T12755   2.388   3.153   6.362  2.4286 -0.7599  2.0938
  121OSM     NF12756   2.621   3.203   6.485  0.4124 -0.0650  0.3133
  121OSM    HNF12757   2.616   3.182   6.583 -0.1010  0.6906  0.4533
  121OSM    C2S12758   2.526   3.303   6.434 -0.0090 -0.2639 -0.0139
  121OSM    H2S12759   2.582   3.390   6.393 -2.1173  0.8962 -0.6044
  121OSM    C3S12760   2.419   3.356   6.543  0.6404 -0.2328 -0.0138
  121OSM    H3S12761   2.350   3.272   6.568 -2.5190  2.2400  0.2732
  121OSM     O312762   2.327   3.463   6.503  0.4198  0.1104  0.0923
  121OSM    HO312763   2.335   3.473   6.408  1.2338 -1.2572 -0.0098
  121OSM    C4S12764   2.491   3.402   6.669 -0.5568  0.3445  0.3162
  121OSM    H4S12765   2.505   3.322   6.743 -0.1537  1.6126  1.6516
  121OSM    C5S12766   2.537   3.528   6.693 -0.6758  0.2515  0.6607
  121OSM    H5S12767   2.505   3.603   6.619 -0.0407 -2.7856 -3.0345
  121OSM    C6S12768   2.597   3.577   6.818  0.1571 -0.3127 -0.0432
  121OSM    H6S12769   2.687   3.636   6.790 -0.2569  0.9814  1.2403
  121OSM    H6T12770   2.631   3.494   6.884  0.5528  0.3758  0.6385
  121OSM    C7S12771   2.510   3.674   6.914 -0.0117 -0.1764  0.8153
  121OSM    H7S12772   2.424   3.614   6.948 -0.1207 -1.2061 -1.1321
  121OSM    H7T12773   2.465   3.755   6.852 -1.1561  0.4027  2.3470
  121OSM    C8S12774   2.590   3.727   7.033 -0.1453  0.7154 -0.1942
  121OSM    H8S12775   2.630   3.827   7.003 -1.3121  1.3043  0.1788
  121OSM    H8T12776   2.675   3.656   7.044 -1.3101 -0.6273  0.4337
  121OSM    C9S12777   2.503   3.737   7.157 -0.7011 -0.1774  0.2213
  121OSM    H9S12778   2.403   3.783   7.135  1.0054  2.7965 -2.1772
  121OSM    H9T12779   2.557   3.813   7.217 -2.6096  1.7414 -0.3517
  121OSM   C10S12780   2.498   3.610   7.248  0.2946 -0.3460 -0.0462
  121OSM   H10S12781   2.583   3.542   7.226 -1.4078 -2.1428 -1.5190
  121OSM   H10T12782   2.409   3.551   7.216  0.3678 -0.4774 -0.0037
  121OSM   C11S12783   2.476   3.649   7.390  0.2539  0.1377 -0.2847
  121OSM   H11S12784   2.376   3.687   7.417  1.0414 -0.2448  3.8087
  121OSM   H11T12785   2.560   3.717   7.416  0.4648  1.2087 -3.3531
  121OSM   C12S12786   2.488   3.536   7.494  0.0465  0.4942  0.6893
  121OSM   H12S12787   2.593   3.502   7.485  0.3374  1.5968 -0.3382
  121OSM   H12T12788   2.427   3.458   7.442 -0.9876  0.9732  1.1537
  121OSM   C13S12789   2.449   3.550   7.638 -0.2037  0.8233 -0.2770
  121OSM   H13S12790   2.350   3.598   7.653 -0.7817 -0.5424  0.5586
  121OSM   H13T12791   2.534   3.610   7.677 -0.2735  0.0127  1.2032
  121OSM   C14S12792   2.454   3.428   7.735 -0.6099 -0.4917  0.8125
  121OSM   H14S12793   2.522   3.357   7.682  0.9128  2.2186 -1.1208
  121OSM   H14T12794   2.353   3.382   7.724 -1.1890  0.9486 -0.1136
  121OSM   C15S12795   2.488   3.444   7.882 -0.2892  0.9409 -1.2392
  121OSM   H15S12796   2.406   3.494   7.938  0.8237 -1.0217  2.4997
  121OSM   H15T12797   2.581   3.503   7.893  1.3228 -1.5839 -0.5649
  121OSM   C16S12798   2.514   3.314   7.953 -0.0136 -0.6808  1.2264
  121OSM   H16S12799   2.619   3.283   7.932 -0.2466 -1.7030  1.5198
  121OSM   H16T12800   2.443   3.236   7.919 -0.8479  0.4835  0.1966
  121OSM   C17S12801   2.484   3.322   8.107  0.0089 -0.3215  0.7162
  121OSM   H17S12802   2.376   3.349   8.098 -0.0388 -1.0195 -1.4488
  121OSM   H17T12803   2.546   3.402   8.153  0.2309 -1.4562  2.4813
  121OSM   C18S12804   2.512   3.180   8.171 -0.1942  0.0131 -0.0969
  121OSM   H18S12805   2.511   3.195   8.282  0.0817  0.7216 -0.1835
  121OSM   H18T12806   2.611   3.154   8.128 -1.5471 -0.9442 -2.8431
  121OSM   H18U12807   2.431   3.112   8.139 -2.3907  1.2246  2.4699
  121OSM    C1F12808   2.734   3.167   6.420  0.2590  0.1715 -1.0667
  121OSM     OF12809   2.758   3.208   6.312  0.5098 -0.1920 -0.1552
  121OSM    C2F12810   2.820   3.062   6.489  0.0856 -0.5066  0.1221
  121OSM    H2F12811   2.747   2.991   6.531  0.0821 -0.5152  0.1014
  121OSM    H2G12812   2.867   3.124   6.570 -0.2376 -0.7332  0.4850
  121OSM    C3F12813   2.919   3.009   6.388  0.3874 -0.6700 -0.4570
  121OSM    H3F12814   2.989   3.085   6.347 -0.2576 -0.5518 -1.3778
  121OSM    H3G12815   2.860   2.988   6.296 -1.4304  1.1606  0.2093
  121OSM    C4F12816   2.992   2.877   6.427  0.0859  0.2042 -0.6677
  121OSM    H4F12817   3.046   2.836   6.339  4.3360  1.6751  0.9778
  121OSM    H4G12818   2.911   2.812   6.465  1.2612  0.1330  1.9401
  121OSM    C5F12819   3.104   2.914   6.533  0.4149  0.3934  0.4686
  121OSM    H5F12820   3.060   2.951   6.628  0.0866 -0.3508  0.6111
  121OSM    H5G12821   3.159   2.995   6.481  1.3084 -0.7481 -0.4407
  121OSM    C6F12822   3.195   2.793   6.569 -0.2260  0.6611  0.7374
  121OSM    H6F12823   3.189   2.711   6.494  1.7853  1.5871 -0.5088
  121OSM    H6G12824   3.154   2.764   6.668  1.2730  0.7475  1.3997
  121OSM    C7F12825   3.343   2.832   6.588  0.8450 -0.3185  0.1165
  121OSM    H7F12826   3.369   2.884   6.493 -1.4706 -1.8933 -1.4831
  121OSM    H7G12827   3.406   2.742   6.605  0.9984 -0.5945 -1.6774
  121OSM    C8F12828   3.368   2.925   6.713  0.2294 -0.2605  0.1287
  121OSM    H8F12829   3.330   2.864   6.797 -0.1808 -1.2063 -0.7181
  121OSM    H8G12830   3.301   3.013   6.701  0.0958 -0.4139 -0.2644
  121OSM    C9F12831   3.507   2.969   6.741 -0.3719 -0.1253 -0.6975
  121OSM    H9F12832   3.581   2.917   6.678  0.8132 -0.4876  0.9417
  121OSM   C10F12833   3.550   3.061   6.820  0.1297 -0.7463  0.5487
  121OSM   H10F12834   3.653   3.098   6.825 -0.4061  1.2608 -1.4853
  121OSM   C11F12835   3.464   3.144   6.915  0.2317 -0.6659  0.0541
  121OSM   H11F12836   3.363   3.098   6.918  0.2532 -0.6612  1.7017
  121OSM   H11G12837   3.452   3.250   6.883  1.1068 -0.6517 -0.2683
  121OSM   C12F12838   3.526   3.161   7.054 -0.4764 -0.1627 -0.5480
  121OSM   H12F12839   3.625   3.211   7.049 -1.7253  2.3794 -1.3506
  121OSM   H12G12840   3.541   3.062   7.102  0.1727  0.8562  1.4796
  121OSM   C13F12841   3.449   3.239   7.169 -0.7865 -0.8765  0.0371
  121OSM   H13F12842   3.383   3.164   7.216  0.7102 -0.2833  3.3557
  121OSM   H13G12843   3.391   3.323   7.125 -0.7968 -0.5328  0.6959
  121OSM   C14F12844   3.544   3.300   7.279 -0.1063  0.2734 -0.3723
  121OSM   H14F12845   3.610   3.363   7.214 -0.4418 -1.1400 -2.1819
  121OSM   H14G12846   3.600   3.218   7.328  1.3357  1.5848  0.2585
  121OSM   C15F12847   3.460   3.388   7.383  0.0201  0.5402  0.2054
  121OSM   H15F12848   3.380   3.328   7.431 -1.7037  2.0627 -0.6763
  121OSM   H15G12849   3.408   3.472   7.332 -1.5581  0.4711  1.6301
  121OSM   C16F12850   3.551   3.460   7.476 -0.3680  0.4639 -0.2159
  121OSM   H16F12851   3.630   3.518   7.423 -0.3807  1.0790  0.4173
  121OSM   H16G12852   3.604   3.388   7.542 -0.9244  0.3343  0.0947
  121OSM   C17F12853   3.481   3.564   7.571 -0.1658  0.2523 -0.6590
  121OSM   H17F12854   3.421   3.513   7.649 -0.1415  1.6571  0.3299
  121OSM   H17G12855   3.430   3.638   7.505 -1.3247 -0.5750 -0.7248
  121OSM   C18F12856   3.582   3.643   7.661 -0.0796  0.2501  0.3486
  121OSM   H18F12857   3.636   3.566   7.721  1.4321  0.5604 -0.5639
  121OSM   H18G12858   3.526   3.708   7.731 -0.2988 -1.3652  1.7457
  121OSM   H18H12859   3.642   3.719   7.607 -0.8305 -0.0883 -1.0210
  122OSM      N12860   2.412   0.783   6.253 -0.0363 -0.1740  0.3951
  122OSM    C1512861   2.372   0.643   6.237 -0.4543  0.4682 -0.2487
  122OSM   H15A12862   2.312   0.612   6.320 -0.4228 -0.8968 -0.7196
  122OSM   H15B12863   2.459   0.579   6.241 -1.4908 -0.9739 -0.3723
  122OSM   H15C12864   2.330   0.624   6.139 -2.0213 -0.9495  0.6603
  122OSM    C1412865   2.477   0.786   6.388  0.1630 -0.0327  0.1670
  122OSM   H14A12866   2.558   0.715   6.391  0.2045  0.0441  2.8617
  122OSM   H14B12867   2.410   0.751   6.464 -1.8469 -0.7755 -1.8337
  122OSM   H14C12868   2.518   0.884   6.408 -1.4237  0.4708  1.1197
  122OSM    C1312869   2.498   0.808   6.133 -0.7769  0.0157  0.0810
  122OSM   H13A12870   2.540   0.907   6.147 -1.5012  0.4474 -0.7214
  122OSM   H13B12871   2.441   0.810   6.042  1.7652  2.5857 -1.6122
  122OSM   H13C12872   2.571   0.728   6.131 -0.9546 -0.1237 -1.8672
  122OSM    C1212873   2.287   0.866   6.252 -0.7119 -0.2726  0.8746
  122OSM   H12A12874   2.229   0.852   6.342 -0.2998 -0.0950  1.1716
  122OSM   H12B12875   2.215   0.839   6.176 -0.4880  0.8477  0.2599
  122OSM    C1112876   2.309   1.020   6.225  0.6365 -0.7321  0.1020
  122OSM   H11A12877   2.336   1.044   6.120  2.6553 -0.0504  0.7304
  122OSM   H11B12878   2.394   1.055   6.288 -0.5533  1.0821  0.8011
  122OSM      P12879   2.061   1.096   6.184 -0.2565  0.2747 -0.0563
  122OSM    O1312880   2.072   1.213   6.098  0.1858  0.4283 -0.0899
  122OSM    O1412881   2.035   0.964   6.125  0.1329  0.4182  0.4697
  122OSM    O1112882   1.940   1.115   6.290 -0.5109  0.0859 -0.1734
  122OSM    O1212883   2.187   1.090   6.270 -0.2582 -0.4023  0.1413
  122OSM    C1S12884   1.924   1.049   6.416 -0.6224  0.3838  0.6684
  122OSM    H1S12885   2.022   1.013   6.455 -0.5519  1.5335  1.5887
  122OSM    H1T12886   1.851   0.965   6.404 -1.5501  1.3229 -0.5269
  122OSM     NF12887   1.868   1.070   6.655 -0.0595  0.1080 -0.2379
  122OSM    HNF12888   1.795   1.006   6.676  2.0476 -1.9512  1.4659
  122OSM    C2S12889   1.869   1.142   6.531  0.0991  0.5405  0.0709
  122OSM    H2S12890   1.933   1.232   6.541 -0.1447  0.8017 -0.6330
  122OSM    C3S12891   1.728   1.201   6.489 -0.0778  0.0027 -0.3787
  122OSM    H3S12892   1.661   1.112   6.493  1.0379 -0.9497 -1.8333
  122OSM     O312893   1.716   1.243   6.353  0.2282 -0.6157  0.5013
  122OSM    HO312894   1.797   1.205   6.318 -0.0516 -0.7716  0.0140
  122OSM    C4S12895   1.677   1.301   6.593  0.0638  0.1657  0.0251
  122OSM    H4S12896   1.636   1.258   6.686  0.3252  1.9229  0.9924
  122OSM    C5S12897   1.644   1.430   6.578 -1.2122 -0.0521  0.2406
  122OSM    H5S12898   1.659   1.477   6.479 -0.3613 -2.0750 -0.6401
  122OSM    C6S12899   1.597   1.510   6.695  0.0737 -0.1405 -0.7925
  122OSM    H6S12900   1.492   1.546   6.697  0.2239  0.3338 -1.1486
  122OSM    H6T12901   1.656   1.604   6.690 -0.9675  0.4746 -2.2642
  122OSM    C7S12902   1.642   1.453   6.834  0.0060 -0.3798  0.1949
  122OSM    H7S12903   1.751   1.437   6.850  0.2259  0.8152 -0.0035
  122OSM    H7T12904   1.592   1.355   6.850  1.7877 -1.7863 -2.1944
  122OSM    C8S12905   1.610   1.547   6.951  0.1230 -0.0005 -0.6062
  122OSM    H8S12906   1.500   1.567   6.953 -0.6194 -3.2647 -2.3791
  122OSM    H8T12907   1.661   1.642   6.923  0.6487 -0.0247  0.2439
  122OSM    C9S12908   1.664   1.512   7.088 -0.0725  0.2594 -0.7785
  122OSM    H9S12909   1.670   1.613   7.135  1.0504  0.6635 -1.7117
  122OSM    H9T12910   1.769   1.477   7.080 -0.0609  0.2121 -0.4135
  122OSM   C10S12911   1.576   1.423   7.167 -0.5966  0.4955 -0.8787
  122OSM   H10S12912   1.596   1.316   7.144  0.4253  0.0165  1.8132
  122OSM   H10T12913   1.467   1.439   7.153 -1.0578 -2.0082 -0.4986
  122OSM   C11S12914   1.618   1.435   7.320  0.2186 -0.4686 -0.4823
  122OSM   H11S12915   1.724   1.420   7.351 -0.3426 -0.9411  1.3335
  122OSM   H11T12916   1.551   1.370   7.381 -0.2173 -0.1735 -0.6440
  122OSM   C12S12917   1.594   1.578   7.382  0.7181  0.0099 -0.0079
  122OSM   H12S12918   1.501   1.618   7.335 -0.9628  0.9696  3.7567
  122OSM   H12T12919   1.685   1.638   7.360  1.5803 -1.0186  0.6480
  122OSM   C13S12920   1.554   1.563   7.530  0.4089 -0.2308  0.4406
  122OSM   H13S12921   1.460   1.508   7.550  0.2102 -0.1088 -0.1433
  122OSM   H13T12922   1.541   1.666   7.571  1.2473  0.1188 -0.1296
  122OSM   C14S12923   1.676   1.507   7.615  0.1955 -0.2139  0.4846
  122OSM   H14S12924   1.765   1.569   7.593 -0.4376 -0.2359 -2.5824
  122OSM   H14T12925   1.703   1.402   7.593 -0.0790 -0.5080  1.4683
  122OSM   C15S12926   1.637   1.503   7.767 -0.3045 -0.1439  0.3210
  122OSM   H15S12927   1.598   1.400   7.787 -0.0055 -0.7669 -2.0827
  122OSM   H15T12928   1.561   1.583   7.784  0.5459  0.4387  1.5634
  122OSM   C16S12929   1.758   1.530   7.859  0.2787 -0.0530  0.8996
  122OSM   H16S12930   1.781   1.638   7.848 -1.4121  0.1309 -1.3925
  122OSM   H16T12931   1.844   1.464   7.836  0.8716  0.2325  2.1879
  122OSM   C17S12932   1.721   1.507   8.005  0.4360  0.2248  0.8683
  122OSM   H17S12933   1.808   1.482   8.069 -0.6722 -0.7920  2.0172
  122OSM   H17T12934   1.646   1.427   8.018 -0.2163  1.0065  2.1200
  122OSM   C18S12935   1.662   1.636   8.056  0.7190  0.5246 -0.2768
  122OSM   H18S12936   1.735   1.715   8.082  0.2733  1.3524 -1.4882
  122OSM   H18T12937   1.608   1.608   8.149 -1.2358 -0.4027 -1.6291
  122OSM   H18U12938   1.601   1.683   7.977  1.5615 -1.9032 -2.5006
  122OSM    C1F12939   1.976   1.041   6.725 -0.5626  0.6009 -0.6183
  122OSM     OF12940   2.087   1.093   6.697 -0.6410  0.3002  0.2767
  122OSM    C2F12941   1.957   0.964   6.855  0.2973 -0.5698  0.4632
  122OSM    H2F12942   1.850   0.964   6.885 -0.2474 -0.0572 -1.3697
  122OSM    H2G12943   2.014   1.031   6.923 -0.9817  1.1743 -0.1124
  122OSM    C3F12944   2.017   0.823   6.850  0.4850 -0.3125  0.5422
  122OSM    H3F12945   2.127   0.821   6.832  0.2726 -1.4444 -0.7911
  122OSM    H3G12946   1.980   0.759   6.767  1.0392 -2.9692  2.1885
  122OSM    C4F12947   1.986   0.759   6.978  0.3507  0.8446  0.3955
  122OSM    H4F12948   1.876   0.763   6.993  0.5092  1.1500  1.6173
  122OSM    H4G12949   2.038   0.810   7.062 -0.0016  0.4003  0.8941
  122OSM    C5F12950   2.022   0.605   6.988 -0.0906 -0.2764 -0.0145
  122OSM    H5F12951   2.114   0.586   6.929 -0.6146 -0.2259 -0.8631
  122OSM    H5G12952   1.946   0.553   6.926  1.1330  0.2664 -2.0483
  122OSM    C6F12953   2.016   0.561   7.139 -0.1876  0.9685  0.0097
  122OSM    H6F12954   2.059   0.644   7.200 -1.6376  0.9734  1.0704
  122OSM    H6G12955   2.071   0.467   7.158 -0.3810  0.6718 -0.8775
  122OSM    C7F12956   1.872   0.553   7.186  0.1200 -0.4669  0.5612
  122OSM    H7F12957   1.815   0.484   7.120  1.6626  2.8075 -4.8790
  122OSM    H7G12958   1.829   0.655   7.178  2.4395  0.8873  3.4732
  122OSM    C8F12959   1.873   0.519   7.332  0.4227  0.3032 -0.1617
  122OSM    H8F12960   1.938   0.432   7.355  3.7087  2.1937 -1.6585
  122OSM    H8G12961   1.774   0.485   7.370  1.1614 -1.0227  0.6420
  122OSM    C9F12962   1.907   0.630   7.429 -0.3599 -0.1589 -1.1474
  122OSM    H9F12963   1.953   0.717   7.379  1.2573  0.1104  0.6851
  122OSM   C10F12964   1.878   0.641   7.563  0.3951 -0.4193 -0.0632
  122OSM   H10F12965   1.904   0.731   7.620  0.2555 -0.9158  0.8151
  122OSM   C11F12966   1.813   0.548   7.665  0.4519 -0.4825 -0.1174
  122OSM   H11F12967   1.796   0.447   7.621  0.6456  0.0197 -1.3939
  122OSM   H11G12968   1.712   0.584   7.692  0.4526 -0.9452  0.5189
  122OSM   C12F12969   1.898   0.539   7.793 -0.2572  0.1134  0.4174
  122OSM   H12F12970   2.003   0.539   7.757 -0.7517  0.8645 -1.1022
  122OSM   H12G12971   1.872   0.445   7.847 -1.7816 -0.2956 -0.9527
  122OSM   C13F12972   1.876   0.649   7.892 -0.2289 -0.0644 -0.0941
  122OSM   H13F12973   1.765   0.650   7.895 -0.2683 -2.3464  1.1911
  122OSM   H13G12974   1.907   0.747   7.848  0.1931 -0.3777 -0.5013
  122OSM   C14F12975   1.949   0.626   8.020 -0.6870  0.2823  0.3487
  122OSM   H14F12976   1.947   0.518   8.048  0.6202 -0.0118 -0.6181
  122OSM   H14G12977   1.889   0.686   8.091 -0.1675  1.4289 -0.1662
  122OSM   C15F12978   2.094   0.680   8.026 -0.3325 -0.2846  0.0185
  122OSM   H15F12979   2.095   0.791   8.017  0.5461 -0.4362 -2.3499
  122OSM   H15G12980   2.145   0.655   7.931  0.7043  3.0794 -0.4629
  122OSM   C16F12981   2.178   0.633   8.150  0.2681 -0.4141  0.1461
  122OSM   H16F12982   2.278   0.676   8.130 -0.2270  1.7603  1.9952
  122OSM   H16G12983   2.168   0.523   8.167 -0.7568 -0.1276  1.5471
  122OSM   C17F12984   2.124   0.681   8.296 -0.2568 -0.0285  0.0942
  122OSM   H17F12985   2.191   0.634   8.372 -0.0797 -0.6100 -0.4065
  122OSM   H17G12986   2.026   0.630   8.303 -1.1331  1.3365 -1.5922
  122OSM   C18F12987   2.107   0.829   8.320 -0.6375 -0.3597  0.4536
  122OSM   H18F12988   2.080   0.882   8.226  0.6697 -1.2251 -0.4613
  122OSM   H18G12989   2.190   0.887   8.366 -0.2971 -0.4408 -0.0514
  122OSM   H18H12990   2.030   0.840   8.399 -0.5474 -0.3372  0.5389
  123OSM      N12991   6.108   1.661   6.243 -0.0319 -0.3179  0.1922
  123OSM    C1512992   6.145   1.512   6.247  0.4897 -0.0248 -0.8929
  123OSM   H15A12993   6.056   1.451   6.253  0.0110  0.7458  0.0846
  123OSM   H15B12994   6.217   1.491   6.325  1.6710 -0.9245 -2.1769
  123OSM   H15C12995   6.210   1.493   6.163  1.9814  1.9923 -0.2827
  123OSM    C1412996   6.223   1.750   6.199 -0.0053 -0.0533  0.1132
  123OSM   H14A12997   6.307   1.748   6.267 -0.2055  2.9389  0.5562
  123OSM   H14B12998   6.195   1.854   6.191 -2.7067 -0.7917 -1.0330
  123OSM   H14C12999   6.263   1.718   6.103 -0.6845 -1.9875  0.4316
  123OSM    C1313000   5.993   1.671   6.151 -0.0116  0.4111 -0.4735
  123OSM   H13A13001   5.901   1.625   6.182 -0.1242 -0.9806 -2.6521
  123OSM   H13B13002   6.007   1.619   6.057 -4.8861 -0.8200 -0.7490
  123OSM   H13C13003   5.977   1.775   6.129 -1.2372  0.5659  1.0282
  123OSM    C1213004   6.057   1.704   6.377  0.1210  0.5855 -0.4728
  123OSM   H12A13005   5.974   1.640   6.403  1.6937 -1.0644  0.8041
  123OSM   H12B13006   6.025   1.807   6.387  2.2895  1.1097  2.4675
  123OSM    C1113007   6.154   1.696   6.494 -0.0083 -0.5702  0.3946
  123OSM   H11A13008   6.188   1.591   6.496  0.8222 -0.3353 -0.4463
  123OSM   H11B13009   6.107   1.712   6.594 -2.9359  1.9048 -1.2156
  123OSM      P13010   6.257   1.939   6.517  0.3943 -0.0015  0.0085
  123OSM    O1313011   6.386   1.998   6.477 -0.5652 -0.4075 -0.0008
  123OSM    O1413012   6.137   1.993   6.449  0.0765  0.1878  0.0124
  123OSM    O1113013   6.244   1.938   6.675 -0.3194 -0.1252 -0.6077
  123OSM    O1213014   6.269   1.783   6.487  0.8465 -0.1141 -0.0524
  123OSM    C1S13015   6.325   1.866   6.766  0.0984 -0.1009  0.4514
  123OSM    H1S13016   6.433   1.894   6.759 -0.1078  0.4274 -1.3351
  123OSM    H1T13017   6.328   1.757   6.748  1.7957  0.1440 -1.2187
  123OSM     NF13018   6.360   1.834   7.010  0.2841 -0.1060  0.4393
  123OSM    HNF13019   6.346   1.738   7.033 -1.1732 -0.2914 -1.0005
  123OSM    C2S13020   6.275   1.892   6.905  0.6788  0.9608  0.2549
  123OSM    H2S13021   6.266   2.003   6.911 -1.5600  0.7782  1.1111
  123OSM    C3S13022   6.129   1.827   6.916 -1.2521 -0.1614  0.2520
  123OSM    H3S13023   6.146   1.718   6.901  1.6952 -0.0205  1.7829
  123OSM     O313024   6.037   1.865   6.816 -0.4399  0.2229 -0.3891
  123OSM    HO313025   6.090   1.915   6.753 -0.6909  0.6420 -0.2747
  123OSM    C4S13026   6.079   1.848   7.060  0.0242  0.5429 -0.1413
  123OSM    H4S13027   6.135   1.795   7.139 -0.2974  0.9771  0.3838
  123OSM    C5S13028   5.983   1.922   7.110 -0.1934 -0.2116  0.4222
  123OSM    H5S13029   5.918   1.981   7.044  0.5712 -0.5415 -0.6632
  123OSM    C6S13030   5.942   1.935   7.254 -0.2730 -0.1938  0.1541
  123OSM    H6S13031   5.856   1.872   7.285  1.4417 -1.7969  1.9257
  123OSM    H6T13032   5.913   2.041   7.273 -0.5087 -0.2009 -0.1489
  123OSM    C7S13033   6.054   1.921   7.359 -0.0631  0.2377  0.5755
  123OSM    H7S13034   6.107   1.824   7.355  0.6652  0.6639 -0.6107
  123OSM    H7T13035   5.998   1.921   7.455 -1.5430  0.3669 -0.2718
  123OSM    C8S13036   6.156   2.033   7.348 -0.6660  0.1411  0.5330
  123OSM    H8S13037   6.118   2.135   7.365 -0.9687  0.4531 -1.6546
  123OSM    H8T13038   6.194   2.038   7.243 -0.9234  1.0460  0.4769
  123OSM    C9S13039   6.276   2.011   7.438  0.0746 -0.7142  0.1988
  123OSM    H9S13040   6.361   2.080   7.416  0.3984 -1.2343 -0.2318
  123OSM    H9T13041   6.323   1.912   7.420  0.6074 -0.0454 -2.6533
  123OSM   C10S13042   6.249   2.011   7.592  0.0859 -0.6587 -0.2489
  123OSM   H10S13043   6.152   1.961   7.615 -1.4230  2.0031 -0.3321
  123OSM   H10T13044   6.225   2.117   7.617  2.3919  0.1194 -1.1180
  123OSM   C11S13045   6.365   1.968   7.686  0.7510 -0.7384 -0.1876
  123OSM   H11S13046   6.334   1.995   7.789  0.7878  0.9117 -0.5813
  123OSM   H11T13047   6.449   2.039   7.669  2.7418 -2.7950  0.5469
  123OSM   C12S13048   6.407   1.823   7.679 -0.2137  0.9080  0.2816
  123OSM   H12S13049   6.418   1.784   7.576 -0.6361  0.0880  0.5383
  123OSM   H12T13050   6.329   1.758   7.724 -0.2356 -1.3214 -2.6625
  123OSM   C13S13051   6.539   1.817   7.757 -0.0784 -0.1905  0.1201
  123OSM   H13S13052   6.615   1.861   7.689  2.3575 -3.1097  0.7721
  123OSM   H13T13053   6.565   1.710   7.769 -1.7246 -0.7329 -0.7799
  123OSM   C14S13054   6.553   1.873   7.900 -0.1003 -0.7809 -0.2554
  123OSM   H14S13055   6.485   1.828   7.975 -0.1946  1.3371  1.0095
  123OSM   H14T13056   6.519   1.978   7.906 -1.0045 -1.0390 -0.7141
  123OSM   C15S13057   6.698   1.863   7.938 -0.1311 -1.1684  0.2213
  123OSM   H15S13058   6.758   1.895   7.850  1.4970 -1.9507  1.0030
  123OSM   H15T13059   6.717   1.755   7.952  0.2247 -0.9837  1.2750
  123OSM   C16S13060   6.738   1.922   8.067 -0.0540  0.6040 -0.3519
  123OSM   H16S13061   6.706   2.028   8.064 -0.0471  0.7214  1.8983
  123OSM   H16T13062   6.849   1.915   8.069 -0.1241 -1.2814 -1.4078
  123OSM   C17S13063   6.678   1.847   8.185  0.1844  0.1094 -0.3112
  123OSM   H17S13064   6.689   1.738   8.167  1.2551  0.4789 -2.1234
  123OSM   H17T13065   6.569   1.868   8.180  0.0712 -0.5735 -0.8940
  123OSM   C18S13066   6.729   1.880   8.331  0.1462  0.6534 -0.1430
  123OSM   H18S13067   6.836   1.910   8.335 -0.0548  1.3932  3.2873
  123OSM   H18T13068   6.711   1.807   8.413  0.4077  2.7104  1.8693
  123OSM   H18U13069   6.674   1.969   8.368 -0.0354  0.3233  0.3933
  123OSM    C1F13070   6.473   1.906   7.047 -0.1629  0.3748  0.0905
  123OSM     OF13071   6.509   2.003   6.991 -0.4588 -0.0270  0.7997
  123OSM    C2F13072   6.550   1.842   7.158 -0.1283 -0.2128  0.1990
  123OSM    H2F13073   6.597   1.744   7.138 -0.3019 -0.9454  2.9588
  123OSM    H2G13074   6.474   1.814   7.234 -0.1176  0.0133  0.2945
  123OSM    C3F13075   6.647   1.936   7.229  0.1372  0.7130  0.2692
  123OSM    H3F13076   6.591   2.029   7.254 -0.6464  0.3942 -0.2467
  123OSM    H3G13077   6.740   1.951   7.171  0.0537 -0.4914 -0.2026
  123OSM    C4F13078   6.683   1.871   7.365 -0.3456  0.3983 -0.2400
  123OSM    H4F13079   6.726   1.771   7.343  0.2480  0.5249  0.3201
  123OSM    H4G13080   6.584   1.852   7.411 -0.8595  2.3357 -0.4679
  123OSM    C5F13081   6.772   1.943   7.465  0.3260 -1.0158  0.4259
  123OSM    H5F13082   6.872   1.962   7.421 -0.4162  0.4286 -0.7590
  123OSM    H5G13083   6.782   1.873   7.551 -2.2072 -2.6939 -0.5311
  123OSM    C6F13084   6.725   2.086   7.504 -0.0499  0.0491 -0.0299
  123OSM    H6F13085   6.615   2.094   7.520 -0.0514  0.6644 -0.2934
  123OSM    H6G13086   6.748   2.154   7.420  0.2049 -0.3209 -0.2587
  123OSM    C7F13087   6.805   2.134   7.622 -0.4046  0.5262 -0.2887
  123OSM    H7F13088   6.910   2.146   7.589 -0.2212 -2.8618 -1.3052
  123OSM    H7G13089   6.797   2.068   7.712 -1.7821  2.4014  1.0495
  123OSM    C8F13090   6.753   2.270   7.682 -0.1364  0.0410  0.2912
  123OSM    H8F13091   6.772   2.352   7.609  1.0411 -0.4066  0.0683
  123OSM    H8G13092   6.820   2.298   7.766  0.9142 -0.3207 -0.4089
  123OSM    C9F13093   6.610   2.281   7.724 -0.1906  0.2561 -0.1448
  123OSM    H9F13094   6.527   2.254   7.657  0.2948 -0.4643 -0.4679
  123OSM   C10F13095   6.569   2.322   7.841  0.1659  0.4791 -0.1868
  123OSM   H10F13096   6.461   2.319   7.862  0.4379  0.2185  1.3347
  123OSM   C11F13097   6.649   2.358   7.960 -0.5503  0.0432  0.2117
  123OSM   H11F13098   6.754   2.328   7.939  0.3748  3.9523 -1.7519
  123OSM   H11G13099   6.607   2.292   8.039 -1.2457  0.1393 -0.0724
  123OSM   C12F13100   6.636   2.504   7.984 -0.4014 -1.1930  0.3176
  123OSM   H12F13101   6.530   2.533   7.971  0.3628  0.9450 -1.9509
  123OSM   H12G13102   6.693   2.565   7.910 -2.3589 -0.8830 -0.9857
  123OSM   C13F13103   6.706   2.552   8.114 -0.2989 -0.2368 -0.3115
  123OSM   H13F13104   6.735   2.658   8.127  1.0103 -0.6599  0.4019
  123OSM   H13G13105   6.806   2.503   8.119  0.2395  0.8044 -0.5229
  123OSM   C14F13106   6.640   2.501   8.246  0.3266 -0.0920  0.4737
  123OSM   H14F13107   6.575   2.417   8.214  0.3981  0.4751 -1.2578
  123OSM   H14G13108   6.562   2.576   8.274  0.8481 -0.2659  2.5743
  123OSM   C15F13109   6.731   2.474   8.367 -0.3781  0.7142 -0.0272
  123OSM   H15F13110   6.778   2.374   8.358 -0.7120  0.5470  0.0588
  123OSM   H15G13111   6.662   2.468   8.454 -0.5481 -1.2689 -0.2437
  123OSM   C16F13112   6.839   2.583   8.394 -0.0949 -0.1212 -0.4353
  123OSM   H16F13113   6.899   2.598   8.302 -2.1667  0.0247 -1.8400
  123OSM   H16G13114   6.895   2.545   8.482 -2.2229 -1.5063  0.4057
  123OSM   C17F13115   6.776   2.716   8.444  0.0783  0.5664 -0.2374
  123OSM   H17F13116   6.710   2.698   8.532 -0.7888 -1.2025 -1.1968
  123OSM   H17G13117   6.704   2.740   8.363 -1.2390  1.6046  1.1858
  123OSM   C18F13118   6.871   2.824   8.456 -0.1647  0.4862 -0.1185
  123OSM   H18F13119   6.935   2.828   8.366  0.2529 -0.2529  0.1380
  123OSM   H18G13120   6.939   2.815   8.544 -1.0423 -2.3410  0.3685
  123OSM   H18H13121   6.815   2.919   8.470 -1.6965 -0.8007  3.9258
  124OSM      N13122   6.417   4.389   6.016  0.0225  0.2313 -0.1654
  124OSM    C1513123   6.352   4.418   6.150 -0.5415  0.1555  0.0476
  124OSM   H15A13124   6.387   4.507   6.199 -1.2055 -0.3330  1.4659
  124OSM   H15B13125   6.378   4.338   6.217  2.7472  0.0370 -1.2150
  124OSM   H15C13126   6.244   4.424   6.152 -0.4975  0.7649  2.3123
  124OSM    C1413127   6.408   4.495   5.916 -0.0410 -0.2524  0.1129
  124OSM   H14A13128   6.437   4.449   5.823 -1.6321 -2.6825  0.7419
  124OSM   H14B13129   6.468   4.580   5.946  1.0841 -0.8343 -0.4476
  124OSM   H14C13130   6.307   4.533   5.905 -0.0057 -0.3309 -0.5088
  124OSM    C1313131   6.555   4.351   6.047 -0.8607 -0.0483 -0.1713
  124OSM   H13A13132   6.608   4.296   5.970  1.7709  1.0438  0.7416
  124OSM   H13B13133   6.542   4.285   6.131 -2.2373  1.6700  1.0397
  124OSM   H13C13134   6.621   4.434   6.068 -0.3929 -0.3001 -0.6366
  124OSM    C1213135   6.344   4.270   5.956  0.4879  0.2966 -0.0425
  124OSM   H12A13136   6.391   4.253   5.860  1.1930 -1.8278  0.6232
  124OSM   H12B13137   6.240   4.297   5.951  1.0189  2.7118  0.6482
  124OSM    C1113138   6.332   4.132   6.030  0.4686  0.2059 -0.2694
  124OSM   H11A13139   6.435   4.093   6.047  0.1216 -0.1143  1.2209
  124OSM   H11B13140   6.291   4.060   5.956 -0.1198  1.6442 -1.3945
  124OSM      P13141   6.099   4.112   6.137 -0.1424 -0.0987 -0.6154
  124OSM    O1313142   6.044   4.226   6.059 -0.1479  0.4641 -0.3492
  124OSM    O1413143   6.056   3.975   6.095  0.2481  0.1839  0.2563
  124OSM    O1113144   6.063   4.133   6.290  0.4669 -0.3510 -0.1181
  124OSM    O1213145   6.258   4.130   6.146  0.3088 -0.0343 -0.3294
  124OSM    C1S13146   6.102   4.238   6.377 -0.1276  0.4865  0.1284
  124OSM    H1S13147   6.076   4.339   6.339  0.3342  0.1233 -1.2007
  124OSM    H1T13148   6.213   4.235   6.378 -0.0700  2.0512  0.0664
  124OSM     NF13149   6.089   4.322   6.611 -0.1775  0.3487 -0.0075
  124OSM    HNF13150   6.161   4.292   6.672 -2.1256 -4.2253  0.4202
  124OSM    C2S13151   6.035   4.224   6.514  0.5281 -0.0406 -0.4873
  124OSM    H2S13152   5.926   4.231   6.497  0.3299 -1.5305  0.0647
  124OSM    C3S13153   6.041   4.062   6.559 -0.5509 -0.6817  0.0312
  124OSM    H3S13154   6.151   4.046   6.569 -0.1127  1.1238 -1.3785
  124OSM     O313155   5.988   3.963   6.470  0.0358 -0.2690 -0.7899
  124OSM    HO313156   5.982   4.004   6.384 -1.6480 -0.0800 -0.6152
  124OSM    C4S13157   5.982   4.047   6.690  0.1549 -0.0732  0.1312
  124OSM    H4S13158   5.888   4.101   6.711 -1.1409 -2.0209 -0.3915
  124OSM    C5S13159   6.028   3.963   6.788  0.7728 -0.1438  0.6014
  124OSM    H5S13160   6.116   3.899   6.766  0.8892  0.0596  0.4729
  124OSM    C6S13161   5.964   3.948   6.920  0.3317 -0.3861 -0.4740
  124OSM    H6S13162   5.984   4.047   6.967  1.4596 -0.9817  0.3320
  124OSM    H6T13163   6.021   3.875   6.981  0.6131  2.1227  2.4990
  124OSM    C7S13164   5.816   3.924   6.923  0.0477  0.6014 -0.3170
  124OSM    H7S13165   5.795   3.831   6.867  1.1006  1.3233 -2.0009
  124OSM    H7T13166   5.770   4.014   6.877  1.3546  2.2288  1.4005
  124OSM    C8S13167   5.758   3.909   7.058  0.3009  0.0326 -0.7257
  124OSM    H8S13168   5.759   4.006   7.113 -0.9373 -0.4502  0.1984
  124OSM    H8T13169   5.802   3.832   7.125  1.6231  2.5373  1.4596
  124OSM    C9S13170   5.612   3.878   7.054  0.3006 -0.3863 -0.4604
  124OSM    H9S13171   5.586   3.779   7.010 -1.5666  0.8010 -2.2119
  124OSM    H9T13172   5.556   3.954   6.995  2.2334  2.0398  0.6522
  124OSM   C10S13173   5.558   3.874   7.203 -0.7332  0.6877  0.3941
  124OSM   H10S13174   5.625   3.811   7.266  0.4407 -0.6624 -2.0661
  124OSM   H10T13175   5.459   3.824   7.204 -0.3255 -0.3144 -1.8483
  124OSM   C11S13176   5.528   4.017   7.246 -0.0637 -0.1332  0.4966
  124OSM   H11S13177   5.476   4.071   7.165 -0.0253  0.3134  0.7654
  124OSM   H11T13178   5.625   4.065   7.272  0.6026 -0.4165 -1.3358
  124OSM   C12S13179   5.446   4.030   7.375  0.2024 -0.0695  0.8402
  124OSM   H12S13180   5.349   3.977   7.361  1.3084 -1.5499 -2.0367
  124OSM   H12T13181   5.420   4.138   7.382  0.2490 -0.0756  1.1133
  124OSM   C13S13182   5.502   3.977   7.505  0.4787  0.1116  0.4233
  124OSM   H13S13183   5.596   4.033   7.524  0.0358  1.8427 -1.9839
  124OSM   H13T13184   5.527   3.872   7.478 -0.3046  0.5329 -2.2646
  124OSM   C14S13185   5.403   3.976   7.616 -0.4891 -0.6825  0.0812
  124OSM   H14S13186   5.450   3.916   7.697  3.7541  1.3293 -0.6384
  124OSM   H14T13187   5.309   3.926   7.584  0.6862 -2.2613 -1.0790
  124OSM   C15S13188   5.368   4.115   7.682  0.0810  0.1188  0.3284
  124OSM   H15S13189   5.283   4.108   7.752 -0.7415 -0.4413 -0.6992
  124OSM   H15T13190   5.330   4.170   7.593  0.4424 -0.5845 -0.2645
  124OSM   C16S13191   5.496   4.185   7.727 -0.0634 -0.4111  0.7883
  124OSM   H16S13192   5.505   4.286   7.680 -0.0902  0.2922  2.2340
  124OSM   H16T13193   5.593   4.140   7.698 -0.2491 -0.0795 -0.4413
  124OSM   C17S13194   5.519   4.197   7.872  0.7430 -0.2495 -0.2426
  124OSM   H17S13195   5.506   4.093   7.911  1.1182  1.2282  4.5405
  124OSM   H17T13196   5.436   4.253   7.920  1.6449 -0.7896  2.1164
  124OSM   C18S13197   5.653   4.251   7.923 -0.9199  0.5114 -0.5646
  124OSM   H18S13198   5.742   4.257   7.857  0.2054  0.9460  0.9367
  124OSM   H18T13199   5.675   4.204   8.021 -0.9197  1.4824 -0.0940
  124OSM   H18U13200   5.642   4.358   7.950 -2.2815 -0.4102  3.1488
  124OSM    C1F13201   6.049   4.453   6.597 -0.4921 -0.3937 -0.2028
  124OSM     OF13202   5.962   4.492   6.516  0.0486 -0.3460 -0.1115
  124OSM    C2F13203   6.119   4.553   6.675  0.1851  0.4816 -0.3079
  124OSM    H2F13204   6.215   4.579   6.626  0.2144  1.7289  0.3715
  124OSM    H2G13205   6.135   4.516   6.779 -1.1883  2.4243  0.6657
  124OSM    C3F13206   6.045   4.690   6.682 -0.4629  0.2805  0.3937
  124OSM    H3F13207   5.947   4.678   6.733 -1.8662 -0.7182 -2.2774
  124OSM    H3G13208   6.034   4.728   6.578  0.9162 -0.6819 -0.1336
  124OSM    C4F13209   6.105   4.813   6.752 -0.1633 -0.4380  0.3466
  124OSM    H4F13210   6.037   4.900   6.738  1.1536  0.3980 -1.2284
  124OSM    H4G13211   6.192   4.829   6.685 -2.1479 -1.0657 -2.5904
  124OSM    C5F13212   6.148   4.790   6.896 -0.2525  0.2317 -0.3313
  124OSM    H5F13213   6.226   4.865   6.920 -1.7990  2.0714 -0.7508
  124OSM    H5G13214   6.203   4.695   6.886 -0.5578  0.2405 -2.4144
  124OSM    C6F13215   6.045   4.778   7.007  0.3085  0.3188  0.0098
  124OSM    H6F13216   5.976   4.694   6.984  0.8368 -0.7890  2.1682
  124OSM    H6G13217   5.988   4.873   7.014 -2.3312 -1.0667 -1.3212
  124OSM    C7F13218   6.111   4.779   7.147  0.5413 -0.1207  0.7155
  124OSM    H7F13219   6.195   4.850   7.152 -0.4563  1.0752  0.9883
  124OSM    H7G13220   6.146   4.677   7.174 -0.0104 -0.8211 -1.0642
  124OSM    C8F13221   6.023   4.828   7.273  0.2758  0.6177 -0.8156
  124OSM    H8F13222   6.075   4.788   7.363  2.2084 -0.6932 -2.4123
  124OSM    H8G13223   5.928   4.773   7.259  0.4200 -0.5636  2.1946
  124OSM    C9F13224   5.981   4.975   7.279  0.1927 -0.3714 -0.1674
  124OSM    H9F13225   5.937   5.019   7.189  0.1833  1.4067  0.6765
  124OSM   C10F13226   6.010   5.054   7.386  0.7263  0.1275 -0.1611
  124OSM   H10F13227   5.974   5.157   7.366  1.5395  0.1560 -1.5579
  124OSM   C11F13228   6.086   5.031   7.512 -0.3127 -0.0486  0.0028
  124OSM   H11F13229   6.151   5.120   7.522 -2.5582  1.6992 -0.2954
  124OSM   H11G13230   6.151   4.941   7.503 -1.0153 -0.5469 -0.1129
  124OSM   C12F13231   5.992   5.016   7.637  0.2007 -0.0808 -0.2555
  124OSM   H12F13232   5.924   4.928   7.642  0.0401 -0.0124 -1.1302
  124OSM   H12G13233   5.927   5.106   7.638  0.2469  0.0319 -2.4499
  124OSM   C13F13234   6.076   5.033   7.771  0.3759 -0.3137  0.0031
  124OSM   H13F13235   6.146   5.118   7.762  0.7598 -0.0137  4.2070
  124OSM   H13G13236   6.149   4.950   7.780  1.6222  0.8577  1.1702
  124OSM   C14F13237   5.994   5.027   7.896  0.0277  0.0131 -0.1508
  124OSM   H14F13238   5.940   4.930   7.893  1.1107 -0.6080 -3.3680
  124OSM   H14G13239   5.914   5.103   7.891 -0.0891  0.0474  1.6780
  124OSM   C15F13240   6.078   5.042   8.027  0.0943 -0.5916  0.5612
  124OSM   H15F13241   6.125   4.942   8.041 -2.2526 -2.0466 -1.0272
  124OSM   H15G13242   6.012   5.064   8.113  0.0067  1.4055  0.0246
  124OSM   C16F13243   6.176   5.157   8.016 -0.2754 -0.3862 -0.1525
  124OSM   H16F13244   6.123   5.255   8.012 -1.8004 -1.1588  0.4578
  124OSM   H16G13245   6.253   5.153   7.936 -0.2360  1.2188 -0.2423
  124OSM   C17F13246   6.269   5.155   8.147 -0.2972 -0.0414 -0.3749
  124OSM   H17F13247   6.344   5.236   8.158 -1.1048  0.5055  1.4726
  124OSM   H17G13248   6.324   5.058   8.144 -1.5985 -0.9344  1.7091
  124OSM   C18F13249   6.180   5.146   8.277  0.0416  0.1479  0.3181
  124OSM   H18F13250   6.238   5.171   8.368  0.2286  0.8978  0.0000
  124OSM   H18G13251   6.136   5.047   8.301 -1.1239  0.1938 -1.4287
  124OSM   H18H13252   6.095   5.219   8.273  0.9339  1.1977 -0.0771
  125OSM      N13253   1.999   3.425   6.213 -0.1428  0.3824 -0.6424
  125OSM    C1513254   1.851   3.417   6.236  0.4114 -0.1643 -0.0818
  125OSM   H15A13255   1.802   3.420   6.140 -0.6705  1.6964  0.4723
  125OSM   H15B13256   1.814   3.485   6.311  0.7852 -0.7578  0.6595
  125OSM   H15C13257   1.826   3.320   6.276 -0.0883  0.2611  0.6641
  125OSM    C1413258   2.025   3.555   6.160 -0.2249 -0.1755 -0.4163
  125OSM   H14A13259   1.988   3.637   6.220  0.5087  0.2594 -0.5420
  125OSM   H14B13260   1.991   3.576   6.060 -1.1415 -1.6073 -0.4217
  125OSM   H14C13261   2.132   3.574   6.165 -0.4212  0.6143  2.7550
  125OSM    C1313262   2.065   3.408   6.349  0.5367  0.6249  0.6289
  125OSM   H13A13263   2.035   3.313   6.390  0.2811 -0.6896 -2.3011
  125OSM   H13B13264   2.052   3.481   6.427  2.7489 -1.4493  3.1703
  125OSM   H13C13265   2.172   3.403   6.334  0.7345  2.4648  1.2682
  125OSM    C1213266   2.040   3.309   6.115  0.2430 -0.0758 -0.2139
  125OSM   H12A13267   2.146   3.311   6.093 -0.0502 -0.6860 -1.8147
  125OSM   H12B13268   1.991   3.326   6.021 -0.4104  0.5048  0.2238
  125OSM    C1113269   2.020   3.159   6.162 -0.1053 -0.2819 -0.3154
  125OSM   H11A13270   2.081   3.146   6.254 -1.3814 -0.5556  0.5146
  125OSM   H11B13271   2.051   3.092   6.079 -0.4539 -1.7045  0.6746
  125OSM      P13272   1.833   2.991   6.233  0.0899 -0.1007 -0.3971
  125OSM    O1313273   1.686   3.003   6.241 -0.3105 -0.0659 -0.5257
  125OSM    O1413274   1.889   2.888   6.147 -0.0132  0.2133  0.0319
  125OSM    O1113275   1.890   2.970   6.378  0.7173 -0.3326  0.5451
  125OSM    O1213276   1.880   3.128   6.190 -0.6720  0.7189 -0.1289
  125OSM    C1S13277   1.837   3.052   6.482 -0.4548 -0.0859  0.2912
  125OSM    H1S13278   1.731   3.034   6.509 -1.1449  0.3855 -1.9371
  125OSM    H1T13279   1.833   3.160   6.458  1.3883 -0.5925 -2.7729
  125OSM     NF13280   1.839   3.092   6.721  0.0490 -0.3960 -0.1412
  125OSM    HNF13281   1.862   3.186   6.746  0.3517  0.3383 -2.7730
  125OSM    C2S13282   1.916   3.030   6.617 -0.9174  0.6154 -0.0032
  125OSM    H2S13283   1.929   2.921   6.632  3.9362  0.9380 -0.5657
  125OSM    C3S13284   2.064   3.082   6.607  0.5617  0.3112 -0.0612
  125OSM    H3S13285   2.060   3.192   6.590  0.3491  0.5121  1.2453
  125OSM     O313286   2.119   3.031   6.480  0.3856 -0.1483  0.3606
  125OSM    HO313287   2.049   2.989   6.430  0.8635  0.4907 -0.8896
  125OSM    C4S13288   2.160   3.041   6.715 -0.4383  0.4832 -0.2202
  125OSM    H4S13289   2.178   2.933   6.709  0.2569  0.5059  1.0415
  125OSM    C5S13290   2.219   3.115   6.812  0.3354  0.4708  0.1480
  125OSM    H5S13291   2.216   3.225   6.810 -0.0417  0.4893  1.2121
  125OSM    C6S13292   2.305   3.066   6.919 -0.1825 -0.0673 -0.1552
  125OSM    H6S13293   2.407   3.107   6.904 -0.4933  0.5289 -0.6409
  125OSM    H6T13294   2.321   2.956   6.921 -0.7604 -0.1540  1.7275
  125OSM    C7S13295   2.269   3.131   7.052  0.5752  0.3979  0.4194
  125OSM    H7S13296   2.159   3.124   7.062  0.5864  1.5570  1.4127
  125OSM    H7T13297   2.289   3.240   7.048  0.0707  0.4739 -0.4031
  125OSM    C8S13298   2.334   3.074   7.180  0.2087  0.3662  0.2833
  125OSM    H8S13299   2.443   3.097   7.183  0.1343  0.7533  0.0918
  125OSM    H8T13300   2.314   2.966   7.161  2.2512  0.4412 -3.3481
  125OSM    C9S13301   2.261   3.132   7.308  0.3157 -0.0488  0.7164
  125OSM    H9S13302   2.153   3.109   7.296  0.7049 -0.4684 -2.8699
  125OSM    H9T13303   2.291   3.239   7.308  0.4005 -0.0552  2.0978
  125OSM   C10S13304   2.304   3.058   7.434  0.3314  0.0793  0.1798
  125OSM   H10S13305   2.315   2.949   7.417 -1.4544 -0.4476  2.0177
  125OSM   H10T13306   2.232   3.081   7.515  0.1630 -1.0988  0.3844
  125OSM   C11S13307   2.440   3.106   7.483  0.7717  0.1676  0.0922
  125OSM   H11S13308   2.439   3.215   7.507 -0.3555  0.2840 -0.4499
  125OSM   H11T13309   2.517   3.111   7.403 -0.3039  3.1214 -0.8995
  125OSM   C12S13310   2.495   3.005   7.578  0.0162 -0.0385  0.4719
  125OSM   H12S13311   2.533   2.932   7.503  1.0458 -0.0498  0.9830
  125OSM   H12T13312   2.415   2.967   7.645 -1.2271  1.5783 -0.0475
  125OSM   C13S13313   2.607   3.057   7.671  0.4430  0.3089  0.6973
  125OSM   H13S13314   2.560   3.130   7.740 -0.4350 -0.2972  0.7587
  125OSM   H13T13315   2.691   3.089   7.606 -1.3232 -0.0212 -1.8878
  125OSM   C14S13316   2.671   2.946   7.754 -0.1368 -0.5036  0.4813
  125OSM   H14S13317   2.698   2.865   7.683 -0.5363  0.9107 -1.3370
  125OSM   H14T13318   2.597   2.899   7.821  1.5165 -4.2785 -0.0780
  125OSM   C15S13319   2.803   2.977   7.819  0.0724  0.6103 -1.2386
  125OSM   H15S13320   2.797   3.084   7.847  0.3155  0.7838 -1.8255
  125OSM   H15T13321   2.880   2.966   7.740  2.4291 -2.7592  1.2343
  125OSM   C16S13322   2.823   2.871   7.924  0.0567 -0.1691  0.0262
  125OSM   H16S13323   2.817   2.772   7.873  1.6441 -0.1963 -0.1578
  125OSM   H16T13324   2.744   2.865   8.002  0.5430 -1.0736  0.4552
  125OSM   C17S13325   2.957   2.874   7.998  0.2371  0.1015  0.0285
  125OSM   H17S13326   3.039   2.900   7.927  0.0447 -0.9145 -0.5988
  125OSM   H17T13327   2.962   2.771   8.040 -0.7669  0.1503  0.2885
  125OSM   C18S13328   2.971   2.986   8.100 -0.0041  0.0530 -0.5839
  125OSM   H18S13329   2.937   3.086   8.064  3.2354  0.8267 -1.8416
  125OSM   H18T13330   3.077   2.996   8.130 -0.3423 -0.5167  0.8674
  125OSM   H18U13331   2.909   2.963   8.189 -0.8554  0.4841 -1.0578
  125OSM    C1F13332   1.741   3.031   6.790 -0.0129  0.8273 -0.1459
  125OSM     OF13333   1.696   2.922   6.746  0.3353  0.4889  0.2431
  125OSM    C2F13334   1.689   3.092   6.918 -0.3097 -0.1664  0.2943
  125OSM    H2F13335   1.668   3.200   6.899  1.1499  0.3246  1.3386
  125OSM    H2G13336   1.779   3.093   6.983  0.5863  1.7509 -0.8737
  125OSM    C3F13337   1.577   3.021   6.993  0.2641 -1.5714  0.7022
  125OSM    H3F13338   1.615   2.919   7.015  0.6568 -1.2238  1.6917
  125OSM    H3G13339   1.498   3.002   6.917  1.0417 -0.0384 -0.5720
  125OSM    C4F13340   1.520   3.089   7.124 -0.0977  1.2858 -0.2053
  125OSM    H4F13341   1.413   3.059   7.124  0.3353 -0.3815 -1.0323
  125OSM    H4G13342   1.538   3.199   7.124  0.5635  1.2631 -3.1093
  125OSM    C5F13343   1.572   3.027   7.249 -0.8724 -0.2812 -0.1467
  125OSM    H5F13344   1.683   3.027   7.255 -0.9065  0.2881  0.5396
  125OSM    H5G13345   1.531   2.923   7.250 -2.3207  0.2591 -1.0234
  125OSM    C6F13346   1.519   3.109   7.373  0.3849 -0.1650  0.1109
  125OSM    H6F13347   1.408   3.106   7.380  0.4809 -0.5843  1.8365
  125OSM    H6G13348   1.537   3.215   7.346 -0.9859 -0.2559 -1.3314
  125OSM    C7F13349   1.597   3.089   7.510  0.0162  0.5521 -0.3089
  125OSM    H7F13350   1.699   3.121   7.481  0.6818 -2.7072 -1.9791
  125OSM    H7G13351   1.598   2.983   7.545  2.3405  0.8054  0.5705
  125OSM    C8F13352   1.548   3.174   7.628 -0.3047 -0.0044 -0.5503
  125OSM    H8F13353   1.545   3.283   7.607  0.0500  0.1102 -0.0336
  125OSM    H8G13354   1.630   3.166   7.702 -1.0156  0.3700  0.2931
  125OSM    C9F13355   1.419   3.132   7.693 -0.7301  0.0537 -0.1781
  125OSM    H9F13356   1.334   3.154   7.627 -1.1107  1.0422  0.6162
  125OSM   C10F13357   1.396   3.069   7.810  0.3343  0.1377 -0.0195
  125OSM   H10F13358   1.291   3.058   7.842 -1.1228  2.4766 -3.4201
  125OSM   C11F13359   1.505   3.024   7.908 -0.2257  0.0647  0.3313
  125OSM   H11F13360   1.609   3.034   7.873  0.9123 -0.3362  3.2531
  125OSM   H11G13361   1.487   2.916   7.928 -0.9430 -0.7208 -3.7182
  125OSM   C12F13362   1.493   3.111   8.033  0.6444 -0.1082  0.1214
  125OSM   H12F13363   1.508   3.214   7.996  0.9469 -0.4084 -0.6158
  125OSM   H12G13364   1.576   3.088   8.104  0.4572  1.1113  0.7517
  125OSM   C13F13365   1.353   3.105   8.106  0.1577 -0.2169 -0.2961
  125OSM   H13F13366   1.315   3.002   8.121  0.2010 -0.2939 -0.6979
  125OSM   H13G13367   1.274   3.158   8.049 -2.3624 -0.6142  2.5701
  125OSM   C14F13368   1.368   3.181   8.244 -0.3808 -0.4401  0.4890
  125OSM   H14F13369   1.398   3.286   8.225 -2.8152  0.1422 -0.5975
  125OSM   H14G13370   1.440   3.124   8.305  1.2462  2.2008  1.2108
  125OSM   C15F13371   1.236   3.180   8.323  0.0503 -0.7495  0.9630
  125OSM   H15F13372   1.187   3.083   8.346  2.4632 -1.6294  2.8293
  125OSM   H15G13373   1.170   3.229   8.248  0.6834  0.7986  1.3865
  125OSM   C16F13374   1.240   3.268   8.440  0.8750 -0.3983  0.7436
  125OSM   H16F13375   1.289   3.365   8.416 -1.0208  0.6636  0.9513
  125OSM   H16G13376   1.284   3.225   8.533 -1.0714  0.5622  2.2011
  125OSM   C17F13377   1.094   3.302   8.472  0.5270  0.3317  0.3878
  125OSM   H17F13378   1.038   3.211   8.500  1.2521 -0.2007  0.1282
  125OSM   H17G13379   1.038   3.343   8.385 -0.5704 -1.0832  0.3975
  125OSM   C18F13380   1.087   3.399   8.591 -0.5236  0.1774  0.3996
  125OSM   H18F13381   1.161   3.371   8.669 -0.6938 -1.6923 -0.0628
  125OSM   H18G13382   0.986   3.399   8.636 -0.2921 -1.2730  0.9894
  125OSM   H18H13383   1.120   3.500   8.560  0.5660  0.0301  1.0145
  126OSM      N13384   6.705   1.127   6.415 -0.2960 -0.6446  0.2696
  126OSM    C1513385   6.760   1.240   6.492  0.2201 -0.0257 -0.0672
  126OSM   H15A13386   6.710   1.237   6.587  0.4673  2.1686  0.1814
  126OSM   H15B13387   6.757   1.342   6.455  1.6749  0.4726  1.0788
  126OSM   H15C13388   6.863   1.221   6.519  0.5624  1.3230 -0.3234
  126OSM    C1413389   6.768   1.126   6.270 -0.2689 -0.1636  0.1876
  126OSM   H14A13390   6.729   1.039   6.220 -1.6023 -0.3437  1.4569
  126OSM   H14B13391   6.875   1.113   6.270  0.6749  5.0985  0.7257
  126OSM   H14C13392   6.754   1.209   6.202  2.1708  0.4981  0.4138
  126OSM    C1313393   6.749   1.001   6.489 -0.0513 -0.4579  0.0678
  126OSM   H13A13394   6.856   0.998   6.502 -0.2140 -2.6989  1.5958
  126OSM   H13B13395   6.722   0.914   6.431  1.3220 -0.5696 -0.4456
  126OSM   H13C13396   6.710   1.000   6.589  1.4033 -0.2829  0.6568
  126OSM    C1213397   6.560   1.146   6.407 -0.4156 -0.0564  0.7464
  126OSM   H12A13398   6.515   1.070   6.345 -0.8657  0.2211  0.7290
  126OSM   H12B13399   6.540   1.242   6.362  0.2503  1.4444  3.4500
  126OSM    C1113400   6.486   1.143   6.541  0.3866  0.0065  1.6460
  126OSM   H11A13401   6.518   1.054   6.599 -2.0443 -2.1999 -0.2146
  126OSM   H11B13402   6.377   1.128   6.531  0.1493  0.9933  2.5352
  126OSM      P13403   6.417   1.395   6.570  0.0098 -0.4401 -0.0845
  126OSM    O1313404   6.501   1.515   6.572  0.1283 -0.0490 -0.0412
  126OSM    O1413405   6.355   1.363   6.439 -0.0607 -0.2020  0.1035
  126OSM    O1113406   6.309   1.402   6.681  0.3323  1.6266 -0.7264
  126OSM    O1213407   6.503   1.263   6.619 -0.5807 -0.0976  0.3104
  126OSM    C1S13408   6.237   1.295   6.742 -0.1305  0.5780  0.2384
  126OSM    H1S13409   6.306   1.209   6.761  1.1903  1.7484  0.9075
  126OSM    H1T13410   6.167   1.254   6.665  1.2064 -0.7061 -0.3624
  126OSM     NF13411   6.136   1.220   6.955 -0.8152 -0.1547  0.7546
  126OSM    HNF13412   6.038   1.209   6.971 -1.2344 -0.1603 -1.5470
  126OSM    C2S13413   6.165   1.338   6.868 -0.0720 -0.2634 -1.1204
  126OSM    H2S13414   6.230   1.408   6.924 -0.2162 -0.4136 -0.7638
  126OSM    C3S13415   6.034   1.404   6.829 -0.6327  0.0488  0.3457
  126OSM    H3S13416   5.976   1.331   6.768  1.1050 -0.7013 -0.4939
  126OSM     O313417   6.049   1.508   6.736 -0.6005  0.4408  0.7197
  126OSM    HO313418   6.142   1.501   6.713 -0.6685  1.7786 -0.0911
  126OSM    C4S13419   5.957   1.449   6.949 -0.0473 -0.5195  0.5432
  126OSM    H4S13420   6.008   1.538   6.988 -0.5023  0.9617 -2.0036
  126OSM    C5S13421   5.831   1.412   6.983 -0.6892 -0.0508  0.7297
  126OSM    H5S13422   5.781   1.342   6.915  0.9942 -0.5294 -0.0820
  126OSM    C6S13423   5.755   1.473   7.096 -0.3829  1.0490 -0.2595
  126OSM    H6S13424   5.662   1.518   7.055 -1.7747  0.0914  1.7374
  126OSM    H6T13425   5.815   1.550   7.150  1.1603 -1.0725  1.2373
  126OSM    C7S13426   5.697   1.378   7.205 -0.1788 -0.4008 -0.2014
  126OSM    H7S13427   5.773   1.299   7.222  0.9326  1.0205  1.8078
  126OSM    H7T13428   5.608   1.326   7.165 -0.3048  0.1785 -0.6860
  126OSM    C8S13429   5.663   1.448   7.332 -0.4214  0.3298  0.0647
  126OSM    H8S13430   5.587   1.523   7.300 -0.9875  0.1707  1.0089
  126OSM    H8T13431   5.750   1.506   7.369 -0.7951  1.9119 -1.3862
  126OSM    C9S13432   5.600   1.348   7.427 -0.0455 -0.0674  0.0757
  126OSM    H9S13433   5.671   1.264   7.442  0.1394  0.1028  0.1482
  126OSM    H9T13434   5.510   1.313   7.371 -0.7769 -2.7534  2.6623
  126OSM   C10S13435   5.549   1.400   7.562 -0.0456  0.0351  0.2937
  126OSM   H10S13436   5.453   1.346   7.577  0.5635 -1.3569 -0.5409
  126OSM   H10T13437   5.525   1.508   7.556  2.2443  0.6128  0.5530
  126OSM   C11S13438   5.650   1.371   7.669 -0.1479 -0.0413 -0.8337
  126OSM   H11S13439   5.746   1.418   7.638 -0.0422 -0.7542 -1.6138
  126OSM   H11T13440   5.664   1.262   7.683  0.2197  0.2278  1.2219
  126OSM   C12S13441   5.595   1.419   7.806  0.4901 -0.2034 -0.3631
  126OSM   H12S13442   5.651   1.372   7.890 -0.6379  0.2299  0.6604
  126OSM   H12T13443   5.492   1.382   7.822  0.8251 -1.1827 -0.3704
  126OSM   C13S13444   5.586   1.574   7.824 -1.1308 -0.2247  0.3214
  126OSM   H13S13445   5.509   1.593   7.902 -2.3966 -2.2592 -0.3580
  126OSM   H13T13446   5.542   1.618   7.731 -2.7742 -2.5355 -0.0772
  126OSM   C14S13447   5.729   1.634   7.850  0.4571 -0.1359 -0.1309
  126OSM   H14S13448   5.789   1.646   7.757 -1.3211  0.5903 -1.2374
  126OSM   H14T13449   5.772   1.553   7.912  0.5648 -0.3904 -0.5374
  126OSM   C15S13450   5.731   1.747   7.948  0.2917 -0.3769  0.1401
  126OSM   H15S13451   5.643   1.742   8.015 -0.5112 -0.2905 -0.8938
  126OSM   H15T13452   5.726   1.845   7.896 -0.9331  1.2347  3.0713
  126OSM   C16S13453   5.859   1.745   8.040 -0.0929  0.1181  0.1428
  126OSM   H16S13454   5.954   1.715   7.990  0.1049 -1.7227  1.4957
  126OSM   H16T13455   5.838   1.661   8.110 -1.7626  0.2470 -0.1753
  126OSM   C17S13456   5.880   1.869   8.129  0.5587  0.0514 -0.0033
  126OSM   H17S13457   5.810   1.869   8.214  0.3113 -1.4054 -0.1850
  126OSM   H17T13458   5.859   1.957   8.065 -0.4502 -0.3605 -0.2563
  126OSM   C18S13459   6.022   1.868   8.163 -0.0699 -0.6242  0.0100
  126OSM   H18S13460   6.101   1.880   8.086 -1.7734 -0.3714 -1.7808
  126OSM   H18T13461   6.041   1.767   8.205  0.2518 -0.8993 -0.7730
  126OSM   H18U13462   6.039   1.947   8.239  0.8904 -0.5306 -0.2932
  126OSM    C1F13463   6.228   1.176   7.041  0.2235  0.1778  0.6022
  126OSM     OF13464   6.348   1.197   7.017 -0.2559 -0.4044 -0.0979
  126OSM    C2F13465   6.179   1.095   7.163  0.0536  0.1672  0.1222
  126OSM    H2F13466   6.077   1.057   7.139  0.0722  0.3637 -0.2807
  126OSM    H2G13467   6.177   1.156   7.256 -4.1156 -0.0638  0.3442
  126OSM    C3F13468   6.269   0.974   7.186  0.9073 -0.1038  0.5524
  126OSM    H3F13469   6.375   1.008   7.186  0.3495  1.7002 -0.0976
  126OSM    H3G13470   6.257   0.919   7.090  2.6567  0.6502 -0.1409
  126OSM    C4F13471   6.223   0.872   7.291 -0.0075  0.0764  0.6012
  126OSM    H4F13472   6.300   0.792   7.281  1.7445  1.9705 -2.3811
  126OSM    H4G13473   6.127   0.819   7.274  0.8233 -1.1232 -0.5899
  126OSM    C5F13474   6.216   0.923   7.430 -0.4824  0.8503 -0.6589
  126OSM    H5F13475   6.130   0.992   7.443 -0.4282  0.6742  0.8049
  126OSM    H5G13476   6.313   0.971   7.452 -1.0949  1.0223  1.9643
  126OSM    C6F13477   6.204   0.810   7.530 -0.2586  0.5893  0.1548
  126OSM    H6F13478   6.306   0.765   7.538  0.5556  2.1831 -0.7426
  126OSM    H6G13479   6.141   0.732   7.483  2.0353 -2.0418  1.1232
  126OSM    C7F13480   6.139   0.843   7.672 -0.0574 -0.3280 -0.0450
  126OSM    H7F13481   6.040   0.892   7.666  0.3049  0.3322 -0.7564
  126OSM    H7G13482   6.216   0.911   7.716 -0.3489 -0.9599  1.5330
  126OSM    C8F13483   6.124   0.717   7.768  0.5799 -0.2567  0.3283
  126OSM    H8F13484   6.226   0.672   7.776  0.6566 -0.0407  0.5932
  126OSM    H8G13485   6.060   0.640   7.720  1.3530 -0.0925 -1.0022
  126OSM    C9F13486   6.067   0.745   7.907  0.1868 -0.8682 -0.1488
  126OSM    H9F13487   5.957   0.748   7.917  0.1895 -2.3694  0.6710
  126OSM   C10F13488   6.144   0.774   8.013 -0.3357 -0.1403  0.4390
  126OSM   H10F13489   6.107   0.792   8.115 -0.1649  0.9521  0.3179
  126OSM   C11F13490   6.301   0.777   8.024 -0.0036  0.2286  0.1666
  126OSM   H11F13491   6.317   0.878   8.066 -0.6699 -0.6096  2.5773
  126OSM   H11G13492   6.359   0.757   7.930 -2.2114  0.4975 -1.3291
  126OSM   C12F13493   6.344   0.678   8.140 -0.6971  0.1819  0.1438
  126OSM   H12F13494   6.340   0.578   8.093 -1.9710  0.4269 -0.2911
  126OSM   H12G13495   6.271   0.685   8.224 -0.0360  0.7536  0.6866
  126OSM   C13F13496   6.489   0.692   8.195  0.2202 -0.0206  0.3601
  126OSM   H13F13497   6.499   0.791   8.246 -0.2971 -0.8136  2.0869
  126OSM   H13G13498   6.563   0.684   8.113  0.0812 -1.3675  0.3426
  126OSM   C14F13499   6.527   0.570   8.286 -0.0163  0.7678 -0.0618
  126OSM   H14F13500   6.531   0.483   8.217 -2.6564  0.6986 -0.2444
  126OSM   H14G13501   6.449   0.561   8.364  1.9522  4.5058  2.6749
  126OSM   C15F13502   6.652   0.566   8.377 -0.1057 -0.2667  0.5516
  126OSM   H15F13503   6.654   0.654   8.446  1.2624  0.0241  0.1804
  126OSM   H15G13504   6.738   0.583   8.309 -1.4782  3.8673 -0.4391
  126OSM   C16F13505   6.659   0.437   8.457  0.3805  0.2359  0.2957
  126OSM   H16F13506   6.760   0.415   8.498  0.8603 -1.2363 -1.5491
  126OSM   H16G13507   6.652   0.353   8.385  4.0398 -1.7387  1.9583
  126OSM   C17F13508   6.556   0.423   8.565  0.1356 -0.0763 -0.0423
  126OSM   H17F13509   6.522   0.318   8.581 -1.5201  0.6436  1.6061
  126OSM   H17G13510   6.458   0.468   8.538 -0.3502 -0.9738  0.1560
  126OSM   C18F13511   6.606   0.475   8.699 -0.0650 -0.4418 -0.0671
  126OSM   H18F13512   6.713   0.452   8.717  0.3221 -0.2337 -1.8920
  126OSM   H18G13513   6.542   0.454   8.787  0.7004  2.5209  1.3512
  126OSM   H18H13514   6.606   0.587   8.700  0.8339 -0.4261 -0.2971
  127OSM      N13515   5.478   1.796   6.056  0.3066 -0.1592 -0.0461
  127OSM    C1513516   5.468   1.654   6.002 -0.1122  1.0434 -0.4550
  127OSM   H15A13517   5.567   1.613   5.992 -0.6101  0.0449 -1.5722
  127OSM   H15B13518   5.416   1.656   5.907 -0.3743 -0.8300 -0.3859
  127OSM   H15C13519   5.418   1.604   6.084 -0.5500  1.0814 -0.6914
  127OSM    C1413520   5.576   1.873   5.963  0.2839  0.0707 -0.0533
  127OSM   H14A13521   5.677   1.833   5.961  0.1790 -0.2472  0.6198
  127OSM   H14B13522   5.599   1.965   6.015  2.4344  0.3097 -1.2919
  127OSM   H14C13523   5.524   1.894   5.871  0.8368  3.2822  0.2535
  127OSM    C1313524   5.350   1.860   6.042  0.0303 -0.3234 -0.3527
  127OSM   H13A13525   5.279   1.823   6.114  0.3516  1.3150  0.8511
  127OSM   H13B13526   5.319   1.836   5.941 -0.4690 -0.4767 -0.1613
  127OSM   H13C13527   5.365   1.967   6.052 -0.4087 -0.2463 -0.4974
  127OSM    C1213528   5.542   1.798   6.191  0.1184 -0.5770 -0.3773
  127OSM   H12A13529   5.565   1.899   6.222  3.2373 -1.2452 -0.2334
  127OSM   H12B13530   5.640   1.755   6.188  0.0350 -1.0943  2.0822
  127OSM    C1113531   5.460   1.726   6.306  0.3608 -0.8618 -1.1024
  127OSM   H11A13532   5.363   1.774   6.332  1.7426  1.0537  0.8880
  127OSM   H11B13533   5.522   1.730   6.398  2.9236 -1.3728 -2.7129
  127OSM      P13534   5.355   1.487   6.361  0.3375  0.2490  0.4205
  127OSM    O1313535   5.247   1.425   6.289  0.6167  0.2585  0.3652
  127OSM    O1413536   5.452   1.390   6.414 -0.8109  0.0436  0.1486
  127OSM    O1113537   5.293   1.572   6.479 -0.0568 -0.0652 -0.2861
  127OSM    O1213538   5.445   1.589   6.280  0.0005 -0.1714  0.2033
  127OSM    C1S13539   5.224   1.515   6.588  0.1963  0.1411  0.5270
  127OSM    H1S13540   5.210   1.406   6.575  1.5708 -0.2491  1.9360
  127OSM    H1T13541   5.115   1.539   6.590 -0.0087 -0.7749  0.8813
  127OSM     NF13542   5.226   1.450   6.831 -0.5731 -0.6935 -0.0913
  127OSM    HNF13543   5.172   1.496   6.901 -0.6085 -0.7005 -0.1141
  127OSM    C2S13544   5.290   1.534   6.731  0.2589  0.3193 -0.0710
  127OSM    H2S13545   5.394   1.494   6.728 -0.3907 -1.3923 -2.4631
  127OSM    C3S13546   5.289   1.685   6.763 -0.0073  0.4562 -0.1558
  127OSM    H3S13547   5.183   1.718   6.772  0.5506  2.1438  0.8736
  127OSM     O313548   5.332   1.777   6.659 -0.3738  0.1987 -0.4725
  127OSM    HO313549   5.341   1.710   6.591 -0.2941 -0.0020 -0.2618
  127OSM    C4S13550   5.348   1.721   6.893 -0.0294  0.3798  0.1149
  127OSM    H4S13551   5.280   1.724   6.980  1.0405 -1.0414  1.0559
  127OSM    C5S13552   5.476   1.748   6.911  0.0561  0.5232  0.2179
  127OSM    H5S13553   5.546   1.755   6.826 -0.7006  0.8705 -0.3858
  127OSM    C6S13554   5.530   1.788   7.051 -0.3612  0.6464  0.4044
  127OSM    H6S13555   5.591   1.881   7.046  0.5831  0.0760  0.9890
  127OSM    H6T13556   5.609   1.717   7.084  0.6542  1.9770  0.9492
  127OSM    C7S13557   5.430   1.800   7.169 -0.8107 -0.3283 -0.1695
  127OSM    H7S13558   5.388   1.701   7.198 -0.1279 -0.4686  0.3663
  127OSM    H7T13559   5.346   1.871   7.154 -1.4510 -0.5181  2.0939
  127OSM    C8S13560   5.508   1.851   7.296 -0.8111  0.4098  0.0592
  127OSM    H8S13561   5.534   1.950   7.254 -0.7806  0.0542 -0.7723
  127OSM    H8T13562   5.593   1.784   7.322 -0.2280  2.0977  2.9734
  127OSM    C9S13563   5.424   1.875   7.416  0.4505  0.3733 -0.1313
  127OSM    H9S13564   5.398   1.775   7.454  0.2396  0.5011  0.0624
  127OSM    H9T13565   5.328   1.919   7.382  1.5021  0.7904 -2.8973
  127OSM   C10S13566   5.484   1.977   7.515 -0.3385  0.0714 -0.5797
  127OSM   H10S13567   5.503   2.074   7.464  1.3446 -1.1490 -2.4641
  127OSM   H10T13568   5.577   1.931   7.554 -0.6013  1.0655  1.2916
  127OSM   C11S13569   5.395   1.991   7.644  0.3379 -0.2409 -0.4443
  127OSM   H11S13570   5.363   1.899   7.697 -1.3856  0.7591  0.3472
  127OSM   H11T13571   5.305   2.032   7.594 -0.3415 -1.1836 -0.0108
  127OSM   C12S13572   5.465   2.084   7.735 -0.0857 -0.2480 -0.6506
  127OSM   H12S13573   5.468   2.175   7.670 -1.0129  0.6871  0.5535
  127OSM   H12T13574   5.566   2.043   7.752  0.0529 -0.0184 -0.8987
  127OSM   C13S13575   5.379   2.126   7.859 -0.7174 -0.7490  0.7042
  127OSM   H13S13576   5.335   2.037   7.909 -1.8824 -0.3136  0.4588
  127OSM   H13T13577   5.292   2.187   7.830  1.2279  1.9617  0.1725
  127OSM   C14S13578   5.443   2.230   7.961  0.0329 -0.0380  0.2799
  127OSM   H14S13579   5.366   2.304   7.992  0.6209 -0.3416  2.6605
  127OSM   H14T13580   5.517   2.286   7.901 -0.7931  1.7660  0.8740
  127OSM   C15S13581   5.495   2.176   8.097  0.5727  0.0624  0.7208
  127OSM   H15S13582   5.420   2.099   8.125 -1.9742  1.8664 -0.6328
  127OSM   H15T13583   5.477   2.262   8.166 -1.7454 -0.5495  0.9504
  127OSM   C16S13584   5.635   2.119   8.099 -0.0150  1.1047  0.4315
  127OSM   H16S13585   5.643   2.051   8.011 -0.5901  0.3791  0.9336
  127OSM   H16T13586   5.638   2.060   8.193  2.0133  2.4635  1.2920
  127OSM   C17S13587   5.750   2.224   8.110 -0.8521  0.2271 -0.2161
  127OSM   H17S13588   5.717   2.306   8.044  1.4004  2.7073  1.5175
  127OSM   H17T13589   5.847   2.181   8.077 -0.6107  0.6021  0.0030
  127OSM   C18S13590   5.775   2.289   8.250  0.6114 -1.0164  0.1664
  127OSM   H18S13591   5.684   2.313   8.308  0.8455  2.1178 -0.6271
  127OSM   H18T13592   5.846   2.374   8.239 -1.0092  0.4109  0.4604
  127OSM   H18U13593   5.829   2.208   8.304 -0.6076 -1.3316  0.9446
  127OSM    C1F13594   5.211   1.316   6.820  0.5335 -0.4761 -0.0673
  127OSM     OF13595   5.261   1.248   6.732  0.3930 -0.6646 -0.3304
  127OSM    C2F13596   5.124   1.251   6.925  0.0917 -0.1878  0.3082
  127OSM    H2F13597   5.052   1.189   6.868  0.4734  0.6749 -1.1563
  127OSM    H2G13598   5.063   1.332   6.971  1.9589  0.0559  2.5554
  127OSM    C3F13599   5.208   1.168   7.020  0.2017  0.5429 -0.2812
  127OSM    H3F13600   5.261   1.082   6.972  0.2624  0.8119 -0.6977
  127OSM    H3G13601   5.153   1.114   7.101  1.6781 -1.8692 -0.7698
  127OSM    C4F13602   5.321   1.237   7.090 -0.2602 -1.2283  0.4334
  127OSM    H4F13603   5.388   1.283   7.015 -0.2546 -0.5669  0.8305
  127OSM    H4G13604   5.380   1.164   7.149  0.4215  0.0148  1.3241
  127OSM    C5F13605   5.278   1.356   7.180 -0.2489  0.5920 -0.6085
  127OSM    H5F13606   5.233   1.436   7.116 -3.2643 -2.1011 -2.1394
  127OSM    H5G13607   5.368   1.387   7.237 -0.8444 -1.3483  1.4967
  127OSM    C6F13608   5.164   1.321   7.278  0.1502  0.3176  0.2549
  127OSM    H6F13609   5.084   1.282   7.211 -0.2825 -0.7305  1.3511
  127OSM    H6G13610   5.121   1.413   7.321  0.8777 -0.2996  2.4326
  127OSM    C7F13611   5.205   1.217   7.384 -0.3550 -0.1649  0.3238
  127OSM    H7F13612   5.313   1.193   7.385  0.0288  1.2454  3.5267
  127OSM    H7G13613   5.152   1.120   7.370  1.9714 -1.2743 -1.4495
  127OSM    C8F13614   5.172   1.273   7.522  0.3520 -0.9983 -0.2136
  127OSM    H8F13615   5.062   1.290   7.526  0.2572  0.4411 -4.1923
  127OSM    H8G13616   5.222   1.371   7.536 -1.6052 -0.0597  0.6697
  127OSM    C9F13617   5.218   1.201   7.640  0.7293 -0.2132  0.3880
  127OSM    H9F13618   5.317   1.154   7.631  1.3683  1.0989  0.3422
  127OSM   C10F13619   5.163   1.169   7.759 -0.5483 -0.1055 -0.1896
  127OSM   H10F13620   5.228   1.132   7.840  0.3292  0.7556 -0.4809
  127OSM   C11F13621   5.034   1.215   7.827  0.2516 -0.4593 -0.3242
  127OSM   H11F13622   4.986   1.127   7.876 -2.1414 -0.3930 -2.3414
  127OSM   H11G13623   4.960   1.255   7.755 -1.0605  0.7593  1.6214
  127OSM   C12F13624   5.058   1.337   7.918  0.5778 -0.0421  0.9074
  127OSM   H12F13625   4.967   1.401   7.918  0.1197 -0.6456 -0.9210
  127OSM   H12G13626   5.130   1.412   7.880  1.0163  0.7231  3.0960
  127OSM   C13F13627   5.082   1.298   8.063 -0.3216 -0.0268 -0.8430
  127OSM   H13F13628   5.138   1.386   8.100 -1.1091  1.2198 -2.4792
  127OSM   H13G13629   5.146   1.212   8.092 -0.6172 -0.4242 -1.3510
  127OSM   C14F13630   4.956   1.291   8.156 -0.5325 -0.1797 -0.3384
  127OSM   H14F13631   4.877   1.217   8.130 -1.2336 -0.1811  1.6280
  127OSM   H14G13632   4.912   1.393   8.151  0.1276  0.0851 -0.9996
  127OSM   C15F13633   5.010   1.261   8.299  0.2134 -0.0185  0.5143
  127OSM   H15F13634   5.075   1.349   8.321 -0.1580  0.3778  0.0683
  127OSM   H15G13635   5.072   1.169   8.305 -0.9822 -0.7633  2.0511
  127OSM   C16F13636   4.897   1.250   8.403  0.3321 -0.9411 -0.1408
  127OSM   H16F13637   4.815   1.180   8.375 -0.0295 -0.8158  0.5800
  127OSM   H16G13638   4.853   1.351   8.389  1.4479 -0.3908  0.2005
  127OSM   C17F13639   4.947   1.235   8.546 -0.3959  0.2552  0.0848
  127OSM   H17F13640   5.041   1.292   8.559 -0.5907  0.4589  0.6322
  127OSM   H17G13641   4.976   1.130   8.568  0.8291  0.5754  0.0367
  127OSM   C18F13642   4.846   1.283   8.653 -0.5032 -0.8928 -0.0100
  127OSM   H18F13643   4.844   1.393   8.640  0.3781 -0.8093  0.4942
  127OSM   H18G13644   4.885   1.251   8.752  0.8477 -2.1671 -0.9037
  127OSM   H18H13645   4.739   1.256   8.639 -1.2032  0.4153  2.2687
  128OSM      N13646   4.993   4.998   6.137 -0.3525 -0.8869  0.1058
  128OSM    C1513647   4.977   4.965   5.988  0.2999 -0.1546 -0.1952
  128OSM   H15A13648   5.069   4.921   5.954  1.1179 -0.1756  1.9619
  128OSM   H15B13649   4.958   5.056   5.933 -0.1747  0.5684  1.1160
  128OSM   H15C13650   4.904   4.887   5.974  0.7576 -0.7277  0.5704
  128OSM    C1413651   5.086   4.895   6.199  0.3016 -0.8074  0.7565
  128OSM   H14A13652   5.174   4.892   6.137 -1.2403 -1.3841 -1.5188
  128OSM   H14B13653   5.037   4.799   6.201 -1.2506 -0.0584  0.0092
  128OSM   H14C13654   5.110   4.927   6.299  0.4052 -0.1419  0.5249
  128OSM    C1313655   5.044   5.130   6.160 -0.5580 -0.1239 -0.3754
  128OSM   H13A13656   5.152   5.128   6.148 -0.3758 -0.1543  1.1255
  128OSM   H13B13657   5.022   5.149   6.263 -0.0907 -0.4125 -0.2182
  128OSM   H13C13658   4.989   5.203   6.102 -0.8552  1.0469  1.3103
  128OSM    C1213659   4.850   4.984   6.190 -0.2936  0.7573 -0.1386
  128OSM   H12A13660   4.831   4.877   6.189  3.3413 -0.0293  0.6101
  128OSM   H12B13661   4.788   5.033   6.117 -1.6983  0.0774  0.5612
  128OSM    C1113662   4.821   5.042   6.332 -0.8020  0.5254  0.0427
  128OSM   H11A13663   4.884   4.995   6.410 -0.7765  0.4573 -0.0195
  128OSM   H11B13664   4.717   5.018   6.365 -0.1733  1.2002  2.6939
  128OSM      P13665   4.736   5.283   6.277  0.0452  0.3990  0.2198
  128OSM    O1313666   4.810   5.409   6.257 -0.0727 -0.3418 -0.5558
  128OSM    O1413667   4.666   5.221   6.162  0.0934 -0.0886 -0.1689
  128OSM    O1113668   4.635   5.307   6.393 -0.2814  0.5502 -0.2192
  128OSM    O1213669   4.834   5.178   6.343 -0.0878 -0.0046 -0.2959
  128OSM    C1S13670   4.668   5.272   6.530  0.1918 -0.3906 -0.0332
  128OSM    H1S13671   4.777   5.273   6.552 -0.3145 -0.7414  2.9639
  128OSM    H1T13672   4.639   5.166   6.548  1.6645 -0.5328  1.7927
  128OSM     NF13673   4.645   5.305   6.780 -0.3560 -0.6103  0.1649
  128OSM    HNF13674   4.578   5.243   6.819  0.4017 -0.9355  0.9845
  128OSM    C2S13675   4.612   5.365   6.650 -0.4467  0.5097  0.1783
  128OSM    H2S13676   4.656   5.465   6.629  0.0783 -0.2980 -3.0505
  128OSM    C3S13677   4.459   5.388   6.637  0.9762  0.0931 -0.1803
  128OSM    H3S13678   4.396   5.304   6.673  1.5729  0.2804  1.4049
  128OSM     O313679   4.426   5.418   6.510  0.1229  0.2041  0.1169
  128OSM    HO313680   4.503   5.386   6.463  2.8443  1.0021  3.6014
  128OSM    C4S13681   4.415   5.506   6.724  1.0267 -0.0062  0.1986
  128OSM    H4S13682   4.481   5.592   6.708  0.8804 -0.4564 -3.9270
  128OSM    C5S13683   4.315   5.499   6.814 -0.1041  0.2369 -0.3093
  128OSM    H5S13684   4.265   5.405   6.842  4.4031 -2.1965  0.5899
  128OSM    C6S13685   4.270   5.615   6.900  0.0393  0.2269  0.5126
  128OSM    H6S13686   4.248   5.582   7.005  2.6331 -0.1225  0.9989
  128OSM    H6T13687   4.179   5.657   6.853 -0.1950 -1.5629 -0.7493
  128OSM    C7S13688   4.373   5.730   6.915  0.5811  0.2110  0.1562
  128OSM    H7S13689   4.426   5.752   6.820  0.5655 -0.1745  0.0576
  128OSM    H7T13690   4.462   5.691   6.969  0.0857 -0.5372  0.4521
  128OSM    C8S13691   4.322   5.856   6.983  0.0902  0.0241  0.0523
  128OSM    H8S13692   4.237   5.900   6.926  1.3987  1.5379 -0.8305
  128OSM    H8T13693   4.397   5.938   6.973 -0.6176  0.4059 -3.1641
  128OSM    C9S13694   4.265   5.838   7.127  0.3002 -0.5643 -0.0762
  128OSM    H9S13695   4.187   5.759   7.125 -2.8323  2.3208 -2.7215
  128OSM    H9T13696   4.209   5.931   7.148 -2.2144 -1.8873 -0.4994
  128OSM   C10S13697   4.376   5.826   7.239  0.5978  0.5212 -0.0256
  128OSM   H10S13698   4.444   5.914   7.228  0.1184  1.1666  1.8503
  128OSM   H10T13699   4.428   5.728   7.235 -1.3599 -0.6099  0.9365
  128OSM   C11S13700   4.323   5.845   7.386  0.1918  0.0029  0.6366
  128OSM   H11S13701   4.251   5.761   7.398  1.6909 -1.0338  3.1578
  128OSM   H11T13702   4.267   5.941   7.384 -0.8042 -0.4999  2.6251
  128OSM   C12S13703   4.439   5.856   7.477 -0.4066 -0.2851  0.5761
  128OSM   H12S13704   4.502   5.943   7.447 -0.8939 -0.6684 -1.7725
  128OSM   H12T13705   4.486   5.757   7.495 -0.4445 -0.0353  2.1534
  128OSM   C13S13706   4.394   5.893   7.623  0.2152 -0.2136 -0.3995
  128OSM   H13S13707   4.327   5.813   7.661 -2.2565  0.7002 -2.5361
  128OSM   H13T13708   4.333   5.986   7.618  1.3210  0.5059 -0.9065
  128OSM   C14S13709   4.516   5.920   7.720  0.7446 -0.3000 -0.0279
  128OSM   H14S13710   4.572   6.009   7.685 -0.4426  1.1171  1.5162
  128OSM   H14T13711   4.580   5.829   7.723  0.5701 -0.4056  1.2814
  128OSM   C15S13712   4.464   5.961   7.855  0.1474  0.0122  0.0846
  128OSM   H15S13713   4.377   6.029   7.854 -0.4528 -0.6438 -2.7779
  128OSM   H15T13714   4.549   6.016   7.901  1.4201 -1.4978 -0.3396
  128OSM   C16S13715   4.430   5.842   7.948  0.4097 -0.1164 -0.6795
  128OSM   H16S13716   4.519   5.776   7.948  0.7548  0.3386 -0.0059
  128OSM   H16T13717   4.353   5.772   7.909  1.4518 -0.7601 -1.6429
  128OSM   C17S13718   4.384   5.878   8.089  1.0481 -0.0051  0.0445
  128OSM   H17S13719   4.281   5.918   8.085  0.9723 -0.3266 -1.5553
  128OSM   H17T13720   4.448   5.957   8.135 -0.4142  0.0256  2.1426
  128OSM   C18S13721   4.377   5.761   8.189 -0.1737  0.6291  0.4255
  128OSM   H18S13722   4.342   5.666   8.143 -0.0518  0.5973  0.3975
  128OSM   H18T13723   4.335   5.786   8.289 -0.2967  1.5091  0.1598
  128OSM   H18U13724   4.485   5.739   8.206  0.2640  0.8661 -1.7789
  128OSM    C1F13725   4.763   5.312   6.831 -0.3302 -0.1839  0.8999
  128OSM     OF13726   4.855   5.361   6.766  0.2745 -0.5416 -0.0530
  128OSM    C2F13727   4.782   5.241   6.962  0.0537 -0.1835 -0.3766
  128OSM    H2F13728   4.691   5.177   6.970 -0.5492  0.7651  0.6498
  128OSM    H2G13729   4.787   5.302   7.054 -0.6018 -1.9164  0.8642
  128OSM    C3F13730   4.901   5.161   6.946 -0.3100 -0.6061 -0.6105
  128OSM    H3F13731   4.984   5.231   6.922 -0.9137 -0.1230 -1.3392
  128OSM    H3G13732   4.889   5.090   6.861  0.4643 -1.5246  0.0305
  128OSM    C4F13733   4.938   5.077   7.071  0.1647  0.2629 -0.0522
  128OSM    H4F13734   5.019   5.004   7.049 -0.3412 -0.7329  1.2740
  128OSM    H4G13735   4.850   5.022   7.110  0.2623  0.8340  1.0130
  128OSM    C5F13736   4.987   5.171   7.191  0.0244 -0.0874  0.3971
  128OSM    H5F13737   4.924   5.260   7.211  1.4331  0.9888  0.1488
  128OSM    H5G13738   5.083   5.218   7.162 -0.6498 -0.0076 -1.9206
  128OSM    C6F13739   5.004   5.099   7.322 -0.1843 -0.2222 -0.0003
  128OSM    H6F13740   5.050   4.999   7.306  2.0715  1.2202 -3.8821
  128OSM    H6G13741   4.903   5.078   7.363  0.0279  2.9364  2.5022
  128OSM    C7F13742   5.090   5.165   7.421  0.8802 -0.2372  0.8761
  128OSM    H7F13743   5.054   5.267   7.445 -3.3815 -1.0823 -1.0493
  128OSM    H7G13744   5.192   5.173   7.380 -0.1660 -0.4751 -1.9803
  128OSM    C8F13745   5.098   5.077   7.551  0.2441 -0.3863 -0.2670
  128OSM    H8F13746   5.194   5.098   7.602 -0.0732  0.4982 -0.0177
  128OSM    H8G13747   5.115   4.972   7.519  2.2225 -0.8454  2.0223
  128OSM    C9F13748   4.979   5.084   7.649  0.1287  0.1048  0.6977
  128OSM    H9F13749   4.884   5.108   7.600  1.4767  3.0955 -0.6570
  128OSM   C10F13750   5.001   5.094   7.785  0.7014 -0.1663 -0.2519
  128OSM   H10F13751   4.918   5.114   7.854 -0.9489 -1.7346 -1.6947
  128OSM   C11F13752   5.135   5.089   7.856  0.4572  0.4746 -0.6198
  128OSM   H11F13753   5.211   5.028   7.803  1.1405  0.8036 -0.0360
  128OSM   H11G13754   5.122   5.041   7.956 -2.0207 -1.5496 -1.8022
  128OSM   C12F13755   5.197   5.234   7.889 -0.5198 -0.1229 -0.6123
  128OSM   H12F13756   5.216   5.289   7.794 -3.1889  1.4553 -0.3247
  128OSM   H12G13757   5.299   5.231   7.935 -0.0998  1.7522 -1.3424
  128OSM   C13F13758   5.107   5.327   7.974 -0.1195 -0.0927 -0.5753
  128OSM   H13F13759   5.010   5.339   7.923 -0.3963  1.2476  0.2285
  128OSM   H13G13760   5.160   5.424   7.974 -2.9455  1.5549 -1.0428
  128OSM   C14F13761   5.097   5.283   8.124  0.2475 -0.0571  0.2852
  128OSM   H14F13762   5.047   5.185   8.136  1.3916 -0.6463  0.3344
  128OSM   H14G13763   5.025   5.354   8.170  1.2337  0.0956  1.6394
  128OSM   C15F13764   5.216   5.290   8.211 -0.2203 -0.3669  0.0943
  128OSM   H15F13765   5.265   5.389   8.201 -0.5248  0.4179  4.3882
  128OSM   H15G13766   5.290   5.213   8.180  1.3594  1.4991 -0.9943
  128OSM   C16F13767   5.184   5.254   8.355 -0.3698  0.2470  0.2571
  128OSM   H16F13768   5.276   5.254   8.418  0.7165  0.3917 -1.2936
  128OSM   H16G13769   5.141   5.152   8.359  1.9836 -0.7976  0.8892
  128OSM   C17F13770   5.093   5.360   8.419  0.2077 -0.0047 -0.8274
  128OSM   H17F13771   4.985   5.346   8.396 -0.2005  2.9125 -1.0506
  128OSM   H17G13772   5.127   5.459   8.382  0.9714  0.5502  1.2287
  128OSM   C18F13773   5.101   5.365   8.582  0.3667  0.3198  0.0312
  128OSM   H18F13774   5.152   5.457   8.619 -2.2912  1.6441  0.6836
  128OSM   H18G13775   5.159   5.280   8.623  1.1231  2.2129  3.2820
  128OSM   H18H13776   4.997   5.374   8.619  0.2739  0.5238 -0.2807
  129OSM      N13777   3.179   1.430   6.130  0.2268 -0.3572  0.4011
  129OSM    C1513778   3.131   1.570   6.137  0.4384 -0.0169  0.2132
  129OSM   H15A13779   3.152   1.620   6.230  0.5794  0.3728 -0.0244
  129OSM   H15B13780   3.027   1.575   6.110  0.5844 -1.1103 -0.6588
  129OSM   H15C13781   3.178   1.634   6.064 -0.1619  0.7290  0.4703
  129OSM    C1413782   3.165   1.375   5.995 -0.0203 -0.1769  0.8657
  129OSM   H14A13783   3.062   1.382   5.964 -0.1860 -2.2733  0.8236
  129OSM   H14B13784   3.204   1.275   5.985  0.8548  0.1689  0.6696
  129OSM   H14C13785   3.221   1.429   5.920 -0.5236 -1.7302 -0.6835
  129OSM    C1313786   3.314   1.424   6.181 -0.2827  0.4071  0.2954
  129OSM   H13A13787   3.320   1.450   6.286  0.5133  1.5167 -0.0097
  129OSM   H13B13788   3.381   1.486   6.124  1.3557  0.3817  2.1120
  129OSM   H13C13789   3.358   1.327   6.166  0.9608  1.1856 -1.4859
  129OSM    C1213790   3.084   1.354   6.222  0.5279 -0.2586 -0.5957
  129OSM   H12A13791   2.985   1.363   6.182  0.2046 -1.1715 -0.0421
  129OSM   H12B13792   3.071   1.400   6.318 -0.5618 -0.7659 -0.4872
  129OSM    C1113793   3.114   1.201   6.249  0.6719 -0.6025  0.2301
  129OSM   H11A13794   3.073   1.172   6.348  1.0427 -0.9132  0.2937
  129OSM   H11B13795   3.225   1.198   6.243  0.8576  3.1588 -4.3807
  129OSM      P13796   2.911   1.100   6.114  0.1528 -0.0768 -0.3016
  129OSM    O1313797   2.850   1.193   6.009 -0.4166  0.3238  0.0889
  129OSM    O1413798   2.908   0.955   6.083 -0.2136  0.4075  0.2501
  129OSM    O1113799   2.831   1.128   6.249 -0.1581 -0.3311  0.1060
  129OSM    O1213800   3.060   1.135   6.139 -0.4426  0.3975 -0.3801
  129OSM    C1S13801   2.824   1.023   6.342 -0.0897 -0.1757 -0.1666
  129OSM    H1S13802   2.926   0.978   6.350 -0.6585 -1.8640 -1.8594
  129OSM    H1T13803   2.759   0.942   6.302  0.6108  0.4214 -2.6793
  129OSM     NF13804   2.787   0.970   6.579  0.3527  0.2964  0.5271
  129OSM    HNF13805   2.702   0.935   6.617  1.3651 -1.9145  0.9067
  129OSM    C2S13806   2.780   1.079   6.479 -0.3519 -0.0807 -0.2941
  129OSM    H2S13807   2.858   1.153   6.508  1.2838 -1.8930  0.1836
  129OSM    C3S13808   2.634   1.137   6.474 -0.6008 -0.0639  0.6455
  129OSM    H3S13809   2.571   1.046   6.480  0.1554 -0.5402  1.7208
  129OSM     O313810   2.594   1.198   6.354 -0.0302  0.0119 -0.1206
  129OSM    HO313811   2.662   1.188   6.287 -0.5970 -0.5025 -0.6308
  129OSM    C4S13812   2.596   1.219   6.592 -0.5968  0.1527 -0.2110
  129OSM    H4S13813   2.538   1.163   6.667  1.3267 -3.7500 -1.3890
  129OSM    C5S13814   2.614   1.354   6.614 -0.0540  0.5112 -0.0029
  129OSM    H5S13815   2.659   1.412   6.532 -0.0164  1.3062  0.5673
  129OSM    C6S13816   2.546   1.418   6.739  0.2369 -0.7166  0.0686
  129OSM    H6S13817   2.440   1.386   6.747 -0.7460  2.0663 -0.7079
  129OSM    H6T13818   2.540   1.529   6.732  1.8503 -0.5019  1.5303
  129OSM    C7S13819   2.618   1.394   6.870  0.5218 -0.2981 -0.2132
  129OSM    H7S13820   2.725   1.419   6.862  0.3654  0.0734 -1.4822
  129OSM    H7T13821   2.615   1.287   6.899  1.0708  0.6572  3.9774
  129OSM    C8S13822   2.564   1.470   6.992 -0.4166 -0.6042  0.3013
  129OSM    H8S13823   2.462   1.436   7.018 -0.8401 -0.3185 -0.9261
  129OSM    H8T13824   2.555   1.578   6.969 -2.4010 -0.4635  1.5548
  129OSM    C9S13825   2.659   1.480   7.115  0.5341  0.1409  0.2875
  129OSM    H9S13826   2.745   1.545   7.089 -2.3852  3.6136 -1.4785
  129OSM    H9T13827   2.696   1.376   7.126 -0.1616  0.1109  3.1548
  129OSM   C10S13828   2.581   1.528   7.236 -0.3485  0.6531  0.0828
  129OSM   H10S13829   2.494   1.460   7.249 -0.1847  0.6467  1.3627
  129OSM   H10T13830   2.544   1.629   7.212  0.5669  0.8013 -0.7716
  129OSM   C11S13831   2.663   1.533   7.367  0.4532  0.4664  0.2500
  129OSM   H11S13832   2.752   1.594   7.340  0.6676 -0.4056 -1.1498
  129OSM   H11T13833   2.694   1.428   7.386  0.6024  0.1121 -1.7041
  129OSM   C12S13834   2.590   1.586   7.495 -0.5474  0.4229 -0.1462
  129OSM   H12S13835   2.495   1.532   7.514 -1.0093  0.8765 -1.0779
  129OSM   H12T13836   2.574   1.695   7.479  1.4543  0.4364 -2.9782
  129OSM   C13S13837   2.677   1.569   7.624 -0.7917  0.2644 -0.4483
  129OSM   H13S13838   2.775   1.620   7.623 -0.2239 -0.8103 -1.4755
  129OSM   H13T13839   2.714   1.464   7.631  1.6665  1.0905 -0.2334
  129OSM   C14S13840   2.596   1.617   7.747  0.8204 -0.2529  0.1241
  129OSM   H14S13841   2.501   1.560   7.748  0.5657  0.1488  1.4492
  129OSM   H14T13842   2.579   1.727   7.748 -1.7986 -0.5965  1.6377
  129OSM   C15S13843   2.653   1.597   7.887  0.5503  0.2611 -0.1794
  129OSM   H15S13844   2.743   1.660   7.901 -0.4443  1.4517  1.2251
  129OSM   H15T13845   2.690   1.493   7.898 -1.3195 -0.5137 -0.6963
  129OSM   C16S13846   2.555   1.621   8.004 -0.6212 -0.0104 -0.2001
  129OSM   H16S13847   2.500   1.526   8.021  1.0800 -1.2498 -1.1969
  129OSM   H16T13848   2.481   1.700   7.980 -1.3724 -1.0559 -1.4341
  129OSM   C17S13849   2.633   1.669   8.139  0.1517 -0.5728  0.0892
  129OSM   H17S13850   2.676   1.769   8.120 -1.2112 -0.5730 -4.1766
  129OSM   H17T13851   2.714   1.596   8.160 -1.0078 -1.9744 -0.1478
  129OSM   C18S13852   2.541   1.676   8.262  0.6669  0.0750 -0.8730
  129OSM   H18S13853   2.466   1.757   8.250  0.5916  0.3825  1.3419
  129OSM   H18T13854   2.590   1.699   8.359 -1.5771 -0.3188  0.4261
  129OSM   H18U13855   2.479   1.585   8.273 -1.6153  1.3384 -2.4414
  129OSM    C1F13856   2.901   0.917   6.623  0.4181 -0.9068  0.3038
  129OSM     OF13857   3.007   0.962   6.582 -0.1073  0.2228  0.0141
  129OSM    C2F13858   2.898   0.801   6.706 -0.1303  0.0230 -0.0532
  129OSM    H2F13859   2.926   0.707   6.654 -1.4237  0.0347 -0.8055
  129OSM    H2G13860   2.794   0.790   6.744  0.6024 -2.2158  1.5040
  129OSM    C3F13861   2.989   0.816   6.834 -0.2704 -0.1450 -0.1941
  129OSM    H3F13862   2.972   0.904   6.899  1.3359 -0.1965  0.3554
  129OSM    H3G13863   3.093   0.825   6.796  0.4662 -0.1545  1.7195
  129OSM    C4F13864   2.995   0.698   6.933  0.0431  0.5102 -0.5362
  129OSM    H4F13865   3.088   0.708   6.993  0.3317  0.5279 -0.9885
  129OSM    H4G13866   2.995   0.599   6.883 -1.5785  0.3394 -0.2664
  129OSM    C5F13867   2.877   0.702   7.034  0.4137 -0.2227  0.1826
  129OSM    H5F13868   2.779   0.689   6.983  0.4961  0.7596 -0.2522
  129OSM    H5G13869   2.871   0.804   7.079 -0.3523  0.1610 -0.7525
  129OSM    C6F13870   2.887   0.596   7.141 -0.1169  1.2839  0.4890
  129OSM    H6F13871   2.997   0.597   7.159 -0.1168  2.8660  0.4955
  129OSM    H6G13872   2.863   0.494   7.103 -0.1447  0.6189  2.1766
  129OSM    C7F13873   2.806   0.635   7.267  0.2149  0.5000  0.0528
  129OSM    H7F13874   2.790   0.545   7.329  0.9340 -0.7000 -1.4306
  129OSM    H7G13875   2.711   0.675   7.226  0.8529  2.2222  0.1666
  129OSM    C8F13876   2.872   0.747   7.354 -0.3630 -0.3391  1.1545
  129OSM    H8F13877   2.801   0.757   7.438 -0.3543 -0.5154  1.1826
  129OSM    H8G13878   2.863   0.842   7.296 -0.0593 -1.5828 -1.0601
  129OSM    C9F13879   3.014   0.719   7.396 -0.3119 -0.0581  0.0105
  129OSM    H9F13880   3.088   0.716   7.315 -2.0625 -0.2956 -1.6620
  129OSM   C10F13881   3.065   0.702   7.522  0.1458 -0.0107 -0.1472
  129OSM   H10F13882   3.174   0.688   7.529  0.5671  2.8097  0.0504
  129OSM   C11F13883   2.996   0.706   7.653  0.2027  0.0931 -0.4447
  129OSM   H11F13884   2.954   0.605   7.672 -0.5147  0.6229  0.9484
  129OSM   H11G13885   2.911   0.777   7.643 -1.1281 -1.2530  0.7991
  129OSM   C12F13886   3.096   0.751   7.762  0.3035  0.1388  0.3605
  129OSM   H12F13887   3.155   0.839   7.729 -0.4984  0.3331 -0.6117
  129OSM   H12G13888   3.162   0.664   7.781 -1.5289 -1.5180 -0.4376
  129OSM   C13F13889   3.028   0.802   7.892 -0.1825  0.0833  0.1799
  129OSM   H13F13890   2.968   0.723   7.943 -0.7070  1.2390  1.4194
  129OSM   H13G13891   2.953   0.877   7.857  0.3502  0.4257 -0.2344
  129OSM   C14F13892   3.115   0.891   7.977 -0.3383  0.3042 -0.0080
  129OSM   H14F13893   3.151   0.983   7.925  0.4218 -0.3767 -0.7244
  129OSM   H14G13894   3.209   0.833   7.987 -1.0183 -0.8242  0.0321
  129OSM   C15F13895   3.061   0.943   8.109 -0.6436  0.4067  0.4425
  129OSM   H15F13896   2.954   0.963   8.086 -0.2918 -0.3340 -2.1491
  129OSM   H15G13897   3.114   1.036   8.139 -0.9454 -0.0306  2.4987
  129OSM   C16F13898   3.082   0.847   8.220 -0.6997 -0.0912  0.0825
  129OSM   H16F13899   3.187   0.816   8.242 -0.5215 -1.3305 -2.1618
  129OSM   H16G13900   3.036   0.754   8.181  1.0298 -0.8359 -0.2916
  129OSM   C17F13901   3.027   0.890   8.351 -0.2073  0.5411  0.0389
  129OSM   H17F13902   2.919   0.912   8.334 -0.3969 -1.2136 -1.3560
  129OSM   H17G13903   3.074   0.990   8.367 -1.3837  1.4032 -1.5851
  129OSM   C18F13904   3.064   0.793   8.461  0.0456  0.0162  0.0659
  129OSM   H18F13905   3.027   0.690   8.442 -1.1286  0.2364  1.0435
  129OSM   H18G13906   3.013   0.824   8.555 -1.6993  0.6079 -1.0103
  129OSM   H18H13907   3.173   0.790   8.480 -0.2838  0.7712  2.3538
  130OSM      N13908   3.384   4.051   6.467  0.4799  0.5014  0.0047
  130OSM    C1513909   3.356   3.923   6.398  0.0067 -0.1910  0.1827
  130OSM   H15A13910   3.338   3.864   6.486  1.7151  0.6813  1.1801
  130OSM   H15B13911   3.436   3.893   6.332 -0.9053  0.6444 -1.3557
  130OSM   H15C13912   3.267   3.934   6.337  0.1643  1.6416  0.2224
  130OSM    C1413913   3.261   4.099   6.531  0.2158 -1.0464  0.2414
  130OSM   H14A13914   3.238   4.034   6.614  1.2971 -2.2446 -0.3598
  130OSM   H14B13915   3.183   4.099   6.456 -0.7230  0.1612  1.1883
  130OSM   H14C13916   3.272   4.201   6.564  1.3188 -0.5323 -1.6223
  130OSM    C1313917   3.493   4.026   6.563  0.6792  0.3487 -0.1999
  130OSM   H13A13918   3.576   3.982   6.511 -1.0583 -1.1506 -1.8689
  130OSM   H13B13919   3.472   3.951   6.638  0.2045  1.1604  0.4970
  130OSM   H13C13920   3.515   4.113   6.624 -0.7374  0.0219  0.8539
  130OSM    C1213921   3.427   4.161   6.369  0.3350 -0.0383 -0.3001
  130OSM   H12A13922   3.454   4.247   6.429  0.9505 -1.3136  1.3502
  130OSM   H12B13923   3.341   4.188   6.310 -0.1727  0.4715  0.6549
  130OSM    C1113924   3.556   4.132   6.285 -0.0524 -0.5311 -0.7009
  130OSM   H11A13925   3.521   4.106   6.183 -2.8877  2.0746 -0.5541
  130OSM   H11B13926   3.601   4.042   6.330  0.8277  1.9222  3.9594
  130OSM      P13927   3.760   4.264   6.389 -0.1657  0.3108  0.5408
  130OSM    O1313928   3.854   4.154   6.361  0.8819 -0.3850  0.4138
  130OSM    O1413929   3.808   4.403   6.373  0.1766 -0.5531  0.5750
  130OSM    O1113930   3.705   4.250   6.539  0.5463 -0.1414 -0.2181
  130OSM    O1213931   3.636   4.244   6.298  0.3734 -0.5493 -0.5520
  130OSM    C1S13932   3.621   4.334   6.608  0.4938  0.0164 -0.3691
  130OSM    H1S13933   3.512   4.337   6.583 -0.5229  0.2320  3.4352
  130OSM    H1T13934   3.657   4.439   6.601 -0.7047  0.7234  2.3977
  130OSM     NF13935   3.536   4.394   6.843 -0.0745  0.6622  0.0171
  130OSM    HNF13936   3.566   4.478   6.887  1.1152 -0.0621  0.6401
  130OSM    C2S13937   3.633   4.322   6.765 -0.1536 -0.1663  0.3224
  130OSM    H2S13938   3.623   4.212   6.779 -2.1338  0.1328  1.7845
  130OSM    C3S13939   3.781   4.350   6.817  0.7263 -0.7363  0.2229
  130OSM    H3S13940   3.815   4.451   6.786  0.1720 -0.4394  0.5677
  130OSM     O313941   3.877   4.261   6.769  0.0907  0.1136  0.2508
  130OSM    HO313942   3.832   4.205   6.705  0.2365  0.5038 -0.1941
  130OSM    C4S13943   3.776   4.340   6.967 -0.0273 -0.4974 -0.1141
  130OSM    H4S13944   3.738   4.245   7.005  0.5450 -0.5547  0.3252
  130OSM    C5S13945   3.809   4.442   7.048  0.3009  0.8426  0.1200
  130OSM    H5S13946   3.835   4.537   6.999  0.3995  2.4001  2.9877
  130OSM    C6S13947   3.792   4.441   7.200 -0.5347 -0.2062  0.5152
  130OSM    H6S13948   3.731   4.527   7.234 -1.3720 -0.9789  1.0132
  130OSM    H6T13949   3.897   4.448   7.237 -0.8176  0.7382  1.1431
  130OSM    C7S13950   3.716   4.317   7.254 -0.0844  0.2419 -0.4124
  130OSM    H7S13951   3.760   4.226   7.207 -0.8360  0.6952 -2.0570
  130OSM    H7T13952   3.612   4.315   7.216  0.2398  1.9087 -1.4892
  130OSM    C8S13953   3.715   4.300   7.411 -0.4454  0.5518  0.4881
  130OSM    H8S13954   3.822   4.285   7.436 -0.3289 -0.6042 -0.5941
  130OSM    H8T13955   3.657   4.208   7.434 -0.5188  0.0159 -1.6660
  130OSM    C9S13956   3.661   4.423   7.485  0.1790 -0.0314  0.2131
  130OSM    H9S13957   3.557   4.426   7.448  1.0202  0.1062 -2.3278
  130OSM    H9T13958   3.714   4.519   7.465 -1.8904  1.8113  2.8773
  130OSM   C10S13959   3.673   4.410   7.638  0.1376  0.0700 -0.0778
  130OSM   H10S13960   3.700   4.507   7.686  1.9090 -0.2694 -0.2997
  130OSM   H10T13961   3.756   4.343   7.669 -0.0590  0.1428  0.6168
  130OSM   C11S13962   3.552   4.355   7.704 -0.1150 -0.2720  0.0853
  130OSM   H11S13963   3.540   4.251   7.668  0.4618 -0.3238  0.0295
  130OSM   H11T13964   3.462   4.417   7.685 -0.2931  0.3463  2.5746
  130OSM   C12S13965   3.566   4.352   7.855 -0.5950 -0.2688 -0.6464
  130OSM   H12S13966   3.584   4.455   7.891 -0.1051 -0.9740  1.2994
  130OSM   H12T13967   3.657   4.304   7.898 -0.6567  1.9719  2.2516
  130OSM   C13S13968   3.440   4.292   7.922 -0.1694 -0.0628 -0.4897
  130OSM   H13S13969   3.439   4.185   7.893  0.9456 -0.2138 -0.0451
  130OSM   H13T13970   3.363   4.362   7.883 -2.0983 -1.1105  1.2352
  130OSM   C14S13971   3.434   4.310   8.069  0.1478  0.4162 -0.5047
  130OSM   H14S13972   3.341   4.264   8.109  0.9895 -1.2982 -0.4381
  130OSM   H14T13973   3.439   4.415   8.104  2.0042 -0.5410  2.6010
  130OSM   C15S13974   3.548   4.237   8.145  1.2452  0.2439  0.5144
  130OSM   H15S13975   3.654   4.261   8.124  1.3531  2.3590  2.9627
  130OSM   H15T13976   3.541   4.127   8.128 -1.3277  0.3159  0.7905
  130OSM   C16S13977   3.539   4.269   8.294 -0.2354 -0.0131  0.5551
  130OSM   H16S13978   3.531   4.379   8.307 -0.1031 -0.0886  1.3461
  130OSM   H16T13979   3.629   4.239   8.351  0.8007  3.0432  0.7138
  130OSM   C17S13980   3.421   4.202   8.357  0.3365 -0.0065  0.3899
  130OSM   H17S13981   3.436   4.094   8.340 -2.3279 -0.0865 -2.2425
  130OSM   H17T13982   3.324   4.217   8.304 -0.1686  1.2605  1.5931
  130OSM   C18S13983   3.399   4.241   8.504  0.3105  0.0945 -0.3332
  130OSM   H18S13984   3.489   4.215   8.565  0.2299 -1.6586 -0.9091
  130OSM   H18T13985   3.308   4.204   8.556 -0.4384  2.7706  0.4337
  130OSM   H18U13986   3.387   4.351   8.513 -1.6600 -0.1466  0.4299
  130OSM    C1F13987   3.408   4.359   6.832 -0.3644  0.4589  0.1071
  130OSM     OF13988   3.383   4.253   6.776  0.4157  0.3334  0.2917
  130OSM    C2F13989   3.297   4.447   6.876 -0.3727 -0.9592  0.8831
  130OSM    H2F13990   3.203   4.410   6.832  0.5973 -0.4918 -1.7657
  130OSM    H2G13991   3.322   4.548   6.837 -1.8442 -1.0268 -0.2834
  130OSM    C3F13992   3.293   4.465   7.030 -0.5638 -0.3819  0.4929
  130OSM    H3F13993   3.394   4.490   7.068 -1.2398  1.4845  1.1523
  130OSM    H3G13994   3.254   4.375   7.083  0.2233 -0.8067  0.3697
  130OSM    C4F13995   3.210   4.585   7.094  0.0178  0.5091 -0.3871
  130OSM    H4F13996   3.102   4.558   7.083 -0.1669  1.4423 -0.9212
  130OSM    H4G13997   3.223   4.677   7.034  0.9974 -0.8495 -2.3575
  130OSM    C5F13998   3.238   4.606   7.248 -0.2881  0.9451  0.2258
  130OSM    H5F13999   3.151   4.659   7.291 -0.3212  0.4010  0.8394
  130OSM    H5G14000   3.336   4.654   7.270  0.5093  0.9242 -2.7884
  130OSM    C6F14001   3.243   4.475   7.338 -1.2744  0.3195 -0.2021
  130OSM    H6F14002   3.326   4.411   7.303 -0.9041  1.2745 -1.1347
  130OSM    H6G14003   3.153   4.414   7.319 -1.9933  1.6993 -1.4719
  130OSM    C7F14004   3.252   4.512   7.487 -0.9006  0.3214  0.3293
  130OSM    H7F14005   3.180   4.592   7.514  0.6651  2.9583 -2.5204
  130OSM    H7G14006   3.358   4.539   7.509 -0.0954 -1.1886 -1.4004
  130OSM    C8F14007   3.223   4.380   7.567  0.3571 -0.0216  0.8191
  130OSM    H8F14008   3.247   4.406   7.672 -1.1173 -0.5523  1.3230
  130OSM    H8G14009   3.300   4.306   7.536 -0.4614 -1.4981  2.1710
  130OSM    C9F14010   3.084   4.329   7.560 -0.8638  0.2601 -0.2666
  130OSM    H9F14011   3.064   4.288   7.460  2.8698  1.4206 -1.6611
  130OSM   C10F14012   2.988   4.324   7.651 -0.0721  0.3270  0.3446
  130OSM   H10F14013   2.898   4.267   7.625  0.9628 -0.1829 -2.4537
  130OSM   C11F14014   3.009   4.368   7.793 -0.7506 -0.6798  0.1715
  130OSM   H11F14015   2.998   4.478   7.805 -1.2201 -0.8726  1.6974
  130OSM   H11G14016   3.108   4.340   7.834 -0.2008  0.9380  0.0450
  130OSM   C12F14017   2.922   4.316   7.904  0.0193  0.4111 -0.3039
  130OSM   H12F14018   2.815   4.332   7.876 -0.4218 -0.5758  0.7336
  130OSM   H12G14019   2.940   4.376   7.996  2.1321 -1.8400  0.8506
  130OSM   C13F14020   2.949   4.169   7.937 -0.0328 -0.2752  0.2268
  130OSM   H13F14021   3.057   4.153   7.958 -0.3683  0.4216  2.7033
  130OSM   H13G14022   2.926   4.108   7.847 -1.2595  0.4559  0.0248
  130OSM   C14F14023   2.862   4.107   8.046 -0.4627 -0.9372  0.3549
  130OSM   H14F14024   2.885   3.998   8.036  3.5978 -0.3753  1.7492
  130OSM   H14G14025   2.757   4.117   8.011  0.3430 -0.9962 -2.3279
  130OSM   C15F14026   2.881   4.154   8.196  0.3073 -0.1570  0.1727
  130OSM   H15F14027   2.882   4.264   8.209 -2.8645  0.0421 -0.5418
  130OSM   H15G14028   2.979   4.123   8.237  0.1807  1.1033  1.5220
  130OSM   C16F14029   2.761   4.106   8.286 -0.2244  0.0259 -0.1618
  130OSM   H16F14030   2.754   3.996   8.272  1.1078 -0.0986  0.0212
  130OSM   H16G14031   2.665   4.149   8.250 -0.3435 -0.3124 -0.2582
  130OSM   C17F14032   2.773   4.144   8.436 -0.3527 -0.1870 -0.3381
  130OSM   H17F14033   2.672   4.139   8.481 -0.4591  2.5291 -0.0776
  130OSM   H17G14034   2.808   4.250   8.434 -0.4845 -0.1354 -2.6192
  130OSM   C18F14035   2.862   4.056   8.525  0.1952  0.1103  0.4994
  130OSM   H18F14036   2.820   3.955   8.542  0.4772  0.1137  1.2853
  130OSM   H18G14037   2.895   4.103   8.621  1.1943  0.6219 -0.0753
  130OSM   H18H14038   2.956   4.033   8.470 -0.3920  0.1479 -0.5374
  131OSM      N14039   3.543   1.983   5.743  0.0763 -0.0810 -0.8355
  131OSM    C1514040   3.470   1.970   5.608 -0.3101  0.3507  0.0463
  131OSM   H15A14041   3.385   1.902   5.611 -0.6498  0.7928  1.5243
  131OSM   H15B14042   3.528   1.921   5.532  1.4954 -0.5837  1.9158
  131OSM   H15C14043   3.428   2.065   5.580  0.7839  1.4365  1.9288
  131OSM    C1414044   3.663   2.072   5.721 -0.4032  0.2565  0.6718
  131OSM   H14A14045   3.636   2.169   5.682  0.8686 -0.9735 -3.9300
  131OSM   H14B14046   3.736   2.029   5.653 -0.2290 -1.6648  2.0045
  131OSM   H14C14047   3.714   2.097   5.813 -0.2105  0.4533  0.5139
  131OSM    C1314048   3.453   2.048   5.840 -0.0881 -0.3989  0.1504
  131OSM   H13A14049   3.482   2.023   5.942 -0.1448 -1.1925 -0.0193
  131OSM   H13B14050   3.352   2.018   5.817 -0.2909  1.0839 -1.0071
  131OSM   H13C14051   3.447   2.156   5.840 -0.9604 -0.4371  0.7167
  131OSM    C1214052   3.581   1.844   5.791 -0.3922  0.0972  0.0181
  131OSM   H12A14053   3.635   1.799   5.708 -0.1368  2.0786 -0.9377
  131OSM   H12B14054   3.491   1.789   5.812 -0.0763 -0.3419  0.2608
  131OSM    C1114055   3.674   1.830   5.914 -0.5484 -0.0431  0.0409
  131OSM   H11A14056   3.760   1.897   5.895  2.8700 -3.1605  2.9906
  131OSM   H11B14057   3.730   1.735   5.929 -0.3076  0.1783  0.5315
  131OSM      P14058   3.491   1.769   6.087  0.2962 -0.0145 -0.1939
  131OSM    O1314059   3.389   1.852   6.144  0.2399 -0.0515  0.2088
  131OSM    O1414060   3.443   1.679   5.979 -0.0575 -0.3211  0.6364
  131OSM    O1114061   3.554   1.681   6.196  0.3383 -0.3474 -0.0473
  131OSM    O1214062   3.605   1.867   6.029  0.5186  0.2100  0.4269
  131OSM    C1S14063   3.670   1.718   6.265 -0.5849 -0.3952 -0.9581
  131OSM    H1S14064   3.719   1.803   6.213 -0.9759  0.8089  0.5700
  131OSM    H1T14065   3.745   1.636   6.265 -1.4504 -1.3564  2.7392
  131OSM     NF14066   3.767   1.804   6.488  0.6934  0.3506 -0.6786
  131OSM    HNF14067   3.797   1.747   6.564  0.0171 -0.3468 -0.9254
  131OSM    C2S14068   3.647   1.755   6.417  0.1065  0.2623 -0.3123
  131OSM    H2S14069   3.577   1.841   6.426 -0.0270 -0.0266  2.1464
  131OSM    C3S14070   3.582   1.636   6.496 -0.5952  0.9244  0.9897
  131OSM    H3S14071   3.651   1.549   6.491 -1.0542  0.6231 -1.5065
  131OSM     O314072   3.467   1.584   6.426 -0.0183  0.2180 -0.2435
  131OSM    HO314073   3.481   1.602   6.333  0.1361 -2.2544 -0.7646
  131OSM    C4S14074   3.543   1.664   6.633  0.1012  0.2956 -0.1848
  131OSM    H4S14075   3.622   1.640   6.706  0.8809  2.0406 -0.4161
  131OSM    C5S14076   3.431   1.727   6.679 -0.1884 -0.2913  0.1123
  131OSM    H5S14077   3.339   1.741   6.620 -0.7834  1.7453  1.4207
  131OSM    C6S14078   3.406   1.748   6.825  0.2769 -0.3281 -0.0744
  131OSM    H6S14079   3.318   1.690   6.860  0.0929  0.4090  0.7090
  131OSM    H6T14080   3.374   1.853   6.840 -0.1692 -0.5141  0.3021
  131OSM    C7S14081   3.517   1.707   6.921 -0.0137  0.5212 -0.3395
  131OSM    H7S14082   3.614   1.754   6.896  1.3405 -1.5286  0.8366
  131OSM    H7T14083   3.532   1.597   6.922  0.7515  0.5269  3.3783
  131OSM    C8S14084   3.473   1.736   7.068  0.0349  0.3606 -0.0787
  131OSM    H8S14085   3.382   1.673   7.079  1.0067 -1.1899 -0.5578
  131OSM    H8T14086   3.443   1.843   7.073 -4.4297 -0.6813 -0.0054
  131OSM    C9S14087   3.579   1.699   7.170  0.1232  0.9786  0.1123
  131OSM    H9S14088   3.645   1.789   7.168  0.3144  0.8377  0.1428
  131OSM    H9T14089   3.642   1.616   7.131 -1.8046 -0.3794 -0.2309
  131OSM   C10S14090   3.534   1.684   7.315  0.1762  0.0542 -0.0642
  131OSM   H10S14091   3.471   1.593   7.316  2.5947 -1.7027  0.8326
  131OSM   H10T14092   3.491   1.775   7.362  0.1195  1.0778 -1.9990
  131OSM   C11S14093   3.650   1.643   7.405 -0.5393  0.2932 -0.7216
  131OSM   H11S14094   3.711   1.733   7.430 -0.5361 -0.0444  0.5907
  131OSM   H11T14095   3.716   1.569   7.355 -1.0281 -0.2865 -0.5199
  131OSM   C12S14096   3.598   1.591   7.543  0.1494 -0.2619 -0.2465
  131OSM   H12S14097   3.550   1.492   7.526  1.1049 -0.6464 -0.8022
  131OSM   H12T14098   3.521   1.644   7.603  1.1244 -2.5730  3.3832
  131OSM   C13S14099   3.720   1.569   7.633  0.3776  0.3225  0.3685
  131OSM   H13S14100   3.773   1.666   7.646 -0.9531  1.2615 -0.8450
  131OSM   H13T14101   3.785   1.489   7.593  0.0089 -0.3759  1.1369
  131OSM   C14S14102   3.682   1.514   7.773 -0.3841 -0.6740 -0.7145
  131OSM   H14S14103   3.774   1.472   7.820 -1.4631 -2.6156 -0.2547
  131OSM   H14T14104   3.613   1.428   7.765 -1.7439  0.1600  1.1582
  131OSM   C15S14105   3.621   1.627   7.867 -0.7083  0.4095 -0.5243
  131OSM   H15S14106   3.544   1.693   7.821  1.2107  2.4861 -0.9661
  131OSM   H15T14107   3.705   1.698   7.886 -1.0247  0.6545 -0.0095
  131OSM   C16S14108   3.577   1.579   8.009  0.0655  0.4822 -0.4771
  131OSM   H16S14109   3.502   1.499   8.000  0.2987  0.4277 -2.6558
  131OSM   H16T14110   3.526   1.668   8.051 -2.3843 -0.4812 -1.2685
  131OSM   C17S14111   3.697   1.534   8.100  0.5278 -0.0405 -0.0505
  131OSM   H17S14112   3.779   1.606   8.079  1.5622 -1.0398  0.3931
  131OSM   H17T14113   3.726   1.434   8.060 -0.1874 -0.2217 -0.1309
  131OSM   C18S14114   3.661   1.534   8.253 -0.1372 -0.1897 -0.4917
  131OSM   H18S14115   3.565   1.480   8.270 -0.6812  1.1026  0.6725
  131OSM   H18T14116   3.668   1.640   8.283 -0.5093 -0.1395 -0.5766
  131OSM   H18U14117   3.721   1.475   8.326 -1.4158 -0.2612  0.5390
  131OSM    C1F14118   3.814   1.920   6.464  0.1489 -0.0213 -0.3967
  131OSM     OF14119   3.787   1.992   6.365 -0.2690 -0.0390 -0.5584
  131OSM    C2F14120   3.911   1.964   6.570 -0.2426 -0.1231 -0.5634
  131OSM    H2F14121   4.001   2.004   6.518 -1.1309 -1.7232 -3.5886
  131OSM    H2G14122   3.960   1.889   6.635 -1.9663 -0.7030  0.1218
  131OSM    C3F14123   3.847   2.070   6.660 -0.2301  0.3454  0.5246
  131OSM    H3F14124   3.829   2.167   6.610  0.3997  0.4625  0.5201
  131OSM    H3G14125   3.913   2.082   6.749 -0.0082 -0.5041  0.4808
  131OSM    C4F14126   3.716   2.010   6.732 -0.1450  0.1027 -0.5972
  131OSM    H4F14127   3.737   1.910   6.776  1.5269  1.4025  1.8173
  131OSM    H4G14128   3.632   2.000   6.661 -2.3022  1.8510  1.5423
  131OSM    C5F14129   3.664   2.099   6.851 -0.3755 -0.4011 -0.2502
  131OSM    H5F14130   3.553   2.102   6.847 -0.4050 -2.1523 -1.9929
  131OSM    H5G14131   3.699   2.198   6.814 -2.8848  0.2518 -1.0706
  131OSM    C6F14132   3.729   2.067   6.986 -0.2199  0.3223  0.5655
  131OSM    H6F14133   3.834   2.099   6.970 -0.6445  1.1040 -0.8496
  131OSM    H6G14134   3.724   1.958   7.005  0.6094 -0.0776 -1.2504
  131OSM    C7F14135   3.680   2.158   7.099  0.5314 -0.3198  0.0452
  131OSM    H7F14136   3.569   2.155   7.098  0.5080  0.3271 -0.7883
  131OSM    H7G14137   3.709   2.264   7.085 -1.0857  0.6228  3.0477
  131OSM    C8F14138   3.718   2.116   7.243  0.2651 -0.2145  0.3850
  131OSM    H8F14139   3.821   2.153   7.265 -0.1635  0.1555  1.9117
  131OSM    H8G14140   3.724   2.006   7.249  2.8261 -0.0802  1.5184
  131OSM    C9F14141   3.631   2.174   7.354  0.1023 -0.0739  0.5506
  131OSM    H9F14142   3.531   2.129   7.358  0.5307 -1.6425 -2.9021
  131OSM   C10F14143   3.652   2.276   7.439 -0.0634 -0.5518 -0.1743
  131OSM   H10F14144   3.580   2.308   7.516  0.6178  0.6817 -0.0334
  131OSM   C11F14145   3.780   2.358   7.447  0.0228 -0.0061 -0.2826
  131OSM   H11F14146   3.763   2.463   7.415  2.2244  0.2809 -0.6678
  131OSM   H11G14147   3.871   2.324   7.394  0.6616 -1.0373  1.3896
  131OSM   C12F14148   3.834   2.363   7.597  0.8015  0.0243  0.6034
  131OSM   H12F14149   3.744   2.391   7.656 -1.7740 -1.2251 -2.4811
  131OSM   H12G14150   3.907   2.446   7.610  0.8357  0.0844  0.0330
  131OSM   C13F14151   3.905   2.236   7.646  0.6841  0.5026 -0.4417
  131OSM   H13F14152   3.994   2.224   7.581  0.8095 -0.4385 -0.1165
  131OSM   H13G14153   3.844   2.146   7.622 -0.4867  0.8308  1.1402
  131OSM   C14F14154   3.952   2.237   7.795  0.7815  0.2841  0.2282
  131OSM   H14F14155   3.858   2.236   7.856 -0.3668 -3.2052 -1.3400
  131OSM   H14G14156   4.003   2.334   7.815  1.9596 -0.2875  0.0561
  131OSM   C15F14157   4.037   2.108   7.823  1.0430 -0.3960  0.3928
  131OSM   H15F14158   4.109   2.108   7.738 -1.3062 -0.3151 -1.7203
  131OSM   H15G14159   3.961   2.028   7.813  2.0890 -1.6076  1.6694
  131OSM   C16F14160   4.099   2.092   7.965 -0.1063 -0.3326 -0.4195
  131OSM   H16F14161   4.195   2.146   7.974 -0.6100  0.2738  1.8981
  131OSM   H16G14162   4.111   1.983   7.983  2.3078 -0.2931 -1.4359
  131OSM   C17F14163   3.995   2.135   8.069  0.3412 -0.3297 -0.2537
  131OSM   H17F14164   3.901   2.079   8.050  0.6082 -0.5164 -1.0446
  131OSM   H17G14165   3.963   2.241   8.060 -1.7856 -0.9026 -0.1035
  131OSM   C18F14166   4.049   2.101   8.209  0.3355 -0.7084  0.2942
  131OSM   H18F14167   4.151   2.142   8.222  0.5020 -0.6656 -0.9903
  131OSM   H18G14168   4.063   1.992   8.219  0.8593 -0.3891  4.7425
  131OSM   H18H14169   3.996   2.149   8.294  0.9088  0.9853 -0.2502
  132OSM      N14170   5.709   5.464   5.845  0.2859 -0.4595 -0.2615
  132OSM    C1514171   5.624   5.587   5.815 -0.3994 -0.0673  0.0014
  132OSM   H15A14172   5.629   5.654   5.899  1.1916 -1.4906  1.1182
  132OSM   H15B14173   5.521   5.555   5.806 -0.2923  0.0035 -2.1553
  132OSM   H15C14174   5.650   5.636   5.722  1.1386 -1.7216 -0.5136
  132OSM    C1414175   5.703   5.361   5.732  0.1620  0.3899 -0.1715
  132OSM   H14A14176   5.763   5.274   5.756  0.7099  0.9807  0.6829
  132OSM   H14B14177   5.740   5.410   5.643  1.8578 -2.0684 -0.9430
  132OSM   H14C14178   5.600   5.334   5.715 -0.7502  3.4329 -0.0430
  132OSM    C1314179   5.847   5.502   5.872 -0.7420  0.4338  0.4543
  132OSM   H13A14180   5.856   5.564   5.960 -1.5770  1.7684 -0.3656
  132OSM   H13B14181   5.897   5.550   5.788  2.1436  1.2529  2.4529
  132OSM   H13C14182   5.901   5.412   5.898  2.2046  1.5241 -1.3231
  132OSM    C1214183   5.642   5.410   5.979  0.3731  0.0917  0.3904
  132OSM   H12A14184   5.699   5.319   5.992 -2.1816 -1.6215  0.2258
  132OSM   H12B14185   5.545   5.377   5.947  1.3056 -1.6543 -0.8041
  132OSM    C1114186   5.640   5.481   6.114 -0.2294  0.7543  0.3371
  132OSM   H11A14187   5.587   5.414   6.185  0.2359 -0.9200 -0.8486
  132OSM   H11B14188   5.583   5.576   6.102  0.0427  0.8167 -0.5637
  132OSM      P14189   5.814   5.580   6.284 -0.3146 -0.1520 -0.0828
  132OSM    O1314190   5.962   5.583   6.296 -0.1617  0.6305 -0.4252
  132OSM    O1414191   5.756   5.717   6.281 -0.0958  0.3209  0.0472
  132OSM    O1114192   5.758   5.509   6.415 -0.0604  0.2793 -0.7347
  132OSM    O1214193   5.777   5.495   6.156 -0.2454  0.0291  0.2040
  132OSM    C1S14194   5.739   5.369   6.437  0.1670 -0.0235 -0.1843
  132OSM    H1S14195   5.811   5.308   6.379 -0.2254  1.2182 -2.0834
  132OSM    H1T14196   5.633   5.341   6.414 -0.4489  0.8418  1.4279
  132OSM     NF14197   5.685   5.206   6.613 -0.6229 -0.8034  0.1677
  132OSM    HNF14198   5.597   5.207   6.658 -0.7150 -2.2480  0.0762
  132OSM    C2S14199   5.736   5.341   6.588  0.2104 -0.2630 -0.5370
  132OSM    H2S14200   5.841   5.334   6.624 -0.0400  1.4194  0.6111
  132OSM    C3S14201   5.659   5.447   6.679 -0.6747 -0.2168  0.4829
  132OSM    H3S14202   5.550   5.437   6.659 -1.0680  1.0680  1.8117
  132OSM     O314203   5.697   5.578   6.661  0.6527  0.0858 -0.3568
  132OSM    HO314204   5.760   5.570   6.590  0.8810  2.6803 -0.5362
  132OSM    C4S14205   5.666   5.404   6.827 -0.0799  0.2364  0.4477
  132OSM    H4S14206   5.575   5.356   6.866 -1.3248  1.0028 -1.3714
  132OSM    C5S14207   5.769   5.419   6.911 -0.0006 -0.4664 -0.1111
  132OSM    H5S14208   5.870   5.447   6.880  0.3071  0.5911  1.7135
  132OSM    C6S14209   5.767   5.372   7.054 -0.3291 -0.5872 -0.1905
  132OSM    H6S14210   5.840   5.288   7.057 -0.7684 -0.9559  1.1066
  132OSM    H6T14211   5.673   5.325   7.090 -0.8201  1.3374  1.2540
  132OSM    C7S14212   5.819   5.473   7.160  0.3038 -0.3107  0.6035
  132OSM    H7S14213   5.742   5.553   7.165 -0.7965 -1.4052  2.1747
  132OSM    H7T14214   5.918   5.514   7.132 -0.0971 -0.3587 -0.9831
  132OSM    C8S14215   5.830   5.414   7.298 -0.2527 -0.0630 -0.4525
  132OSM    H8S14216   5.914   5.342   7.310 -0.5927 -0.0940  2.3562
  132OSM    H8T14217   5.735   5.357   7.313  0.3713 -1.5272 -1.7655
  132OSM    C9S14218   5.858   5.523   7.396 -0.1018  0.1728  0.0782
  132OSM    H9S14219   5.768   5.582   7.369 -0.5256 -0.6648 -0.3575
  132OSM    H9T14220   5.949   5.585   7.382 -0.9357  1.4679  0.1870
  132OSM   C10S14221   5.834   5.477   7.542  0.2200 -0.0543  0.1751
  132OSM   H10S14222   5.763   5.392   7.540 -0.8607  0.8202  0.2933
  132OSM   H10T14223   5.787   5.557   7.603 -1.1542 -2.1977  2.0586
  132OSM   C11S14224   5.961   5.424   7.620  1.0375 -0.9199  0.5619
  132OSM   H11S14225   6.048   5.494   7.610  0.1377 -0.0817 -3.8533
  132OSM   H11T14226   5.997   5.339   7.558  1.7016 -0.3569  0.1542
  132OSM   C12S14227   5.931   5.390   7.763  0.1577  0.0066  0.3403
  132OSM   H12S14228   6.018   5.340   7.811 -0.0372 -0.2836  0.3932
  132OSM   H12T14229   5.837   5.331   7.775  0.5890 -0.9213 -0.7111
  132OSM   C13S14230   5.906   5.523   7.842  0.6252 -0.2812 -1.1745
  132OSM   H13S14231   5.811   5.571   7.810 -0.2059 -1.2939 -0.2919
  132OSM   H13T14232   5.980   5.606   7.833 -1.3494  1.5235 -1.6773
  132OSM   C14S14233   5.883   5.482   7.997 -0.9311 -0.5794  0.5227
  132OSM   H14S14234   5.958   5.406   8.027 -1.3557 -0.8417  0.9325
  132OSM   H14T14235   5.782   5.438   8.010 -2.0016  1.8219  0.8084
  132OSM   C15S14236   5.898   5.597   8.107 -0.1634 -1.1661  0.1154
  132OSM   H15S14237   5.858   5.554   8.201  1.4713 -1.9286  0.5003
  132OSM   H15T14238   5.839   5.685   8.074  0.0660  0.0353  2.6619
  132OSM   C16S14239   6.043   5.656   8.130  0.0941  0.4092  0.1919
  132OSM   H16S14240   6.033   5.745   8.195 -1.4071 -1.0392  2.0774
  132OSM   H16T14241   6.099   5.683   8.038  1.2742 -1.4370  0.3159
  132OSM   C17S14242   6.129   5.559   8.213 -0.1682 -0.4840  0.1835
  132OSM   H17S14243   6.140   5.460   8.164  1.7679 -0.8343  1.2179
  132OSM   H17T14244   6.090   5.528   8.313  0.8646  2.1419  1.5015
  132OSM   C18S14245   6.266   5.623   8.238 -0.2960 -0.6181  0.7404
  132OSM   H18S14246   6.302   5.691   8.157 -1.0152  0.9310  1.6736
  132OSM   H18T14247   6.345   5.547   8.248  1.3434  1.1259  1.7855
  132OSM   H18U14248   6.273   5.692   8.325 -0.5956  1.2152 -0.6174
  132OSM    C1F14249   5.730   5.091   6.567 -0.0039  0.0107  1.0089
  132OSM     OF14250   5.837   5.085   6.498  0.1200 -0.4383 -0.4077
  132OSM    C2F14251   5.640   4.973   6.586  0.0614  0.1986 -0.3999
  132OSM    H2F14252   5.614   4.937   6.484  2.2666  2.2505 -1.7891
  132OSM    H2G14253   5.543   5.013   6.624 -1.5451 -3.3516 -0.3170
  132OSM    C3F14254   5.707   4.859   6.659 -0.2808 -0.1709 -0.9426
  132OSM    H3F14255   5.798   4.836   6.600  0.5764 -2.0101  0.9850
  132OSM    H3G14256   5.632   4.776   6.657 -0.2018 -0.2515 -0.5466
  132OSM    C4F14257   5.741   4.891   6.806 -0.3198  0.4363 -0.2710
  132OSM    H4F14258   5.811   4.977   6.806  0.6280 -0.3177  0.3386
  132OSM    H4G14259   5.790   4.804   6.855 -0.4625  1.0487  0.9881
  132OSM    C5F14260   5.633   4.919   6.909 -0.3259 -0.1721 -0.1122
  132OSM    H5F14261   5.564   4.832   6.918 -0.2251 -0.0604  2.5214
  132OSM    H5G14262   5.576   5.006   6.870  1.2014  1.6231  1.5122
  132OSM    C6F14263   5.675   4.942   7.051 -0.3412 -0.5805 -0.4568
  132OSM    H6F14264   5.720   5.043   7.059 -3.4921  0.7992  2.4199
  132OSM    H6G14265   5.760   4.875   7.079 -0.3063 -0.0196  0.8902
  132OSM    C7F14266   5.556   4.935   7.144  0.5066 -0.2811 -0.3899
  132OSM    H7F14267   5.550   4.825   7.162 -0.2247 -0.6104 -2.4157
  132OSM    H7G14268   5.466   4.981   7.099  0.0365  0.6694  1.4349
  132OSM    C8F14269   5.573   5.017   7.282  0.6769  0.2632  0.0229
  132OSM    H8F14270   5.572   5.121   7.243  1.8507  0.0413 -0.6569
  132OSM    H8G14271   5.679   5.006   7.314  1.4553  0.7686 -2.2403
  132OSM    C9F14272   5.470   4.994   7.389 -0.1917 -0.3341  0.3122
  132OSM    H9F14273   5.373   5.033   7.355 -0.2801  0.5046  1.4545
  132OSM   C10F14274   5.486   4.953   7.514 -0.1755  0.7024 -0.1330
  132OSM   H10F14275   5.400   4.948   7.584 -0.7483  0.6843 -0.8307
  132OSM   C11F14276   5.618   4.910   7.572  0.7165 -0.5649  0.4676
  132OSM   H11F14277   5.700   4.971   7.528 -0.7479  0.7958 -0.4730
  132OSM   H11G14278   5.633   4.801   7.552  0.4359 -0.5957  0.4226
  132OSM   C12F14279   5.631   4.930   7.721 -1.2070 -0.6241 -0.6067
  132OSM   H12F14280   5.738   4.913   7.744 -1.4081  1.1327  1.9677
  132OSM   H12G14281   5.576   4.860   7.788 -3.3798  0.9769 -0.6046
  132OSM   C13F14282   5.607   5.067   7.781 -0.1999 -0.1942 -0.2627
  132OSM   H13F14283   5.506   5.099   7.748 -0.5997  0.8522  1.8124
  132OSM   H13G14284   5.674   5.151   7.752 -0.6978 -0.0977 -1.1663
  132OSM   C14F14285   5.620   5.061   7.933 -0.4519 -0.2312 -0.0593
  132OSM   H14F14286   5.710   5.002   7.961  0.4203  1.5678  1.0897
  132OSM   H14G14287   5.525   5.011   7.964 -1.2370  0.0306 -1.9274
  132OSM   C15F14288   5.634   5.196   8.000 -0.1094 -0.1544  0.3965
  132OSM   H15F14289   5.532   5.238   8.010 -0.6634 -1.5799  0.9876
  132OSM   H15G14290   5.708   5.258   7.946  0.2149  0.2641  1.2932
  132OSM   C16F14291   5.686   5.200   8.144  0.2414  0.3504 -0.0506
  132OSM   H16F14292   5.696   5.299   8.193  0.3294  1.3324 -1.9699
  132OSM   H16G14293   5.784   5.148   8.143  0.5517  0.8615  1.6428
  132OSM   C17F14294   5.591   5.105   8.230  0.0775 -0.2431 -0.4616
  132OSM   H17F14295   5.588   5.009   8.175  0.6151 -0.0259 -0.8775
  132OSM   H17G14296   5.489   5.148   8.237 -0.6748 -2.0855  0.9479
  132OSM   C18F14297   5.638   5.076   8.367  0.0214  0.4722 -0.7246
  132OSM   H18F14298   5.570   5.011   8.425  2.1318 -1.3656 -0.1690
  132OSM   H18G14299   5.670   5.170   8.416 -1.0448 -0.0284  1.0109
  132OSM   H18H14300   5.734   5.020   8.372 -0.8039 -1.0547 -1.1854
  133SAPE     N14301   1.317   2.761  10.857 -0.5912 -0.2921 -0.0609
  133SAPE   HN114302   1.277   2.694  10.789  1.3999 -1.2874 -0.3275
  133SAPE   HN214303   1.277   2.742  10.951  1.5226  0.2696  1.0190
  133SAPE   HN314304   1.291   2.859  10.835  1.7838  0.5972  0.8375
  133SAPE   C1214305   1.469   2.759  10.839 -0.2528 -0.4998 -0.0090
  133SAPE  H12A14306   1.514   2.840  10.902 -4.1351  2.1938 -0.3159
  133SAPE  H12B14307   1.495   2.778  10.732  2.0658  2.5135  0.9189
  133SAPE   C1114308   1.528   2.622  10.880  0.1772  0.1160  0.2126
  133SAPE  H11A14309   1.522   2.594  10.987  0.2680 -1.8942 -0.2597
  133SAPE  H11B14310   1.639   2.629  10.876  0.2759 -0.8411  0.8007
  133SAPE     P14311   1.537   2.373  10.802 -0.1726 -0.2396  0.1905
  133SAPE   O1314312   1.574   2.339  10.946 -0.8928 -0.1287  0.4887
  133SAPE   O1414313   1.439   2.291  10.728  0.2598  0.1545 -0.1855
  133SAPE   O1214314   1.476   2.519  10.791 -0.1590 -0.6387 -0.4019
  133SAPE   O1114315   1.671   2.370  10.716 -0.1874 -0.2608  0.1573
  133SAPE    C114316   1.704   2.466  10.615 -0.5751 -0.0727 -1.3362
  133SAPE    HA14317   1.662   2.567  10.631 -0.1186 -0.0410 -0.2729
  133SAPE    HB14318   1.814   2.481  10.616 -0.5807  0.2645  1.5570
  133SAPE    C214319   1.670   2.424  10.472  0.3560  0.4592  0.2459
  133SAPE    HS14320   1.732   2.494  10.412  2.4772 -1.2651  0.3274
  133SAPE   O2114321   1.527   2.444  10.440 -0.5639 -0.1234 -0.5714
  133SAPE   C2114322   1.487   2.564  10.422  0.1620  0.5908  0.1553
  133SAPE   O2214323   1.557   2.664  10.417 -0.4775  0.3218 -0.1488
  133SAPE   C2214324   1.339   2.554  10.384 -0.0343  0.3638  0.1365
  133SAPE   H2R14325   1.303   2.449  10.394  3.1151 -0.8723 -0.2413
  133SAPE   H2S14326   1.291   2.600  10.474 -3.5173  2.4594 -2.5355
  133SAPE    C314327   1.714   2.274  10.457  0.2568 -0.3539 -0.3327
  133SAPE    HX14328   1.646   2.198  10.500  1.7964 -1.2547  0.6083
  133SAPE    HY14329   1.811   2.257  10.508  0.4551  2.1350  0.2405
  133SAPE   O3114330   1.703   2.238  10.315  0.7638 -0.2018 -0.2303
  133SAPE   C3114331   1.817   2.237  10.246  0.2234  0.1117  1.0088
  133SAPE   O3214332   1.927   2.279  10.286 -0.0706 -0.0505 -0.3584
  133SAPE   C3214333   1.796   2.182  10.108 -0.1742 -0.0300 -0.3230
  133SAPE   H2X14334   1.756   2.080  10.120  0.1630 -0.1680 -0.3535
  133SAPE   H2Y14335   1.898   2.174  10.064 -0.5572 -1.6162 -0.9752
  133SAPE   C2314336   1.306   2.628  10.256 -0.0926 -0.0253 -0.1757
  133SAPE   H3R14337   1.359   2.726  10.265  1.0927 -0.4913 -1.5747
  133SAPE   H3S14338   1.202   2.666  10.264  0.3239  0.7226  3.3346
  133SAPE   C2414339   1.323   2.570  10.117 -0.1216  0.3716 -0.4869
  133SAPE   H4R14340   1.427   2.535  10.103 -0.5409 -0.9257 -0.4694
  133SAPE   H4S14341   1.321   2.651  10.041  0.3850  1.5783  0.7511
  133SAPE   C2514342   1.215   2.476  10.085  0.8105  0.6013  0.1960
  133SAPE   H5R14343   1.148   2.452  10.169  1.9670  1.6759  1.4699
  133SAPE   C2614344   1.192   2.419   9.964  1.6745  0.2021 -0.5064
  133SAPE   H6R14345   1.109   2.347   9.955  2.6976 -0.9525 -1.0583
  133SAPE   C2714346   1.263   2.452   9.833  0.6597  0.3537  0.3668
  133SAPE   H7R14347   1.318   2.361   9.800 -1.1298 -0.6581  0.0739
  133SAPE   H7S14348   1.337   2.533   9.852  0.0958  1.5751 -2.2414
  133SAPE   C2814349   1.172   2.515   9.727  0.0856 -0.8194  0.3779
  133SAPE   H8R14350   1.127   2.611   9.756 -0.1589 -1.0374  0.7239
  133SAPE   C2914351   1.136   2.471   9.602 -0.2712 -0.2583  0.8351
  133SAPE   H9R14352   1.085   2.540   9.533  1.4116 -1.0059 -1.2694
  133SAPE  C21014353   1.181   2.343   9.532 -0.2677 -0.4154 -0.6464
  133SAPE  H10R14354   1.097   2.309   9.467 -2.4554  0.9373  1.3071
  133SAPE  H10S14355   1.185   2.270   9.615 -1.0650  0.1730 -0.0756
  133SAPE  C21114356   1.309   2.354   9.453  0.2744 -0.1372 -0.1963
  133SAPE  H11R14357   1.382   2.422   9.500 -0.2549 -0.8602  1.7416
  133SAPE  C21214358   1.340   2.299   9.340 -0.2324 -0.0340 -0.5250
  133SAPE  H12R14359   1.436   2.324   9.293  0.4004 -1.3953  0.0043
  133SAPE  C21314360   1.258   2.201   9.257  0.2008 -0.0253 -0.0161
  133SAPE  H13R14361   1.246   2.254   9.160 -0.7280  0.3785  0.3063
  133SAPE  H13S14362   1.151   2.205   9.285 -0.6720  1.5574 -3.0986
  133SAPE  C21414363   1.309   2.060   9.253 -0.2029  0.5118  0.3099
  133SAPE  H14R14364   1.407   2.047   9.302 -0.4269  1.0549  0.9140
  133SAPE  C21514365   1.242   1.948   9.213  0.3267 -0.3850 -0.7076
  133SAPE  H15R14366   1.298   1.854   9.218  0.6882 -0.1222  0.6512
  133SAPE  C21614367   1.098   1.929   9.166 -0.1297 -1.1460 -0.9196
  133SAPE  H16R14368   1.046   2.027   9.170 -0.5377 -1.3971  0.4670
  133SAPE  H16S14369   1.046   1.859   9.236 -0.7515 -0.9217 -1.1532
  133SAPE  C21714370   1.097   1.888   9.018  0.2904  0.0795 -1.1806
  133SAPE  H17R14371   1.125   1.782   9.003 -1.7477 -0.5481 -0.8751
  133SAPE  H17S14372   1.172   1.952   8.967  1.3927  0.5643  0.9281
  133SAPE  C21814373   0.964   1.923   8.949  0.1955 -0.9548  0.0133
  133SAPE  H18R14374   0.952   2.031   8.927 -1.8066 -0.0574  4.4545
  133SAPE  H18S14375   0.881   1.899   9.019  0.3022 -0.2335  0.3975
  133SAPE  C21914376   0.939   1.849   8.821 -0.3063 -0.3255 -0.1466
  133SAPE  H19R14377   0.933   1.744   8.855  0.3645 -0.2854  0.1122
  133SAPE  H19S14378   1.022   1.861   8.747  0.2782 -0.5597  0.4600
  133SAPE  C22014379   0.814   1.885   8.750 -0.2462 -0.6859  0.1350
  133SAPE  H20R14380   0.803   1.991   8.719  1.1939 -0.9789 -1.5763
  133SAPE  H20S14381   0.731   1.854   8.817 -0.6051  2.6978  1.4633
  133SAPE  H20T14382   0.817   1.827   8.655  4.4338 -0.4243 -0.0925
  133SAPE   C3314383   1.705   2.257  10.013  0.5679 -0.2599 -0.0854
  133SAPE   H3X14384   1.750   2.359  10.007  2.5518 -0.8819  2.6105
  133SAPE   H3Y14385   1.605   2.272  10.060 -0.1348  3.2529 -2.2639
  133SAPE   C3414386   1.684   2.189   9.876 -0.8147 -0.2390 -0.0861
  133SAPE   H4X14387   1.679   2.081   9.902 -0.0205 -0.7525 -1.8787
  133SAPE   H4Y14388   1.770   2.196   9.805 -2.8159 -2.5489 -2.9924
  133SAPE   C3514389   1.556   2.229   9.801  0.6265 -0.2294 -0.1582
  133SAPE   H5X14390   1.565   2.331   9.760 -3.6990  0.5747  0.4221
  133SAPE   H5Y14391   1.463   2.228   9.862  0.4753  1.6870 -0.2939
  133SAPE   C3614392   1.533   2.135   9.680 -0.4116 -0.6111  0.2999
  133SAPE   H6X14393   1.607   2.151   9.600 -1.0004  0.7431  0.0047
  133SAPE   H6Y14394   1.429   2.148   9.643 -0.2115 -2.3455 -0.9992
  133SAPE   C3714395   1.520   1.984   9.717 -0.3907  0.0392  0.6373
  133SAPE   H7X14396   1.468   1.971   9.814 -2.0302 -1.6718 -0.4044
  133SAPE   H7Y14397   1.615   1.928   9.728 -0.2433  0.3675  1.0741
  133SAPE   C3814398   1.439   1.914   9.608  0.2743 -0.3907  0.3087
  133SAPE   H8X14399   1.454   1.805   9.620 -2.0871 -0.5952  1.9760
  133SAPE   H8Y14400   1.480   1.950   9.511 -0.6077  0.2414  0.1615
  133SAPE   C3914401   1.281   1.937   9.616  0.3111  0.6137  0.3861
  133SAPE   H9X14402   1.233   1.870   9.542  1.3695 -0.1942  0.4019
  133SAPE   H9Y14403   1.264   2.042   9.584  0.5427  0.7532  0.7040
  133SAPE  C31014404   1.225   1.926   9.754 -0.6683  0.1049 -0.7755
  133SAPE  H10X14405   1.255   2.014   9.815 -2.6881 -0.4003  1.0489
  133SAPE  H10Y14406   1.275   1.839   9.801 -3.1908 -0.4865  0.9568
  133SAPE  C31114407   1.074   1.910   9.744  0.3374  0.2296 -0.1881
  133SAPE  H11X14408   1.059   1.827   9.672  0.8919  0.6025 -0.7426
  133SAPE  H11Y14409   1.019   2.000   9.709 -4.6387 -2.5550 -0.3900
  133SAPE  C31214410   1.004   1.867   9.880  0.0352 -0.1655  0.1502
  133SAPE  H12X14411   0.894   1.867   9.867 -0.2159  0.3385  2.0476
  133SAPE  H12Y14412   1.030   1.947   9.951  0.6108  2.7942 -3.1140
  133SAPE  C31314413   1.045   1.727   9.927  0.0318  0.0013  0.3568
  133SAPE  H13X14414   1.153   1.740   9.950  0.0035 -2.9094  2.6466
  133SAPE  H13Y14415   1.044   1.661   9.838 -0.1442  0.9114 -0.3265
  133SAPE  C31414416   0.949   1.672  10.037 -0.6281  0.3395  0.6818
  133SAPE  H14X14417   0.875   1.609   9.983 -0.2346 -0.5342  1.1297
  133SAPE  H14Y14418   0.900   1.763  10.077 -1.4618  0.0348  0.3825
  133SAPE  C31514419   1.027   1.597  10.156 -0.0687 -0.1729  0.2371
  133SAPE  H15X14420   0.951   1.563  10.230 -0.2430  2.2323  1.2371
  133SAPE  H15Y14421   1.078   1.679  10.211 -0.9359  1.9128 -1.8732
  133SAPE  C31614422   1.115   1.471  10.115  0.5970 -0.0908  0.4447
  133SAPE  H16X14423   1.158   1.500  10.017 -1.7272  0.2254 -0.5536
  133SAPE  H16Y14424   1.052   1.383  10.092  1.9417 -0.3871 -2.5937
  133SAPE  C31714425   1.228   1.433  10.213  0.3330  0.2894 -0.1122
  133SAPE  H17X14426   1.182   1.412  10.312 -0.6496  0.3660 -0.5471
  133SAPE  H17Y14427   1.307   1.510  10.229  1.5514 -0.8446 -0.4403
  133SAPE  C31814428   1.290   1.300  10.180  0.0643 -0.0289 -0.1214
  133SAPE  H18X14429   1.212   1.222  10.180  1.6453 -1.9459  4.2653
  133SAPE  H18Y14430   1.375   1.266  10.244  1.2312  0.2505 -1.4677
  133SAPE  H18Z14431   1.336   1.305  10.079 -0.7848  0.5553 -0.4895
  134SAPE     N14432   5.426   4.084  10.656 -0.4771 -0.2721  0.3647
  134SAPE   HN114433   5.430   3.981  10.669 -0.1395 -0.4478 -1.0068
  134SAPE   HN214434   5.493   4.104  10.579  0.0038  0.2553  0.9072
  134SAPE   HN314435   5.445   4.135  10.745 -1.2419 -0.9472  0.9318
  134SAPE   C1214436   5.290   4.132  10.612 -0.5462 -0.0934 -0.5679
  134SAPE  H12A14437   5.215   4.084  10.679 -0.6265 -0.0336 -0.6142
  134SAPE  H12B14438   5.281   4.091  10.509  0.3475 -1.7099 -0.0421
  134SAPE   C1114439   5.291   4.287  10.614 -0.0013 -0.2759  0.7252
  134SAPE  H11A14440   5.375   4.339  10.564 -1.7638 -0.6455 -2.9727
  134SAPE  H11B14441   5.288   4.313  10.722 -1.0443 -2.4026  1.2632
  134SAPE     P14442   5.092   4.450  10.620  0.1629  0.4245  0.1410
  134SAPE   O1314443   5.073   4.416  10.763 -0.2972 -0.2459 -0.4578
  134SAPE   O1414444   5.176   4.569  10.588  0.6404  0.3553 -0.0839
  134SAPE   O1214445   5.165   4.323  10.555  0.3313 -0.3095  0.2384
  134SAPE   O1114446   4.956   4.460  10.537 -0.1656  0.2528 -0.5986
  134SAPE    C114447   4.883   4.342  10.498  0.0359 -0.0326 -0.3078
  134SAPE    HA14448   4.934   4.246  10.524  1.4567  0.0802 -2.4470
  134SAPE    HB14449   4.782   4.332  10.545 -0.2871 -0.4219 -1.0589
  134SAPE    C214450   4.859   4.338  10.346 -0.1061 -0.1842 -0.0611
  134SAPE    HS14451   4.790   4.254  10.326 -0.8900  0.2856  0.6204
  134SAPE   O2114452   4.983   4.325  10.270  0.0893  0.4741  0.0153
  134SAPE   C2114453   5.046   4.211  10.282  0.1377  1.0637  0.2024
  134SAPE   O2214454   4.992   4.109  10.325 -0.1551  0.0749 -0.6148
  134SAPE   C2214455   5.185   4.234  10.224  0.1273  0.3465  0.3536
  134SAPE   H2R14456   5.219   4.334  10.258 -0.3300  1.1185 -1.3337
  134SAPE   H2S14457   5.250   4.152  10.263 -0.4954 -0.4434 -0.2273
  134SAPE    C314458   4.780   4.463  10.295  0.5413  0.4869  0.3440
  134SAPE    HX14459   4.866   4.530  10.274  0.5425  0.6428  0.8391
  134SAPE    HY14460   4.722   4.513  10.375  1.0611  1.2176  0.2750
  134SAPE   O3114461   4.708   4.439  10.171 -0.3670 -0.1443 -0.1107
  134SAPE   C3114462   4.588   4.398  10.195 -0.2765  0.0850 -0.2198
  134SAPE   O3214463   4.536   4.371  10.306 -0.7987 -1.2202  0.0369
  134SAPE   C3214464   4.512   4.396  10.065 -0.0511  0.4300  0.5640
  134SAPE   H2X14465   4.405   4.382  10.092  0.3360 -0.2137  1.8203
  134SAPE   H2Y14466   4.544   4.310  10.002  2.6388  2.3062 -0.8164
  134SAPE   C2314467   5.181   4.216  10.071  0.4900  0.3357  0.0196
  134SAPE   H3R14468   5.097   4.273  10.026 -0.9971 -1.5863  0.2033
  134SAPE   H3S14469   5.172   4.109  10.041  0.6167  0.3360 -0.0188
  134SAPE   C2414470   5.305   4.286  10.003  0.5419  0.4580  0.3744
  134SAPE   H4R14471   5.385   4.247  10.070 -0.1003 -0.0062  0.8910
  134SAPE   H4S14472   5.299   4.396  10.016 -1.9208  0.3379  0.6767
  134SAPE   C2514473   5.333   4.232   9.859 -0.2760 -0.3702 -0.3473
  134SAPE   H5R14474   5.326   4.123   9.848  1.0977 -0.5912  0.7305
  134SAPE   C2614475   5.346   4.308   9.747  0.5202  0.3621 -0.8335
  134SAPE   H6R14476   5.352   4.242   9.660 -2.8414 -0.1418 -0.8302
  134SAPE   C2714477   5.335   4.457   9.725 -0.4980 -0.1219  0.5326
  134SAPE   H7R14478   5.436   4.503   9.723 -0.7017  0.4001  1.5051
  134SAPE   H7S14479   5.296   4.502   9.819 -0.2415  0.1283  0.5223
  134SAPE   C2814480   5.240   4.507   9.613 -0.6419 -0.5142  0.2329
  134SAPE   H8R14481   5.147   4.557   9.643  0.3258  0.9903  0.8130
  134SAPE   C2914482   5.268   4.501   9.476 -0.1193  0.4982  0.5132
  134SAPE   H9R14483   5.193   4.552   9.413 -0.2316  1.6052  1.5104
  134SAPE  C21014484   5.379   4.436   9.406  0.6585 -0.7267  0.6107
  134SAPE  H10R14485   5.452   4.386   9.474  1.3958  3.1666  2.9774
  134SAPE  H10S14486   5.436   4.519   9.359  0.1452 -1.1124 -0.7164
  134SAPE  C21114487   5.327   4.335   9.305 -0.1310  0.3722  0.1676
  134SAPE  H11R14488   5.319   4.229   9.333  1.2502 -0.2097 -1.4594
  134SAPE  C21214489   5.296   4.353   9.175  0.4419 -0.2551 -0.2108
  134SAPE  H12R14490   5.261   4.272   9.110 -2.2645 -0.5178  1.4322
  134SAPE  C21314491   5.315   4.490   9.105 -0.0178  0.8568  0.1014
  134SAPE  H13R14492   5.347   4.573   9.171  1.2946  1.2913 -1.0288
  134SAPE  H13S14493   5.219   4.517   9.057  0.6511 -2.1083 -3.3645
  134SAPE  C21414494   5.421   4.481   8.996  0.5666 -0.0321 -0.0889
  134SAPE  H14R14495   5.523   4.510   9.026  0.5491  1.2252 -1.2038
  134SAPE  C21514496   5.405   4.431   8.875 -0.7823 -0.2312  0.0287
  134SAPE  H15R14497   5.493   4.419   8.810 -0.0460  1.7656  0.5942
  134SAPE  C21614498   5.282   4.373   8.812  0.6254 -0.3288 -0.1977
  134SAPE  H16R14499   5.209   4.358   8.895  1.5571  3.0615  1.4274
  134SAPE  H16S14500   5.288   4.273   8.764 -0.5775 -0.1256 -0.8183
  134SAPE  C21714501   5.208   4.461   8.709 -0.1513  0.1339 -0.3320
  134SAPE  H17R14502   5.191   4.557   8.763  0.2694 -1.1304  2.1686
  134SAPE  H17S14503   5.104   4.424   8.707 -0.3085  0.5387  0.0943
  134SAPE  C21814504   5.268   4.482   8.576  0.8500 -0.3627  0.2241
  134SAPE  H18R14505   5.333   4.395   8.553 -0.7875 -0.9987 -2.3157
  134SAPE  H18S14506   5.333   4.573   8.576 -0.1602  0.3736  0.3271
  134SAPE  C21914507   5.167   4.503   8.460 -0.2211 -0.4947  0.1690
  134SAPE  H19R14508   5.092   4.422   8.456 -1.7811  0.9215 -0.1436
  134SAPE  H19S14509   5.217   4.482   8.363  0.8813 -1.9797  1.0085
  134SAPE  C22014510   5.098   4.644   8.459 -0.1257  0.3207  0.5855
  134SAPE  H20R14511   5.176   4.723   8.459 -1.1842  1.4000 -0.3802
  134SAPE  H20S14512   5.038   4.651   8.552  0.8857 -0.6266  1.3471
  134SAPE  H20T14513   5.032   4.659   8.371 -0.5410  0.5096  0.9278
  134SAPE   C3314514   4.500   4.527   9.984  0.2679 -0.0710 -0.6750
  134SAPE   H3X14515   4.501   4.606  10.063  2.1303 -0.1029 -0.6052
  134SAPE   H3Y14516   4.402   4.526   9.932 -1.6050  0.3194  2.6120
  134SAPE   C3414517   4.616   4.556   9.889 -0.6627 -1.4848  0.8211
  134SAPE   H4X14518   4.709   4.501   9.916  0.0893  0.5291  2.6257
  134SAPE   H4Y14519   4.652   4.661   9.893 -0.6910 -1.4860  1.1150
  134SAPE   C3514520   4.594   4.521   9.739 -0.1295  1.1125 -0.3023
  134SAPE   H5X14521   4.498   4.566   9.707 -0.5550  1.1448  0.9388
  134SAPE   H5Y14522   4.598   4.411   9.724 -0.1462  1.2206 -1.1476
  134SAPE   C3614523   4.702   4.572   9.646 -0.5946  0.1789  0.3991
  134SAPE   H6X14524   4.794   4.515   9.670  0.4033  1.4313 -0.3187
  134SAPE   H6Y14525   4.708   4.683   9.654 -0.4633  0.8611 -5.0706
  134SAPE   C3714526   4.657   4.544   9.507 -0.3939 -0.3958  0.5280
  134SAPE   H7X14527   4.573   4.614   9.490  0.5830  0.5077 -0.7317
  134SAPE   H7Y14528   4.619   4.440   9.496  0.1635 -0.4018 -1.8127
  134SAPE   C3814529   4.763   4.566   9.403 -0.2691 -0.3014 -0.4372
  134SAPE   H8X14530   4.853   4.504   9.421 -1.0444 -1.1874  0.5007
  134SAPE   H8Y14531   4.788   4.674   9.414  0.1231 -0.2396 -1.7195
  134SAPE   C3914532   4.705   4.533   9.260  0.2452  0.7610 -0.6031
  134SAPE   H9X14533   4.601   4.572   9.254  0.4881  1.5937  0.2988
  134SAPE   H9Y14534   4.700   4.422   9.255 -0.2937  0.7952 -0.8592
  134SAPE  C31014535   4.790   4.581   9.140  0.1408  0.0757  0.4147
  134SAPE  H10X14536   4.896   4.553   9.154  0.5190  0.4142 -1.5154
  134SAPE  H10Y14537   4.793   4.692   9.135  0.3342  0.0389 -0.4689
  134SAPE  C31114538   4.725   4.532   9.008  0.1199 -1.3682 -0.6036
  134SAPE  H11X14539   4.614   4.543   9.002  0.0918 -1.4666 -0.2759
  134SAPE  H11Y14540   4.743   4.423   9.017 -2.3964 -1.7123  1.3866
  134SAPE  C31214541   4.797   4.578   8.883 -0.1304  0.1492 -0.2511
  134SAPE  H12X14542   4.907   4.573   8.897 -0.2713 -2.4269  0.4207
  134SAPE  H12Y14543   4.779   4.683   8.853  1.3461 -0.4663 -3.9129
  134SAPE  C31314544   4.752   4.497   8.762  0.8707 -0.8844  0.3448
  134SAPE  H13X14545   4.645   4.478   8.785  0.8849 -1.5776 -0.1191
  134SAPE  H13Y14546   4.822   4.411   8.756  0.4328 -1.1614 -1.5418
  134SAPE  C31414547   4.761   4.571   8.633 -0.1669 -1.0961  0.3076
  134SAPE  H14X14548   4.870   4.576   8.611 -0.1161  1.9225  0.7360
  134SAPE  H14Y14549   4.722   4.675   8.629 -1.5570 -1.6022  0.1992
  134SAPE  C31514550   4.692   4.490   8.516  0.1233  0.2570  0.2690
  134SAPE  H15X14551   4.733   4.386   8.512  2.3055  0.9721  2.0306
  134SAPE  H15Y14552   4.726   4.543   8.424 -1.5467 -0.8850 -1.0837
  134SAPE  C31614553   4.534   4.507   8.521 -0.9089  0.4638  0.3337
  134SAPE  H16X14554   4.519   4.615   8.545 -0.1561  0.6812 -0.1351
  134SAPE  H16Y14555   4.487   4.447   8.602  0.7735  0.3752  1.2833
  134SAPE  C31714556   4.464   4.479   8.388  0.4958 -0.6403 -0.8857
  134SAPE  H17X14557   4.355   4.467   8.407  0.8086 -1.1853  0.7354
  134SAPE  H17Y14558   4.499   4.383   8.346  2.1870 -0.0353 -0.9008
  134SAPE  C31814559   4.494   4.587   8.283 -0.1788  0.1687 -0.1519
  134SAPE  H18X14560   4.478   4.688   8.328  0.6878  0.7279 -1.0415
  134SAPE  H18Y14561   4.428   4.579   8.194 -3.1515 -1.2637  2.0215
  134SAPE  H18Z14562   4.598   4.584   8.243 -1.3549  0.1022 -3.5600
  135SAPE     N14563   4.594   2.737  10.760 -0.6185 -0.1441 -0.0114
  135SAPE   HN114564   4.586   2.795  10.674 -0.6913  0.1995  0.2274
  135SAPE   HN214565   4.599   2.817  10.826 -0.4424  0.7309 -1.0476
  135SAPE   HN314566   4.679   2.677  10.759 -1.1934 -0.9928  0.5684
  135SAPE   C1214567   4.474   2.657  10.779  0.6096 -0.4227  0.3823
  135SAPE  H12A14568   4.394   2.716  10.830  0.9190  1.5708 -1.3059
  135SAPE  H12B14569   4.515   2.587  10.854  0.6402  1.5255  2.2791
  135SAPE   C1114570   4.441   2.604  10.637  0.1376 -0.0422  0.1173
  135SAPE  H11A14571   4.354   2.534  10.639 -0.2726  0.4617  1.2954
  135SAPE  H11B14572   4.526   2.545  10.599  0.4099  0.9537 -0.8696
  135SAPE     P14573   4.287   2.743  10.480  0.5186 -0.0274  0.4662
  135SAPE   O1314574   4.199   2.768  10.601  0.4981  0.4701 -0.0841
  135SAPE   O1414575   4.295   2.851  10.383 -0.0491 -0.4562  0.1056
  135SAPE   O1214576   4.432   2.712  10.537 -0.1848  0.1804 -0.4258
  135SAPE   O1114577   4.261   2.608  10.406  0.2151 -0.1704 -0.3149
  135SAPE    C114578   4.346   2.551  10.311  0.6458 -0.2662  0.1992
  135SAPE    HA14579   4.393   2.633  10.253 -2.0797  1.1956 -0.1126
  135SAPE    HB14580   4.425   2.484  10.351  0.0582 -0.5515  0.9175
  135SAPE    C214581   4.267   2.465  10.206 -0.1541  0.5828  0.0646
  135SAPE    HS14582   4.339   2.430  10.129  0.9075  1.0282  0.8318
  135SAPE   O2114583   4.157   2.527  10.142  0.0612 -0.5328  0.4153
  135SAPE   C2114584   4.191   2.617  10.054  0.1289  0.2828 -0.2404
  135SAPE   O2214585   4.306   2.643  10.015  0.3813 -0.6986  0.3109
  135SAPE   C2214586   4.058   2.672   9.996  0.3381 -0.2624  0.6287
  135SAPE   H2R14587   3.984   2.589  10.006  0.7586 -0.4730  2.4954
  135SAPE   H2S14588   4.023   2.752  10.065 -0.0013 -0.2516  0.4462
  135SAPE    C314589   4.218   2.335  10.273  0.6858  0.0173 -0.4388
  135SAPE    HX14590   4.167   2.366  10.366 -0.6161 -0.9518 -0.8034
  135SAPE    HY14591   4.306   2.268  10.290  0.2014 -0.4071  0.4567
  135SAPE   O3114592   4.130   2.260  10.183 -0.7030  0.5967 -0.3645
  135SAPE   C3114593   4.000   2.268  10.209 -0.6836 -1.0399 -0.4059
  135SAPE   O3214594   3.956   2.315  10.314 -0.4369 -0.0740  0.7345
  135SAPE   C3214595   3.916   2.228  10.093 -0.3103 -0.3788  0.0482
  135SAPE   H2X14596   3.818   2.281  10.095 -0.1862 -0.1432  2.3827
  135SAPE   H2Y14597   3.888   2.123  10.118  0.1661  0.1123  2.9785
  135SAPE   C2314598   4.070   2.732   9.850  0.1906 -0.5793  0.4520
  135SAPE   H3R14599   4.176   2.759   9.828  0.2517  1.3232  2.6905
  135SAPE   H3S14600   4.007   2.823   9.843  0.6058 -0.2129  1.2977
  135SAPE   C2414601   4.020   2.636   9.742  0.1147 -0.3779  0.8484
  135SAPE   H4R14602   3.922   2.589   9.765 -1.2824  0.1036 -3.2135
  135SAPE   H4S14603   4.087   2.548   9.743 -1.1506 -1.5591 -2.7102
  135SAPE   C2514604   4.036   2.699   9.601  0.0014 -0.3975  0.0304
  135SAPE   H5R14605   4.140   2.695   9.565  0.2040 -2.6527  0.7070
  135SAPE   C2614606   3.937   2.744   9.525  0.0259  0.7786 -0.3580
  135SAPE   H6R14607   3.953   2.782   9.423  0.1370  3.2195  0.4953
  135SAPE   C2714608   3.792   2.760   9.555 -0.3078 -0.3167  0.2044
  135SAPE   H7R14609   3.774   2.767   9.665  1.0606  1.0581  0.3777
  135SAPE   H7S14610   3.743   2.661   9.541  2.6765 -2.0961  1.3378
  135SAPE   C2814611   3.696   2.861   9.492  0.3166 -0.5686  0.2635
  135SAPE   H8R14612   3.645   2.931   9.560  0.1432  0.4126 -0.8517
  135SAPE   C2914613   3.676   2.868   9.360  0.2982 -0.0971 -0.0742
  135SAPE   H9R14614   3.598   2.935   9.319  0.9097  0.8137  0.2255
  135SAPE  C21014615   3.734   2.792   9.244 -0.4622  0.0474 -0.1402
  135SAPE  H10R14616   3.807   2.718   9.282 -2.3924 -1.4361  0.8803
  135SAPE  H10S14617   3.784   2.863   9.175  1.8523  0.1874  1.5811
  135SAPE  C21114618   3.637   2.697   9.173  0.7259  0.1151  0.2996
  135SAPE  H11R14619   3.588   2.622   9.237 -1.5309 -0.0842 -1.5032
  135SAPE  C21214620   3.597   2.699   9.047  0.0275 -1.0534  0.0771
  135SAPE  H12R14621   3.523   2.626   9.012  0.8688 -1.0811 -1.7628
  135SAPE  C21314622   3.647   2.795   8.944  0.2842  0.1658 -0.3119
  135SAPE  H13R14623   3.736   2.748   8.896  2.1082  1.9387  1.1200
  135SAPE  H13S14624   3.700   2.882   8.990  0.5957 -1.0373  1.7635
  135SAPE  C21414625   3.548   2.830   8.838 -0.7151 -0.5127  0.6515
  135SAPE  H14R14626   3.459   2.892   8.855 -2.6841 -2.5219 -1.5677
  135SAPE  C21514627   3.554   2.805   8.703  0.4100 -0.2445 -0.7501
  135SAPE  H15R14628   3.466   2.835   8.644 -2.1100 -2.1848  1.7445
  135SAPE  C21614629   3.668   2.727   8.639 -0.0888 -0.4013  0.0561
  135SAPE  H16R14630   3.666   2.625   8.682  3.1050 -0.9541 -0.8346
  135SAPE  H16S14631   3.769   2.771   8.659  0.2696 -0.0334 -2.2376
  135SAPE  C21714632   3.642   2.717   8.483  1.0389 -0.6612  0.3069
  135SAPE  H17R14633   3.639   2.819   8.440 -1.8944  0.4292  2.7407
  135SAPE  H17S14634   3.549   2.660   8.462  2.4092 -2.1119 -2.3375
  135SAPE  C21814635   3.741   2.635   8.400  0.3124  0.3566 -0.2054
  135SAPE  H18R14636   3.739   2.530   8.436 -0.8868  0.3870 -0.1361
  135SAPE  H18S14637   3.844   2.668   8.425  0.7997 -0.4394 -1.0809
  135SAPE  C21914638   3.701   2.644   8.255 -0.5862  0.4247 -0.1698
  135SAPE  H19R14639   3.797   2.631   8.201 -1.1216 -2.6951 -0.5345
  135SAPE  H19S14640   3.653   2.738   8.220 -3.1387 -1.1039 -1.0662
  135SAPE  C22014641   3.606   2.535   8.208 -0.1122 -0.7125  0.8112
  135SAPE  H20R14642   3.633   2.437   8.252 -3.0218 -0.9194  2.4055
  135SAPE  H20S14643   3.612   2.523   8.097  1.7530  0.2166  0.7655
  135SAPE  H20T14644   3.501   2.560   8.236 -0.6259 -1.3866 -0.4144
  135SAPE   C3314645   3.986   2.237   9.956  0.0626  1.0088  0.5453
  135SAPE   H3X14646   4.078   2.177   9.968 -1.7976 -1.8545  1.4050
  135SAPE   H3Y14647   4.015   2.342   9.934 -1.3347  1.2284 -0.4317
  135SAPE   C3414648   3.909   2.178   9.841  0.6345 -0.1630  0.0718
  135SAPE   H4X14649   3.834   2.105   9.878 -0.3230  1.0177  0.5318
  135SAPE   H4Y14650   3.979   2.113   9.784 -1.1789 -1.2104 -1.0349
  135SAPE   C3514651   3.853   2.282   9.741 -0.2852  0.2840 -0.0514
  135SAPE   H5X14652   3.939   2.345   9.711  0.1950 -0.3477 -0.0089
  135SAPE   H5Y14653   3.767   2.336   9.786 -1.0930 -0.9562 -0.0577
  135SAPE   C3614654   3.795   2.222   9.616 -0.1568  0.1683  0.2282
  135SAPE   H6X14655   3.693   2.177   9.624  0.3918 -1.3671 -0.9905
  135SAPE   H6Y14656   3.868   2.141   9.593 -0.8220 -0.3354 -0.1460
  135SAPE   C3714657   3.802   2.308   9.492 -0.4786 -0.1169 -0.0993
  135SAPE   H7X14658   3.898   2.363   9.489 -0.0519 -0.8783 -1.4759
  135SAPE   H7Y14659   3.726   2.388   9.505 -1.4861 -1.0127 -0.3043
  135SAPE   C3814660   3.777   2.235   9.358 -0.4074  0.0417 -0.2260
  135SAPE   H8X14661   3.676   2.190   9.361 -0.4868  0.2341  2.6372
  135SAPE   H8Y14662   3.845   2.149   9.376  1.1039  1.4041  0.7714
  135SAPE   C3914663   3.797   2.317   9.233  0.7118 -0.3722  0.5401
  135SAPE   H9X14664   3.899   2.360   9.233  0.6589 -0.2349  1.2583
  135SAPE   H9Y14665   3.715   2.391   9.226  0.4964 -0.6523  0.0623
  135SAPE  C31014666   3.792   2.231   9.111  0.5131  0.7212  0.1126
  135SAPE  H10X14667   3.696   2.175   9.106 -0.3537  2.1569  0.2130
  135SAPE  H10Y14668   3.881   2.166   9.121 -1.1352 -1.3503  2.3236
  135SAPE  C31114669   3.793   2.317   8.987 -0.0145 -0.1109  1.1016
  135SAPE  H11X14670   3.878   2.386   9.002  0.4245 -0.4804  0.3433
  135SAPE  H11Y14671   3.698   2.374   8.986 -0.3438 -0.6537  0.6858
  135SAPE  C31214672   3.812   2.230   8.859 -0.2344 -0.4509 -0.0678
  135SAPE  H12X14673   3.731   2.154   8.854 -1.8892  1.2246  0.0602
  135SAPE  H12Y14674   3.912   2.183   8.874 -0.4364 -0.3014  2.1902
  135SAPE  C31314675   3.812   2.317   8.727 -0.2946  0.9640 -0.4063
  135SAPE  H13X14676   3.892   2.393   8.740  0.1841  0.3415  0.3031
  135SAPE  H13Y14677   3.718   2.371   8.702  0.6762  1.1260 -4.3444
  135SAPE  C31414678   3.844   2.228   8.604  0.8175  0.4337  0.6401
  135SAPE  H14X14679   3.940   2.176   8.627  1.6927  1.6326 -0.1652
  135SAPE  H14Y14680   3.859   2.299   8.520 -0.9489  0.0819 -0.0052
  135SAPE  C31514681   3.741   2.121   8.573  0.2407  0.4203  0.2675
  135SAPE  H15X14682   3.640   2.166   8.575  1.1276  2.7742 -2.1807
  135SAPE  H15Y14683   3.743   2.052   8.661  0.2798  2.6120  2.0643
  135SAPE  C31614684   3.762   2.058   8.443  0.2750 -0.3737 -0.0251
  135SAPE  H16X14685   3.861   2.007   8.446 -1.3090 -3.6466  1.1532
  135SAPE  H16Y14686   3.768   2.136   8.364 -1.9212 -0.5913 -0.4681
  135SAPE  C31714687   3.651   1.966   8.401 -0.9445 -0.4526  0.4804
  135SAPE  H17X14688   3.546   1.994   8.427 -1.4577 -0.4926 -1.3954
  135SAPE  H17Y14689   3.652   1.863   8.442  1.6030 -1.2923 -1.4138
  135SAPE  C31814690   3.661   1.947   8.247 -0.4490  0.3673 -1.0549
  135SAPE  H18X14691   3.615   1.852   8.212 -0.0506  0.3017 -1.4052
  135SAPE  H18Y14692   3.768   1.923   8.226 -0.1420  0.0855  0.6457
  135SAPE  H18Z14693   3.625   2.034   8.188 -4.5962 -0.9181 -0.7193
  136SAPE     N14694   6.370   3.657  10.847 -0.1452 -0.1520 -0.0082
  136SAPE   HN114695   6.329   3.637  10.941  1.9114 -2.0258  0.5830
  136SAPE   HN214696   6.450   3.720  10.871  0.0130 -0.3425 -0.0383
  136SAPE   HN314697   6.294   3.711  10.800 -0.9811 -1.6016 -0.3861
  136SAPE   C1214698   6.412   3.530  10.788 -0.3528  0.0863  0.0236
  136SAPE  H12A14699   6.482   3.492  10.866  1.2900 -1.3482 -2.0307
  136SAPE  H12B14700   6.461   3.560  10.693  0.5459 -3.0540 -0.6003
  136SAPE   C1114701   6.296   3.439  10.752  1.0355  0.6674 -0.5351
  136SAPE  H11A14702   6.341   3.338  10.747  0.7029  0.2869  2.4308
  136SAPE  H11B14703   6.241   3.461  10.658 -1.2580 -2.4538 -0.0682
  136SAPE     P14704   6.118   3.311  10.891  0.1156 -0.0349  0.4679
  136SAPE   O1314705   6.194   3.234  10.987 -0.2878  0.4277  0.1020
  136SAPE   O1414706   5.973   3.342  10.923 -0.2221  0.7460 -0.1335
  136SAPE   O1214707   6.198   3.447  10.865 -0.1125 -0.0014  0.2023
  136SAPE   O1114708   6.110   3.233  10.751 -0.1443  0.2491 -0.9148
  136SAPE    C114709   6.134   3.093  10.747 -0.1721 -0.0752  0.1065
  136SAPE    HA14710   6.069   3.045  10.823  0.1603  2.8860  2.4657
  136SAPE    HB14711   6.102   3.054  10.648 -0.2719  2.3141 -0.8855
  136SAPE    C214712   6.282   3.043  10.765 -0.3132  0.3325  0.2516
  136SAPE    HS14713   6.323   3.079  10.862 -1.7264 -1.0538  1.4206
  136SAPE   O2114714   6.356   3.098  10.650 -0.2691 -0.1628 -0.5133
  136SAPE   C2114715   6.482   3.080  10.650  0.3433  0.1744  0.1763
  136SAPE   O2214716   6.552   3.050  10.745 -0.6084 -0.2136  0.7052
  136SAPE   C2214717   6.543   3.117  10.513 -0.0634  0.2730  0.8535
  136SAPE   H2R14718   6.478   3.071  10.435 -2.1857  0.4841  2.4052
  136SAPE   H2S14719   6.538   3.228  10.503 -2.5994  0.2802  1.5820
  136SAPE    C314720   6.296   2.890  10.773  0.2004 -0.5702 -0.9036
  136SAPE    HX14721   6.241   2.853  10.862 -0.1105  0.6489 -0.5669
  136SAPE    HY14722   6.400   2.867  10.803  0.2746  0.3734 -0.3905
  136SAPE   O3114723   6.248   2.823  10.654 -0.2097  0.7313 -0.0473
  136SAPE   C3114724   6.334   2.799  10.560  0.8429 -0.3244 -0.3441
  136SAPE   O3214725   6.450   2.794  10.569 -0.4216 -0.2973 -0.1696
  136SAPE   C3214726   6.255   2.783  10.433 -0.2777  0.3560 -0.9550
  136SAPE   H2X14727   6.171   2.856  10.432 -0.5076  0.1051 -2.0341
  136SAPE   H2Y14728   6.204   2.685  10.440  1.6824 -0.6484 -0.0640
  136SAPE   C2314729   6.694   3.065  10.503  0.0866 -0.2571 -0.1480
  136SAPE   H3R14730   6.702   2.957  10.527  0.5253 -0.4938 -1.3204
  136SAPE   H3S14731   6.769   3.111  10.571  0.2139  1.4440 -1.3809
  136SAPE   C2414732   6.752   3.065  10.360  0.4816 -0.6481 -0.7433
  136SAPE   H4R14733   6.691   3.020  10.280 -0.3743  1.4009 -1.3188
  136SAPE   H4S14734   6.850   3.012  10.357  1.8438  1.7314 -2.6702
  136SAPE   C2514735   6.783   3.209  10.323 -0.2314  0.1184 -1.2586
  136SAPE   H5R14736   6.825   3.268  10.406  1.8018 -1.8381 -0.8304
  136SAPE   C2614737   6.770   3.260  10.197  0.4691 -0.4118 -0.0431
  136SAPE   H6R14738   6.813   3.359  10.177  0.3493  0.0755  1.9389
  136SAPE   C2714739   6.722   3.175  10.085  0.2740 -0.2093  0.6169
  136SAPE   H7R14740   6.762   3.071  10.093 -2.1929 -1.4314 -1.5353
  136SAPE   H7S14741   6.771   3.210   9.991 -0.5893  2.3959  1.0546
  136SAPE   C2814742   6.569   3.154  10.067 -0.2217  0.7520 -0.2486
  136SAPE   H8R14743   6.509   3.140  10.158  0.5381 -1.3054 -0.0003
  136SAPE   C2914744   6.513   3.142   9.946  0.1941 -0.3683  0.0629
  136SAPE   H9R14745   6.404   3.129   9.942  0.1757  0.0282 -1.3568
  136SAPE  C21014746   6.584   3.154   9.810  0.2060 -1.0264  0.5135
  136SAPE  H10R14747   6.545   3.080   9.738  0.1320 -1.5722  1.1050
  136SAPE  H10S14748   6.693   3.134   9.818  0.2645 -0.8249  0.2508
  136SAPE  C21114749   6.572   3.299   9.757  0.1269 -0.1200 -0.4491
  136SAPE  H11R14750   6.593   3.376   9.833  1.2440 -1.0529  0.2324
  136SAPE  C21214751   6.509   3.342   9.648 -0.7407  0.6216  0.1749
  136SAPE  H12R14752   6.509   3.450   9.628  1.3035  0.2916 -2.0708
  136SAPE  C21314753   6.453   3.262   9.535  0.2757  0.1645 -0.1120
  136SAPE  H13R14754   6.372   3.312   9.479 -0.9363 -0.3531  1.1053
  136SAPE  H13S14755   6.420   3.169   9.585  0.1495 -0.0553 -0.5997
  136SAPE  C21414756   6.565   3.213   9.449  0.5369 -0.3193 -0.1793
  136SAPE  H14R14757   6.634   3.141   9.496  1.8656 -0.8577 -2.8145
  136SAPE  C21514758   6.579   3.234   9.319  0.1823 -0.2584  0.0718
  136SAPE  H15R14759   6.670   3.189   9.278  1.9571  2.8564  0.3062
  136SAPE  C21614760   6.492   3.318   9.228 -0.6223 -0.6262 -0.4967
  136SAPE  H16R14761   6.402   3.364   9.272  1.4581  0.9284  2.4816
  136SAPE  H16S14762   6.455   3.261   9.140 -2.8283  1.0680 -0.7439
  136SAPE  C21714763   6.564   3.436   9.154 -0.0793 -0.4387  0.1103
  136SAPE  H17R14764   6.661   3.405   9.111 -0.7800  0.2918 -2.1215
  136SAPE  H17S14765   6.582   3.512   9.233 -1.2113 -0.2730  0.2332
  136SAPE  C21814766   6.480   3.507   9.040 -0.0222  0.4998 -0.2257
  136SAPE  H18R14767   6.376   3.472   9.056  0.4172 -1.6664 -1.7265
  136SAPE  H18S14768   6.492   3.453   8.944  1.5718 -1.1108  0.8324
  136SAPE  C21914769   6.518   3.656   9.026 -0.0907 -0.0789 -0.6301
  136SAPE  H19R14770   6.626   3.661   9.053 -0.1545  0.3622 -0.4447
  136SAPE  H19S14771   6.465   3.706   9.110 -1.0438  1.0594 -1.8745
  136SAPE  C22014772   6.481   3.727   8.893 -0.3731  1.0730  0.8992
  136SAPE  H20R14773   6.375   3.707   8.866 -0.4961 -0.2138  2.1908
  136SAPE  H20S14774   6.533   3.687   8.804 -1.1080  1.9946  0.0345
  136SAPE  H20T14775   6.482   3.836   8.912 -0.2415  0.7350  3.1838
  136SAPE   C3314776   6.343   2.793  10.303  0.2330 -0.5068 -0.7447
  136SAPE   H3X14777   6.421   2.715  10.321  1.5350  0.9887  0.3773
  136SAPE   H3Y14778   6.378   2.898  10.295 -0.4175 -0.2622 -0.4439
  136SAPE   C3414779   6.267   2.758  10.171 -0.3302 -0.0035  0.2362
  136SAPE   H4X14780   6.176   2.818  10.152 -1.9418 -2.4898 -0.4966
  136SAPE   H4Y14781   6.232   2.653  10.187 -1.6934  0.4926  0.6325
  136SAPE   C3514782   6.364   2.746  10.055 -1.0481  0.0828 -0.0871
  136SAPE   H5X14783   6.447   2.676  10.075  2.4486  3.5529 -1.1767
  136SAPE   H5Y14784   6.412   2.846  10.049  0.9362 -0.6464  2.1578
  136SAPE   C3614785   6.298   2.718   9.922 -0.3909 -0.5841  0.1339
  136SAPE   H6X14786   6.197   2.763   9.908  0.0882  0.7563  0.8462
  136SAPE   H6Y14787   6.295   2.609   9.904 -0.8319 -0.3234 -1.6560
  136SAPE   C3714788   6.374   2.791   9.810 -0.5503  0.1983  0.3785
  136SAPE   H7X14789   6.477   2.749   9.800 -1.1085 -1.8016  2.2699
  136SAPE   H7Y14790   6.375   2.898   9.838  0.5975  0.5164 -0.7791
  136SAPE   C3814791   6.310   2.777   9.675  0.2514  0.0326 -0.2082
  136SAPE   H8X14792   6.204   2.810   9.679 -0.0667 -1.0470  0.9025
  136SAPE   H8Y14793   6.311   2.670   9.645 -1.0057 -0.6719  2.0184
  136SAPE   C3914794   6.382   2.861   9.568 -0.2524  0.7651 -0.3063
  136SAPE   H9X14795   6.493   2.848   9.568 -0.3300 -0.6331 -2.7519
  136SAPE   H9Y14796   6.353   2.967   9.580 -1.4033  0.2495  1.9547
  136SAPE  C31014797   6.347   2.811   9.429  0.3367 -0.5767  0.6515
  136SAPE  H10X14798   6.237   2.811   9.415  0.1839 -2.4329  1.5598
  136SAPE  H10Y14799   6.389   2.708   9.417 -0.6805 -0.8385 -0.9590
  136SAPE  C31114800   6.414   2.878   9.309  0.9084  0.5776 -0.6985
  136SAPE  H11X14801   6.524   2.862   9.315  0.7415 -1.2169 -1.7486
  136SAPE  H11Y14802   6.400   2.988   9.301  1.5649  0.7400  0.2565
  136SAPE  C31214803   6.370   2.802   9.182 -0.2005  0.1675 -0.2436
  136SAPE  H12X14804   6.259   2.797   9.184 -0.2200  0.6667  1.3286
  136SAPE  H12Y14805   6.409   2.698   9.184 -0.3474  0.1237  1.3596
  136SAPE  C31314806   6.403   2.868   9.049 -0.5304 -0.4494 -0.8557
  136SAPE  H13X14807   6.503   2.917   9.045 -0.5601 -0.1967  0.7306
  136SAPE  H13Y14808   6.331   2.943   9.010 -0.9898 -1.5885 -2.2843
  136SAPE  C31414809   6.417   2.755   8.944  0.3800  0.0398  0.1787
  136SAPE  H14X14810   6.317   2.707   8.940  1.2996 -1.8773 -2.2064
  136SAPE  H14Y14811   6.485   2.674   8.979  0.1778 -0.5222 -0.7092
  136SAPE  C31514812   6.460   2.793   8.801  0.6855  0.7272 -0.8197
  136SAPE  H15X14813   6.545   2.732   8.763  1.0374  0.7089 -0.0240
  136SAPE  H15Y14814   6.478   2.902   8.805  1.2315  0.6053  0.5863
  136SAPE  C31614815   6.335   2.777   8.717  0.3660 -0.1761  0.5427
  136SAPE  H16X14816   6.269   2.858   8.754  1.5721  0.3527  1.5784
  136SAPE  H16Y14817   6.280   2.681   8.728 -0.3163  0.3273  1.7474
  136SAPE  C31714818   6.360   2.788   8.565  0.1092 -0.1319  0.4890
  136SAPE  H17X14819   6.261   2.762   8.522  0.5417 -1.7669  0.4148
  136SAPE  H17Y14820   6.415   2.707   8.513  1.2930  1.4731 -0.8732
  136SAPE  C31814821   6.418   2.921   8.521  0.6353 -0.6200  0.3035
  136SAPE  H18X14822   6.529   2.918   8.534  0.6436  0.1859  0.4501
  136SAPE  H18Y14823   6.378   3.011   8.572  2.1412  0.7077 -0.7375
  136SAPE  H18Z14824   6.392   2.930   8.414  0.4275 -4.5732 -0.1078
  137SAPE     N14825   5.024   4.907  10.779 -0.4691 -0.3146 -0.7559
  137SAPE   HN114826   5.078   4.853  10.849 -0.3474  0.9703  0.1620
  137SAPE   HN214827   4.947   4.952  10.832  1.7008 -0.3446  2.7465
  137SAPE   HN314828   4.988   4.839  10.709 -1.4354  1.1803 -1.7657
  137SAPE   C1214829   5.082   5.025  10.712  0.7890  0.0001  0.2677
  137SAPE  H12A14830   5.002   5.065  10.645  2.1674 -0.0347 -1.4624
  137SAPE  H12B14831   5.180   5.000  10.666  0.3963 -1.6778  0.2443
  137SAPE   C1114832   5.114   5.130  10.824 -0.8494  0.9664  0.2811
  137SAPE  H11A14833   5.169   5.218  10.785  0.8392 -0.5684 -0.9598
  137SAPE  H11B14834   5.186   5.074  10.888 -1.5528 -0.1153  0.1574
  137SAPE     P14835   4.991   5.238  11.034 -0.3095  0.3750  0.1219
  137SAPE   O1314836   4.854   5.234  11.086  0.1639 -0.1519  0.6351
  137SAPE   O1414837   5.096   5.184  11.127  0.0181 -0.2798 -0.0228
  137SAPE   O1214838   5.003   5.159  10.899  0.7697 -0.4330  0.7864
  137SAPE   O1114839   5.017   5.389  10.988  0.2371  0.3671  0.4712
  137SAPE    C114840   4.909   5.481  10.958  0.0061 -0.5240  0.0983
  137SAPE    HA14841   4.836   5.494  11.040  0.2689 -0.3117  0.3017
  137SAPE    HB14842   4.951   5.582  10.936  0.5499 -0.9198 -0.7108
  137SAPE    C214843   4.836   5.449  10.826 -0.2701 -0.3467 -0.3447
  137SAPE    HS14844   4.821   5.338  10.827 -1.9767 -0.1479 -0.1851
  137SAPE   O2114845   4.919   5.483  10.711  0.5494  0.5940  0.0345
  137SAPE   C2114846   4.919   5.389  10.615  0.0314 -0.3185 -0.2161
  137SAPE   O2214847   4.845   5.288  10.606 -0.1316 -0.1766  0.4657
  137SAPE   C2214848   5.035   5.416  10.514 -0.0116 -0.8647  0.6103
  137SAPE   H2R14849   5.003   5.516  10.477  1.6263 -0.1474  1.0734
  137SAPE   H2S14850   5.124   5.419  10.580 -1.4036  2.4379  2.6345
  137SAPE    C314851   4.698   5.518  10.815 -0.1052 -0.2812  0.4883
  137SAPE    HX14852   4.727   5.625  10.810 -1.8140  0.2348  0.9910
  137SAPE    HY14853   4.647   5.509  10.913  0.2944  1.4517  0.8861
  137SAPE   O3114854   4.612   5.486  10.706  0.1554  0.4236  0.2907
  137SAPE   C3114855   4.555   5.367  10.705  0.1910  0.6440  0.1875
  137SAPE   O3214856   4.573   5.286  10.798 -0.6127 -0.0830 -0.3445
  137SAPE   C3214857   4.466   5.345  10.582  0.9486 -0.3997 -0.6925
  137SAPE   H2X14858   4.363   5.331  10.622  1.7031  0.1107  1.5902
  137SAPE   H2Y14859   4.499   5.252  10.531  1.9790 -0.5581  0.2096
  137SAPE   C2314860   5.031   5.308  10.405  0.0594 -0.4610  0.4668
  137SAPE   H3R14861   4.932   5.306  10.355  0.5069 -1.6895 -0.4176
  137SAPE   H3S14862   5.056   5.209  10.448  1.2562  0.2734  1.5313
  137SAPE   C2414863   5.139   5.349  10.297  0.6719 -0.6506  0.1058
  137SAPE   H4R14864   5.238   5.368  10.345  1.4215 -1.3939 -1.1184
  137SAPE   H4S14865   5.116   5.445  10.246  1.6697  0.6853  2.0164
  137SAPE   C2514866   5.151   5.226  10.206 -0.4260 -0.6568 -0.2827
  137SAPE   H5R14867   5.186   5.133  10.255  0.0865  0.4216  1.4938
  137SAPE   C2614868   5.120   5.205  10.079 -0.2750  0.1876 -0.1924
  137SAPE   H6R14869   5.131   5.103  10.040 -0.8674  0.3376 -0.7651
  137SAPE   C2714870   5.070   5.304   9.982 -0.4046 -0.0645  1.0428
  137SAPE   H7R14871   5.156   5.365   9.947  0.1864 -0.5008  1.6976
  137SAPE   H7S14872   4.992   5.375  10.018  0.1364  0.2978  1.5174
  137SAPE   C2814873   5.001   5.234   9.866 -0.2862 -0.0033 -0.7168
  137SAPE   H8R14874   4.943   5.144   9.892  1.4900 -0.8075  0.7152
  137SAPE   C2914875   4.990   5.270   9.740  0.2047 -0.3718 -0.0723
  137SAPE   H9R14876   4.931   5.212   9.667  0.3588  1.9614 -2.1828
  137SAPE  C21014877   5.043   5.402   9.690 -0.1762  0.1768 -0.1632
  137SAPE  H10R14878   5.044   5.472   9.777  3.4333 -1.1024  1.0269
  137SAPE  H10S14879   4.971   5.451   9.621  0.2016  1.4839  0.3269
  137SAPE  C21114880   5.176   5.378   9.631  0.3358  0.2143  0.0958
  137SAPE  H11R14881   5.254   5.370   9.708  1.4302 -0.4215 -1.0603
  137SAPE  C21214882   5.210   5.378   9.502 -0.3677 -0.6535  0.5652
  137SAPE  H12R14883   5.316   5.370   9.475 -0.2565 -1.9564  1.3101
  137SAPE  C21314884   5.116   5.381   9.385  0.1630  0.1840 -0.4190
  137SAPE  H13R14885   5.123   5.480   9.334 -2.2013  0.8333  0.3604
  137SAPE  H13S14886   5.010   5.382   9.419  0.1973  0.1193 -0.3105
  137SAPE  C21414887   5.147   5.276   9.283 -0.3212  0.1457 -0.2668
  137SAPE  H14R14888   5.095   5.182   9.304 -0.3593 -0.0207 -1.0888
  137SAPE  C21514889   5.248   5.276   9.186  0.6509  0.2495 -0.0676
  137SAPE  H15R14890   5.252   5.188   9.120 -0.4999 -0.3239  0.6019
  137SAPE  C21614891   5.352   5.372   9.156 -0.2083 -0.1508 -0.0651
  137SAPE  H16R14892   5.450   5.341   9.197  1.0411  2.2072 -1.0721
  137SAPE  H16S14893   5.324   5.466   9.208 -0.2287 -1.0652  1.6520
  137SAPE  C21714894   5.380   5.404   9.003 -0.0586 -0.1560  0.1275
  137SAPE  H17R14895   5.461   5.480   9.000  2.1693 -2.4522 -0.6605
  137SAPE  H17S14896   5.289   5.453   8.961  0.8287  0.1795 -1.4608
  137SAPE  C21814897   5.428   5.284   8.921 -0.5915  0.0780 -0.0019
  137SAPE  H18R14898   5.371   5.189   8.930  1.0428 -0.8086  1.5911
  137SAPE  H18S14899   5.533   5.275   8.954 -0.8131  1.9582  1.3920
  137SAPE  C21914900   5.432   5.312   8.769  0.6988  0.0233  0.1653
  137SAPE  H19R14901   5.480   5.410   8.752  0.4349  0.6359  2.5323
  137SAPE  H19S14902   5.325   5.324   8.741 -0.4384  0.3037  4.0280
  137SAPE  C22014903   5.492   5.195   8.687  0.6624 -0.8270 -1.4355
  137SAPE  H20R14904   5.585   5.169   8.743 -0.0174  1.0183  0.6859
  137SAPE  H20S14905   5.512   5.222   8.581 -2.0627  1.4084 -1.4938
  137SAPE  H20T14906   5.422   5.109   8.702  0.0560  0.1607  2.5238
  137SAPE   C3314907   4.448   5.458  10.479  0.3756 -0.2891  0.0588
  137SAPE   H3X14908   4.408   5.548  10.531  1.6485 -0.3330  1.1874
  137SAPE   H3Y14909   4.372   5.426  10.405 -1.0728  1.2235  0.8348
  137SAPE   C3414910   4.578   5.482  10.404 -0.8302 -0.6583 -0.0792
  137SAPE   H4X14911   4.615   5.380  10.381 -0.0819 -0.5274  0.5046
  137SAPE   H4Y14912   4.655   5.536  10.463 -1.1823  0.8774 -0.9557
  137SAPE   C3514913   4.558   5.549  10.264 -0.2007 -0.0934  0.1744
  137SAPE   H5X14914   4.512   5.649  10.282 -0.9452 -0.4774  0.4021
  137SAPE   H5Y14915   4.485   5.490  10.205 -1.8269  1.8723  0.1361
  137SAPE   C3614916   4.695   5.561  10.193  0.6556 -0.2416  0.0461
  137SAPE   H6X14917   4.745   5.463  10.181 -1.2823 -1.1523 -1.0948
  137SAPE   H6Y14918   4.757   5.625  10.260  0.4719 -0.4711  0.4373
  137SAPE   C3714919   4.693   5.635  10.052  0.0954  0.5961 -0.9462
  137SAPE   H7X14920   4.798   5.663  10.030  0.2806  1.7545  1.1197
  137SAPE   H7Y14921   4.635   5.728  10.072  0.5944  1.4485 -3.1284
  137SAPE   C3814922   4.640   5.549   9.941  1.0375 -0.2406  0.3534
  137SAPE   H8X14923   4.535   5.516   9.959  0.2600  1.0971 -1.4298
  137SAPE   H8Y14924   4.699   5.454   9.943 -1.1104 -1.8622 -3.1252
  137SAPE   C3914925   4.651   5.613   9.800  0.4901  0.5310 -0.3669
  137SAPE   H9X14926   4.746   5.671   9.795  0.4592  0.4707 -2.2786
  137SAPE   H9Y14927   4.561   5.675   9.782  1.0371  1.3723 -0.2803
  137SAPE  C31014928   4.651   5.496   9.704 -0.2069  0.1232  0.0188
  137SAPE  H10X14929   4.547   5.456   9.704  0.0884 -0.6636  0.0144
  137SAPE  H10Y14930   4.714   5.406   9.722 -1.1128 -0.7520 -1.0122
  137SAPE  C31114931   4.694   5.535   9.557 -0.3169  0.2117 -0.9071
  137SAPE  H11X14932   4.804   5.535   9.545 -0.3033 -0.4907 -0.8584
  137SAPE  H11Y14933   4.660   5.638   9.533  1.1863  1.5148  2.0821
  137SAPE  C31214934   4.640   5.432   9.455  0.6046 -0.0175  0.5521
  137SAPE  H12X14935   4.531   5.415   9.451  0.8805 -1.8753 -0.3584
  137SAPE  H12Y14936   4.676   5.332   9.488 -0.5856 -1.2043 -1.5708
  137SAPE  C31314937   4.698   5.455   9.312  0.0471  0.0685 -0.7203
  137SAPE  H13X14938   4.664   5.381   9.237  0.7832 -1.0583  0.0430
  137SAPE  H13Y14939   4.807   5.436   9.317 -0.1534 -0.7905  2.5803
  137SAPE  C31414940   4.675   5.603   9.262  0.0597  0.0105  0.5630
  137SAPE  H14X14941   4.732   5.674   9.326  1.8935 -0.2151 -0.7463
  137SAPE  H14Y14942   4.567   5.625   9.277 -0.1331 -1.0519  0.8528
  137SAPE  C31514943   4.725   5.632   9.117 -0.5643  0.0879 -1.1856
  137SAPE  H15X14944   4.684   5.732   9.093  0.2589  1.2116  1.6661
  137SAPE  H15Y14945   4.675   5.552   9.059  0.4909 -1.5292  0.0568
  137SAPE  C31614946   4.878   5.633   9.106 -0.0342 -0.2152 -0.1777
  137SAPE  H16X14947   4.937   5.551   9.152  0.5227 -0.0350 -0.5628
  137SAPE  H16Y14948   4.907   5.719   9.169 -0.1544 -1.3437  1.4743
  137SAPE  C31714949   4.927   5.642   8.956 -0.0671  0.1904  0.5441
  137SAPE  H17X14950   5.022   5.700   8.956  0.1053 -0.0933  0.0175
  137SAPE  H17Y14951   4.857   5.713   8.907  3.1841  2.3943 -1.3198
  137SAPE  C31814952   4.933   5.513   8.874 -0.1431  0.5977 -0.1656
  137SAPE  H18X14953   4.831   5.469   8.873  0.4722 -0.9877 -2.5505
  137SAPE  H18Y14954   5.021   5.450   8.900  0.7363  1.0629 -1.9045
  137SAPE  H18Z14955   4.943   5.544   8.768  0.3160 -0.9127 -0.5930
  138SAPE     N14956   2.001   5.002  10.551 -0.7457 -0.2823  1.0511
  138SAPE   HN114957   2.047   5.054  10.628  0.8540 -3.0112  2.0955
  138SAPE   HN214958   2.078   5.000  10.481 -1.4408 -0.4826  0.2790
  138SAPE   HN314959   1.922   5.057  10.511  0.6939  0.9671 -0.2280
  138SAPE   C1214960   1.962   4.857  10.585 -0.4285  0.5959  1.1707
  138SAPE  H12A14961   1.950   4.806  10.487  1.1990  0.2591  1.1242
  138SAPE  H12B14962   1.867   4.863  10.643 -1.6395  0.7895 -0.7051
  138SAPE   C1114963   2.067   4.783  10.665  0.6388  0.2277 -0.2522
  138SAPE  H11A14964   2.024   4.682  10.678 -0.3322  0.8001  1.3286
  138SAPE  H11B14965   2.072   4.829  10.766 -2.6773 -0.4712  0.3431
  138SAPE     P14966   2.309   4.675  10.659  0.2884  0.1184  0.6329
  138SAPE   O1314967   2.408   4.744  10.745  0.2408 -0.3110  0.3892
  138SAPE   O1414968   2.256   4.549  10.710 -0.0084 -0.2655 -0.0154
  138SAPE   O1214969   2.192   4.772  10.603 -0.4681 -0.0950 -0.2642
  138SAPE   O1114970   2.384   4.639  10.521 -0.5546 -1.0265  0.5596
  138SAPE    C114971   2.343   4.537  10.430 -0.2118 -0.7781  0.5192
  138SAPE    HA14972   2.427   4.465  10.416 -0.2397 -0.7932  0.4271
  138SAPE    HB14973   2.255   4.478  10.464 -1.6766  1.0417  0.0198
  138SAPE    C214974   2.282   4.587  10.295 -0.5255  0.3247  0.7156
  138SAPE    HS14975   2.261   4.495  10.237  1.1951 -0.4809  1.2861
  138SAPE   O2114976   2.366   4.680  10.225  0.5374  0.3102 -0.0460
  138SAPE   C2114977   2.467   4.615  10.159 -0.0691  0.0743  0.2378
  138SAPE   O2214978   2.492   4.497  10.167 -0.5025  0.1048  0.0963
  138SAPE   C2214979   2.520   4.709  10.052 -0.8275 -0.2839 -0.4727
  138SAPE   H2R14980   2.432   4.762  10.011 -0.2974  0.1281 -1.0850
  138SAPE   H2S14981   2.581   4.793  10.094  1.5137 -1.0217 -2.2062
  138SAPE    C314982   2.139   4.646  10.326  0.2374 -0.1726  0.3071
  138SAPE    HX14983   2.151   4.748  10.369 -0.6033 -0.2016  0.6359
  138SAPE    HY14984   2.097   4.581  10.406  2.2979 -0.6683  1.0307
  138SAPE   O3114985   2.058   4.659  10.207  0.0101  0.7703 -0.0081
  138SAPE   C3114986   2.011   4.548  10.156 -0.5481 -0.0541 -0.0917
  138SAPE   O3214987   2.023   4.435  10.207  0.3641 -0.3917 -0.2350
  138SAPE   C3214988   1.966   4.571  10.011 -0.7208 -0.3833 -0.3780
  138SAPE   H2X14989   1.902   4.662  10.018 -0.9608 -0.6343  1.1897
  138SAPE   H2Y14990   1.910   4.485   9.969 -1.3019 -0.8960  1.3638
  138SAPE   C2314991   2.610   4.641   9.943 -0.2945  0.3148 -1.0129
  138SAPE   H3R14992   2.567   4.553   9.891 -1.1840  0.4464 -0.5192
  138SAPE   H3S14993   2.701   4.607   9.998 -0.3905  0.0694 -1.0023
  138SAPE   C2414994   2.654   4.741   9.838 -0.4806  0.2841  0.6932
  138SAPE   H4R14995   2.697   4.833   9.883  1.5531 -0.9742  1.4947
  138SAPE   H4S14996   2.575   4.771   9.766 -0.2180 -0.9384 -0.1380
  138SAPE   C2514997   2.759   4.667   9.758  0.2440  0.6154 -0.1497
  138SAPE   H5R14998   2.853   4.645   9.810 -0.3041 -3.3554 -0.5841
  138SAPE   C2614999   2.736   4.611   9.637  0.0698 -1.1621 -0.9477
  138SAPE   H6R15000   2.821   4.579   9.576 -0.2491 -0.5938 -1.6987
  138SAPE   C2715001   2.615   4.632   9.554 -0.9644  0.0017  0.2777
  138SAPE   H7R15002   2.634   4.589   9.453 -1.0186  1.6335 -0.4645
  138SAPE   H7S15003   2.611   4.743   9.553  0.8992  0.1145 -1.5371
  138SAPE   C2815004   2.482   4.580   9.590  0.9351 -0.6986 -0.9679
  138SAPE   H8R15005   2.482   4.499   9.665 -0.4016  0.1766  0.0172
  138SAPE   C2915006   2.358   4.612   9.547  0.4916 -0.0348  0.1804
  138SAPE   H9R15007   2.260   4.568   9.573  1.5441 -1.4464  2.0011
  138SAPE  C21015008   2.342   4.720   9.443  0.2930  0.0333 -0.5300
  138SAPE  H10R15009   2.439   4.752   9.400 -1.0643  1.8294 -2.4094
  138SAPE  H10S15010   2.310   4.815   9.491 -0.6232 -1.0549  1.1213
  138SAPE  C21115011   2.247   4.680   9.326 -0.0729 -0.2437 -0.2808
  138SAPE  H11R15012   2.150   4.639   9.357  0.2402 -0.0308  1.0566
  138SAPE  C21215013   2.280   4.676   9.190 -0.0566  0.3302 -0.5051
  138SAPE  H12R15014   2.211   4.629   9.119  0.3824 -0.5529 -0.3710
  138SAPE  C21315015   2.416   4.691   9.125 -0.0038 -0.7855 -0.3012
  138SAPE  H13R15016   2.432   4.619   9.042 -0.0954 -1.5167  0.3023
  138SAPE  H13S15017   2.487   4.665   9.205 -2.4623  1.6050  2.9208
  138SAPE  C21415018   2.449   4.833   9.086 -0.0360  0.2766  0.0597
  138SAPE  H14R15019   2.393   4.915   9.134 -0.5395 -0.3468  0.5441
  138SAPE  C21515020   2.555   4.853   9.006 -0.1760 -0.6456 -0.3239
  138SAPE  H15R15021   2.570   4.956   8.971 -1.6276 -0.2174  0.2253
  138SAPE  C21615022   2.649   4.752   8.943 -0.0825 -0.4272  0.2602
  138SAPE  H16R15023   2.722   4.791   8.870  0.8471 -0.6875  1.0293
  138SAPE  H16S15024   2.600   4.680   8.873  1.4970  0.4298 -1.8410
  138SAPE  C21715025   2.742   4.694   9.044  0.0720 -0.5765  0.3174
  138SAPE  H17R15026   2.822   4.644   8.985  0.0316  0.3347 -0.5413
  138SAPE  H17S15027   2.687   4.620   9.105  0.3903 -0.0444  1.2782
  138SAPE  C21815028   2.801   4.798   9.145  0.0163 -0.0338 -0.1201
  138SAPE  H18R15029   2.727   4.863   9.196  1.1629  0.8599  0.4283
  138SAPE  H18S15030   2.863   4.869   9.086 -0.7092  1.1965  0.5612
  138SAPE  C21915031   2.894   4.737   9.250  0.5906  0.5610 -0.7774
  138SAPE  H19R15032   2.977   4.668   9.223  0.1607  0.9001 -3.2606
  138SAPE  H19S15033   2.828   4.663   9.301 -2.2071  1.8828 -2.2391
  138SAPE  C22015034   2.937   4.849   9.341  0.3886 -0.2642 -0.6106
  138SAPE  H20R15035   2.856   4.913   9.381  2.2302  2.5017 -0.9921
  138SAPE  H20S15036   2.995   4.928   9.289  2.0191 -0.6036  0.6235
  138SAPE  H20T15037   3.018   4.828   9.413  0.9292 -0.0360 -1.1401
  138SAPE   C3315038   2.079   4.600   9.915 -0.5044  0.4674 -0.0492
  138SAPE   H3X15039   2.133   4.504   9.902 -1.5703 -0.6233  2.8152
  138SAPE   H3Y15040   2.154   4.674   9.949  0.5472 -0.5435 -0.1209
  138SAPE   C3415041   2.026   4.651   9.774  0.6660  0.2064 -0.0206
  138SAPE   H4X15042   2.109   4.710   9.730  2.1557  0.5084  2.9402
  138SAPE   H4Y15043   1.942   4.720   9.800 -0.1870 -0.8206  0.0405
  138SAPE   C3515044   1.979   4.554   9.667 -0.1510 -0.8282  0.2318
  138SAPE   H5X15045   1.890   4.494   9.695 -0.2989 -1.3230 -1.2054
  138SAPE   H5Y15046   2.051   4.484   9.619  1.5321  1.2523 -0.4439
  138SAPE   C3615047   1.926   4.632   9.547  0.1535  0.2768 -0.8374
  138SAPE   H6X15048   2.006   4.691   9.497  0.8583 -1.6429 -2.0780
  138SAPE   H6Y15049   1.845   4.707   9.564 -0.7076 -0.4780 -1.4883
  138SAPE   C3715050   1.872   4.548   9.431  0.2477 -0.0579  0.1746
  138SAPE   H7X15051   1.796   4.476   9.468  1.4141 -0.8269  1.1629
  138SAPE   H7Y15052   1.952   4.478   9.400  0.2661 -0.6760  1.5746
  138SAPE   C3815053   1.821   4.635   9.317 -0.4594  0.4762  0.7248
  138SAPE   H8X15054   1.909   4.674   9.262 -0.6452 -0.4406 -0.2421
  138SAPE   H8Y15055   1.779   4.726   9.366 -0.3885  0.9646 -0.0819
  138SAPE   C3915056   1.720   4.567   9.219 -0.1496  0.0206 -0.0023
  138SAPE   H9X15057   1.703   4.647   9.143 -0.7023  0.5305  0.6398
  138SAPE   H9Y15058   1.631   4.532   9.275 -0.1538  0.4678  0.2774
  138SAPE  C31015059   1.789   4.450   9.146 -0.7575  0.1443 -0.6871
  138SAPE  H10X15060   1.802   4.362   9.214  1.0023  0.3624 -0.7101
  138SAPE  H10Y15061   1.886   4.472   9.097 -0.3431  1.1105  0.5040
  138SAPE  C31115062   1.697   4.395   9.038  0.9029 -0.0438  0.2193
  138SAPE  H11X15063   1.597   4.396   9.087  1.2981 -1.0954  1.0995
  138SAPE  H11Y15064   1.723   4.290   9.013 -0.0523 -0.7573  2.0051
  138SAPE  C31215065   1.689   4.484   8.915 -0.3862 -0.0532 -0.7796
  138SAPE  H12X15066   1.724   4.437   8.820  1.1557 -0.7412  0.0823
  138SAPE  H12Y15067   1.764   4.564   8.931 -0.2809 -0.2894 -0.0637
  138SAPE  C31315068   1.552   4.548   8.902  0.3336  0.4008  0.5531
  138SAPE  H13X15069   1.517   4.578   9.002  1.5424 -2.8106  2.0924
  138SAPE  H13Y15070   1.479   4.469   8.871  1.9427 -0.9235 -0.0154
  138SAPE  C31415071   1.560   4.670   8.809 -0.0715  0.5280  0.4364
  138SAPE  H14X15072   1.613   4.638   8.717  0.3542 -1.0700  1.1886
  138SAPE  H14Y15073   1.612   4.749   8.866 -1.6294  0.5490  1.9193
  138SAPE  C31515074   1.426   4.719   8.751  0.3617 -0.9482  0.2451
  138SAPE  H15X15075   1.360   4.736   8.838 -2.7945 -1.5422 -1.8963
  138SAPE  H15Y15076   1.379   4.635   8.697 -1.7044  0.0686  0.3804
  138SAPE  C31615077   1.435   4.851   8.672 -0.5820 -0.1767  0.5243
  138SAPE  H16X15078   1.517   4.849   8.597 -1.1745 -0.7930 -0.1249
  138SAPE  H16Y15079   1.453   4.936   8.741  1.6288 -1.1451  1.2404
  138SAPE  C31715080   1.320   4.874   8.572  0.6543  0.0036 -1.0425
  138SAPE  H17X15081   1.226   4.898   8.627  0.7039  1.4294 -1.5475
  138SAPE  H17Y15082   1.299   4.778   8.520 -0.6552 -0.5739  0.4653
  138SAPE  C31815083   1.349   4.987   8.472  0.0154  0.4708 -0.3260
  138SAPE  H18X15084   1.429   4.953   8.403 -1.0032 -0.9326 -0.8664
  138SAPE  H18Y15085   1.382   5.076   8.529 -0.1139 -0.6018  1.4940
  138SAPE  H18Z15086   1.258   5.018   8.416 -2.1883  0.4476  2.9700
  139SAPE     N15087   0.440   5.016  10.870  0.6759  0.1120 -0.2907
  139SAPE   HN115088   0.502   5.013  10.954  1.6887 -2.8392 -1.0381
  139SAPE   HN215089   0.342   5.035  10.902  0.7377  1.6834 -0.9251
  139SAPE   HN315090   0.434   4.925  10.821 -0.4929  0.2663 -0.4627
  139SAPE   C1215091   0.466   5.118  10.762 -0.1723 -0.1843 -0.6797
  139SAPE  H12A15092   0.501   5.213  10.808  0.1176 -0.9572  0.7229
  139SAPE  H12B15093   0.369   5.136  10.709 -2.3922 -3.9794  1.6490
  139SAPE   C1115094   0.572   5.066  10.665 -0.4808  0.7256  0.5134
  139SAPE  H11A15095   0.591   5.144  10.588  1.0917  1.8684  1.9793
  139SAPE  H11B15096   0.521   4.987  10.607 -1.1307  1.0516  0.6282
  139SAPE     P15097   0.813   5.115  10.744 -0.0396 -0.6232 -0.2373
  139SAPE   O1315098   0.751   5.237  10.804  0.1998  0.0275 -0.2786
  139SAPE   O1415099   0.917   5.052  10.827 -0.2008 -0.1119  0.1139
  139SAPE   O1215100   0.699   5.014  10.710  0.0263 -0.5217  0.7831
  139SAPE   O1115101   0.871   5.155  10.602  0.2248  0.0223  0.2207
  139SAPE    C115102   0.920   5.079  10.493  0.4372  0.5137 -0.0143
  139SAPE    HA15103   1.002   5.141  10.451 -0.2708 -0.3443 -2.8187
  139SAPE    HB15104   0.965   4.986  10.535 -1.7945 -0.5768  0.0951
  139SAPE    C215105   0.812   5.056  10.386  0.1349  0.7257 -0.6353
  139SAPE    HS15106   0.742   4.980  10.429  1.3715  0.9261  1.9458
  139SAPE   O2115107   0.877   5.006  10.267  0.0282 -0.5423 -0.1614
  139SAPE   C2115108   0.903   4.875  10.268  0.4468 -0.4008 -0.0965
  139SAPE   O2215109   0.875   4.795  10.356 -0.3850  0.3359  0.3064
  139SAPE   C2215110   0.993   4.835  10.153 -0.2182 -0.3530  0.3306
  139SAPE   H2R15111   1.065   4.920  10.148  0.2634 -0.8229 -0.8734
  139SAPE   H2S15112   1.045   4.742  10.183 -0.2821  0.0044  1.6163
  139SAPE    C315113   0.733   5.178  10.348 -0.6409  0.5026 -0.4609
  139SAPE    HX15114   0.807   5.261  10.346  1.9139 -1.5880  0.4807
  139SAPE    HY15115   0.670   5.207  10.435  0.2249  1.5954 -0.1734
  139SAPE   O3115116   0.656   5.166  10.225 -0.2899  0.3356 -0.3239
  139SAPE   C3115117   0.547   5.238  10.214 -0.0423  0.3852 -0.2839
  139SAPE   O3215118   0.503   5.314  10.300 -0.2435  0.0835  0.1535
  139SAPE   C3215119   0.481   5.202  10.083 -0.4469  0.6814 -1.1624
  139SAPE   H2X15120   0.402   5.280  10.078 -2.0275 -0.8980 -1.7089
  139SAPE   H2Y15121   0.421   5.109  10.096 -4.0222  2.7387 -1.7886
  139SAPE   C2315122   0.917   4.819  10.026 -0.3550 -0.8496 -0.1554
  139SAPE   H3R15123   0.862   4.914  10.011  1.8225  0.5296  0.2372
  139SAPE   H3S15124   0.848   4.732  10.040 -0.6402 -0.2520  2.6128
  139SAPE   C2415125   1.002   4.779   9.906  0.1422 -0.4565  0.0981
  139SAPE   H4R15126   0.940   4.789   9.815 -2.1531  2.3079  1.7987
  139SAPE   H4S15127   1.031   4.672   9.921  1.4037 -0.2291 -0.5519
  139SAPE   C2515128   1.135   4.845   9.883  0.4053  0.4540  0.1165
  139SAPE   H5R15129   1.209   4.814   9.959 -1.9472 -0.4330  2.2389
  139SAPE   C2615130   1.176   4.921   9.780 -0.9255  0.2404 -0.4054
  139SAPE   H6R15131   1.285   4.938   9.784 -0.4315 -2.6674  1.5814
  139SAPE   C2715132   1.094   4.962   9.663  0.1289 -0.2936 -0.3908
  139SAPE   H7R15133   0.996   4.909   9.664  0.3736 -0.7481 -0.0474
  139SAPE   H7S15134   1.152   4.924   9.576  1.4226 -0.3706  0.4680
  139SAPE   C2815135   1.070   5.108   9.643 -0.3077 -0.0178 -0.2044
  139SAPE   H8R15136   1.084   5.165   9.736  0.3002 -2.3034  1.1865
  139SAPE   C2915137   1.034   5.168   9.525 -0.5547  0.0361 -0.3716
  139SAPE   H9R15138   1.013   5.275   9.513 -0.9024 -0.0555 -0.5859
  139SAPE  C21015139   1.027   5.104   9.388  0.3691 -0.1822  1.0923
  139SAPE  H10R15140   0.924   5.112   9.347 -0.3900 -0.7350  2.8172
  139SAPE  H10S15141   1.048   4.997   9.405 -1.9128 -1.0171 -0.8339
  139SAPE  C21115142   1.137   5.150   9.292  0.1523  0.2453 -0.5631
  139SAPE  H11R15143   1.210   5.218   9.338 -1.9098  1.9129  0.4697
  139SAPE  C21215144   1.139   5.122   9.164  0.0058  0.3871  0.4898
  139SAPE  H12R15145   1.215   5.160   9.094  1.2139 -0.4049  1.3260
  139SAPE  C21315146   1.040   5.037   9.087  0.4242 -0.3288  0.2855
  139SAPE  H13R15147   0.941   5.086   9.074  1.1696  1.2275  0.2269
  139SAPE  H13S15148   1.016   4.943   9.140 -0.8780  0.2718  0.8049
  139SAPE  C21415149   1.090   4.992   8.952 -0.2129  0.3310  0.0907
  139SAPE  H14R15150   1.182   4.934   8.956  0.6702  1.6980  0.3765
  139SAPE  C21515151   1.028   5.013   8.832  1.1123 -0.1214 -0.1966
  139SAPE  H15R15152   1.070   4.971   8.739  1.3987 -2.8753  1.0748
  139SAPE  C21615153   0.900   5.091   8.812  0.4325 -0.2834 -0.2979
  139SAPE  H16R15154   0.919   5.192   8.854  0.9523 -0.7562  0.6445
  139SAPE  H16S15155   0.806   5.047   8.853 -0.1118 -0.4662 -1.6967
  139SAPE  C21715156   0.880   5.091   8.658 -0.2388 -0.2571  0.4720
  139SAPE  H17R15157   0.898   4.989   8.616 -0.3674  0.3012 -0.9912
  139SAPE  H17S15158   0.955   5.162   8.618 -1.7393  0.0189 -2.0929
  139SAPE  C21815159   0.747   5.144   8.613  0.4454  0.8653 -0.2039
  139SAPE  H18R15160   0.728   5.225   8.688  0.3783 -1.0542  1.9760
  139SAPE  H18S15161   0.666   5.072   8.638  2.0471 -0.4352  1.5010
  139SAPE  C21915162   0.736   5.176   8.466  0.2782 -0.5022 -0.0043
  139SAPE  H19R15163   0.631   5.207   8.448  0.8607  0.8199 -1.2683
  139SAPE  H19S15164   0.774   5.089   8.407  0.9799 -0.9433  1.0640
  139SAPE  C22015165   0.821   5.299   8.429  0.2812  0.0141  0.2006
  139SAPE  H20R15166   0.927   5.275   8.452 -0.2206 -1.0088  1.5674
  139SAPE  H20S15167   0.787   5.385   8.491 -0.0080  0.0500 -0.0060
  139SAPE  H20T15168   0.815   5.325   8.321 -1.5036  1.5944  0.6331
  139SAPE   C3315169   0.580   5.202   9.964 -0.5275 -0.1249 -0.0027
  139SAPE   H3X15170   0.642   5.110   9.957 -0.7669 -0.4095  1.3297
  139SAPE   H3Y15171   0.663   5.275   9.981 -1.0657  0.3895  0.4564
  139SAPE   C3415172   0.530   5.227   9.822  0.3606  0.4233 -0.1976
  139SAPE   H4X15173   0.471   5.320   9.805  0.4700  0.3180 -1.2444
  139SAPE   H4Y15174   0.463   5.141   9.801 -2.0657  1.9121  0.9898
  139SAPE   C3515175   0.628   5.210   9.716  0.5261  0.1199 -0.2982
  139SAPE   H5X15176   0.684   5.115   9.731  1.2123  0.4199 -0.8916
  139SAPE   H5Y15177   0.705   5.290   9.721  2.7658 -1.8513 -1.0155
  139SAPE   C3615178   0.573   5.202   9.571  0.0480 -0.1517 -0.0611
  139SAPE   H6X15179   0.483   5.268   9.572 -0.6249 -1.0290  1.6539
  139SAPE   H6Y15180   0.527   5.102   9.556  0.4552 -0.0522 -2.2242
  139SAPE   C3715181   0.680   5.249   9.477 -0.4799  0.0811 -0.1403
  139SAPE   H7X15182   0.764   5.177   9.473 -2.3232 -2.1315 -1.3843
  139SAPE   H7Y15183   0.708   5.344   9.527 -1.3558 -0.6759  1.8966
  139SAPE   C3815184   0.630   5.290   9.344 -0.1378 -0.5163 -0.1027
  139SAPE   H8X15185   0.719   5.303   9.278  0.6071 -2.0171  0.5517
  139SAPE   H8Y15186   0.577   5.387   9.344 -0.8277 -0.7640  3.5825
  139SAPE   C3915187   0.561   5.179   9.275  0.3177  0.3770 -0.0827
  139SAPE   H9X15188   0.463   5.160   9.324 -0.3617  0.8660 -1.2234
  139SAPE   H9Y15189   0.626   5.090   9.286  2.5214  1.9859  0.4899
  139SAPE  C31015190   0.531   5.198   9.125  0.7603  0.0709 -0.0870
  139SAPE  H10X15191   0.626   5.200   9.068  1.7915  1.7957  1.5828
  139SAPE  H10Y15192   0.483   5.297   9.112  2.0298  1.3348  3.6895
  139SAPE  C31115193   0.439   5.084   9.082  0.0948  0.0744  0.3341
  139SAPE  H11X15194   0.344   5.066   9.137  0.1164 -0.9399  0.0534
  139SAPE  H11Y15195   0.500   4.992   9.093  1.5997  0.9163 -0.6110
  139SAPE  C31215196   0.405   5.104   8.927 -0.6790  0.0794 -0.0934
  139SAPE  H12X15197   0.343   5.017   8.899  1.5967 -1.1650 -1.5288
  139SAPE  H12Y15198   0.495   5.096   8.863 -0.5328  1.1276 -0.0493
  139SAPE  C31315199   0.325   5.230   8.902  0.3835  0.1383  0.1149
  139SAPE  H13X15200   0.391   5.316   8.927  0.1149  0.4553 -0.2682
  139SAPE  H13Y15201   0.243   5.225   8.977 -0.9756 -1.5713 -1.3819
  139SAPE  C31415202   0.263   5.263   8.765  0.0859  0.2599 -0.2598
  139SAPE  H14X15203   0.197   5.352   8.763 -1.9782 -1.1528  1.3165
  139SAPE  H14Y15204   0.206   5.171   8.743 -2.2708  0.0172  5.1818
  139SAPE  C31515205   0.360   5.294   8.652 -1.0961  0.3353 -0.4785
  139SAPE  H15X15206   0.312   5.282   8.552 -2.3319 -0.3019  0.1760
  139SAPE  H15Y15207   0.447   5.225   8.660 -1.2972  0.3392  2.8666
  139SAPE  C31615208   0.417   5.439   8.654 -0.2539  0.2749 -0.5956
  139SAPE  H16X15209   0.459   5.462   8.755 -1.5290 -2.2828  0.6156
  139SAPE  H16Y15210   0.492   5.454   8.573  1.3736 -2.1810  0.3266
  139SAPE  C31715211   0.319   5.542   8.614  0.5682 -0.2447  0.1420
  139SAPE  H17X15212   0.268   5.583   8.704 -0.5833 -0.0647 -0.5759
  139SAPE  H17Y15213   0.244   5.489   8.552  0.8541  0.4971 -0.8506
  139SAPE  C31815214   0.373   5.652   8.527 -1.0361  0.7411  0.5757
  139SAPE  H18X15215   0.304   5.740   8.529 -2.3469 -0.1161 -2.1469
  139SAPE  H18Y15216   0.381   5.628   8.418 -1.5886  0.4667  0.5946
  139SAPE  H18Z15217   0.471   5.692   8.561 -0.6508  0.7988 -0.5359
  140SAPE     N15218   2.612   1.561  10.989 -0.2055 -0.2408 -0.3112
  140SAPE   HN115219   2.516   1.562  11.030  0.1031  1.8768  0.4784
  140SAPE   HN215220   2.630   1.477  10.929 -1.5134 -0.9845  0.2915
  140SAPE   HN315221   2.678   1.553  11.068 -2.7705 -2.9588  1.8021
  140SAPE   C1215222   2.648   1.681  10.905 -0.0155  0.2747 -0.0977
  140SAPE  H12A15223   2.746   1.664  10.855 -0.8776 -0.4111 -1.6456
  140SAPE  H12B15224   2.657   1.765  10.978  0.0646  0.2746 -0.1064
  140SAPE   C1115225   2.538   1.702  10.794  0.4666  0.1953 -0.3475
  140SAPE  H11A15226   2.556   1.626  10.716  0.5462  1.7600 -1.9177
  140SAPE  H11B15227   2.547   1.799  10.740  2.0634 -0.5779 -1.5363
  140SAPE     P15228   2.306   1.786  10.892  0.3148  0.2701 -0.1824
  140SAPE   O1315229   2.171   1.734  10.918 -0.4753  0.8482  0.4748
  140SAPE   O1415230   2.363   1.855  11.011  0.2290  0.6304  0.0560
  140SAPE   O1215231   2.401   1.676  10.849  0.7240 -0.1947  0.0889
  140SAPE   O1115232   2.309   1.887  10.769 -0.6255  0.2364  0.2229
  140SAPE    C115233   2.206   1.909  10.675  0.3042  0.5940  0.6005
  140SAPE    HA15234   2.108   1.903  10.728 -0.0070 -1.1720 -0.0988
  140SAPE    HB15235   2.217   2.006  10.622 -1.1244  0.3627 -0.1777
  140SAPE    C215236   2.202   1.806  10.561 -0.0396  0.0430  0.5480
  140SAPE    HS15237   2.196   1.708  10.612  2.4425  0.3863  1.6081
  140SAPE   O2115238   2.332   1.803  10.498  0.2794 -0.2213 -0.0272
  140SAPE   C2115239   2.378   1.693  10.451 -0.8798  0.1437 -0.1867
  140SAPE   O2215240   2.342   1.578  10.477 -0.4972 -0.6744 -0.1314
  140SAPE   C2215241   2.486   1.718  10.346 -0.1224  0.4607 -0.1112
  140SAPE   H2R15242   2.443   1.763  10.255  2.2879 -2.0616 -2.6858
  140SAPE   H2S15243   2.568   1.776  10.395  1.5103 -1.1757 -0.8147
  140SAPE    C315244   2.086   1.836  10.455  0.1260 -0.6662 -0.5464
  140SAPE    HX15245   2.092   1.946  10.445  2.2807 -0.7461 -0.6904
  140SAPE    HY15246   1.990   1.798  10.495 -0.4765  0.4643 -0.8958
  140SAPE   O3115247   2.115   1.774  10.328 -0.0965 -0.1475 -0.3070
  140SAPE   C3115248   2.020   1.825  10.244  0.0907  0.7875  0.3527
  140SAPE   O3215249   1.933   1.906  10.268  0.2865 -0.1131 -0.0364
  140SAPE   C3215250   2.045   1.766  10.109 -0.0190 -0.2084 -0.4629
  140SAPE   H2X15251   2.022   1.658  10.119 -0.5896  0.1018  2.3776
  140SAPE   H2Y15252   2.151   1.781  10.080  0.5999 -0.3570  1.5871
  140SAPE   C2315253   2.564   1.590  10.299 -0.1404  0.2457 -0.2217
  140SAPE   H3R15254   2.557   1.508  10.374 -1.3703  0.3026 -0.2656
  140SAPE   H3S15255   2.672   1.617  10.295 -0.1984  0.2833 -2.9007
  140SAPE   C2415256   2.534   1.524  10.164 -0.7507 -0.0235  0.1265
  140SAPE   H4R15257   2.607   1.444  10.142 -0.9640 -0.6788  1.6656
  140SAPE   H4S15258   2.557   1.593  10.080 -2.8875 -1.6119 -1.8991
  140SAPE   C2515259   2.391   1.478  10.147  0.4957  0.3467  0.4239
  140SAPE   H5R15260   2.357   1.419  10.233  0.8932  0.3735  0.6013
  140SAPE   C2615261   2.318   1.500  10.038  0.2045  0.1891 -0.9017
  140SAPE   H6R15262   2.218   1.453  10.037  0.0285  0.5502 -0.4351
  140SAPE   C2715263   2.358   1.579   9.921 -0.0229  0.1066 -0.4663
  140SAPE   H7R15264   2.434   1.655   9.949  1.9424 -1.7013 -0.6329
  140SAPE   H7S15265   2.270   1.637   9.886 -2.9308 -1.7653  3.0178
  140SAPE   C2815266   2.411   1.484   9.818  0.0102  0.3016 -0.3286
  140SAPE   H8R15267   2.494   1.426   9.863  0.5750  1.0500 -0.3929
  140SAPE   C2915268   2.370   1.468   9.692 -0.1417 -0.2596  0.0293
  140SAPE   H9R15269   2.433   1.405   9.627  1.7903  2.0703 -0.5389
  140SAPE  C21015270   2.246   1.527   9.630 -0.4295 -0.0912  1.9334
  140SAPE  H10R15271   2.184   1.585   9.702  0.5678  1.5225  1.5561
  140SAPE  H10S15272   2.186   1.440   9.595  0.2428  0.1211  0.1148
  140SAPE  C21115273   2.292   1.600   9.505  0.0247  0.5098  0.2473
  140SAPE  H11R15274   2.357   1.687   9.525  0.9370 -0.4258  1.5056
  140SAPE  C21215275   2.251   1.575   9.376 -0.2300 -0.1568 -0.0907
  140SAPE  H12R15276   2.293   1.638   9.296 -0.0826  2.7542  2.1030
  140SAPE  C21315277   2.143   1.478   9.330  0.2607  0.1285 -0.0579
  140SAPE  H13R15278   2.110   1.505   9.227  0.0854  1.4282  0.3213
  140SAPE  H13S15279   2.051   1.489   9.392  1.0198 -1.8883  1.5076
  140SAPE  C21415280   2.185   1.334   9.341  0.1846  1.1848  0.0846
  140SAPE  H14R15281   2.258   1.307   9.418  0.5205 -2.4354 -1.3008
  140SAPE  C21515282   2.134   1.229   9.267  0.3031 -0.5497 -0.4582
  140SAPE  H15R15283   2.161   1.123   9.281  1.8136 -0.1153  0.1457
  140SAPE  C21615284   2.023   1.239   9.166 -0.7923 -0.8353 -0.9093
  140SAPE  H16R15285   1.969   1.336   9.173  1.2094  0.5046 -2.5625
  140SAPE  H16S15286   1.951   1.158   9.187 -1.1969  0.0943  1.5898
  140SAPE  C21715287   2.076   1.228   9.025  0.5493 -0.2436 -0.1626
  140SAPE  H17R15288   1.991   1.202   8.958  1.2705 -0.6410 -0.9419
  140SAPE  H17S15289   2.149   1.146   9.007 -0.3072 -1.1519  0.4001
  140SAPE  C21815290   2.143   1.356   8.967 -0.5947 -0.7982  0.1979
  140SAPE  H18R15291   2.231   1.383   9.030 -0.6586 -1.8163  0.7460
  140SAPE  H18S15292   2.066   1.436   8.971 -0.4461 -0.6420 -0.0448
  140SAPE  C21915293   2.185   1.341   8.819 -0.2986  0.2870  0.0748
  140SAPE  H19R15294   2.101   1.350   8.748  0.9155 -0.4733 -1.5116
  140SAPE  H19S15295   2.218   1.236   8.808  1.3529  0.6845  0.8518
  140SAPE  C22015296   2.293   1.440   8.775 -0.0061 -0.6434  0.0046
  140SAPE  H20R15297   2.242   1.539   8.777 -1.4976 -1.3981  0.2692
  140SAPE  H20S15298   2.325   1.407   8.674  0.1562 -1.1956  0.2344
  140SAPE  H20T15299   2.380   1.439   8.844  1.1420 -0.7592 -1.3846
  140SAPE   C3315300   1.940   1.808   9.997 -0.1736 -0.1464 -0.8928
  140SAPE   H3X15301   1.943   1.917   9.973 -1.1511 -0.6706 -3.8850
  140SAPE   H3Y15302   1.841   1.781  10.040  0.3505  1.2946  1.3645
  140SAPE   C3415303   1.964   1.725   9.872  0.1316 -0.6678 -0.4400
  140SAPE   H4X15304   1.947   1.617   9.894  1.8102 -0.5068  1.9304
  140SAPE   H4Y15305   2.065   1.739   9.830  0.3837 -0.4438  0.2365
  140SAPE   C3515306   1.857   1.765   9.771  0.2094  0.1343 -0.0309
  140SAPE   H5X15307   1.854   1.875   9.760  0.5053  0.1093 -0.3952
  140SAPE   H5Y15308   1.760   1.725   9.806  0.8365 -2.7127 -1.2487
  140SAPE   C3615309   1.887   1.714   9.626  0.2452 -0.0399  0.3002
  140SAPE   H6X15310   1.912   1.606   9.628  1.9490  0.2976 -1.0423
  140SAPE   H6Y15311   1.973   1.771   9.585 -0.1284  0.2950 -0.0306
  140SAPE   C3715312   1.768   1.732   9.535 -0.1463  0.6306 -0.3809
  140SAPE   H7X15313   1.768   1.838   9.504  1.2217  0.5884 -0.5909
  140SAPE   H7Y15314   1.674   1.695   9.582  1.6192 -3.8345  0.1631
  140SAPE   C3815315   1.778   1.643   9.411  0.4675  0.1517 -0.5423
  140SAPE   H8X15316   1.785   1.541   9.453  1.5411  0.0868 -0.8470
  140SAPE   H8Y15317   1.876   1.669   9.367  1.7183 -0.4221  1.7538
  140SAPE   C3915318   1.659   1.646   9.314 -0.4955  0.6718 -0.3521
  140SAPE   H9X15319   1.596   1.734   9.342 -0.6544 -0.2201  2.3494
  140SAPE   H9Y15320   1.595   1.558   9.338 -2.2658  2.3155  1.3792
  140SAPE  C31015321   1.697   1.656   9.163 -0.0097  0.0718  0.8739
  140SAPE  H10X15322   1.773   1.577   9.145  1.4416  1.6498 -0.2698
  140SAPE  H10Y15323   1.737   1.758   9.144  0.1791  0.2798  2.3083
  140SAPE  C31115324   1.577   1.635   9.067  0.2119 -0.3340  0.4346
  140SAPE  H11X15325   1.526   1.733   9.053 -0.0733 -0.7949 -2.3086
  140SAPE  H11Y15326   1.512   1.560   9.116 -0.5556 -1.7320 -2.5416
  140SAPE  C31215327   1.610   1.580   8.929 -0.6238 -0.0110  0.0165
  140SAPE  H12X15328   1.694   1.628   8.875 -2.3249 -0.2004 -3.0508
  140SAPE  H12Y15329   1.518   1.586   8.867 -2.0584 -0.5143  1.9987
  140SAPE  C31315330   1.653   1.433   8.942  0.2141 -0.0081 -0.1313
  140SAPE  H13X15331   1.562   1.370   8.929  0.2253  0.3178 -1.9731
  140SAPE  H13Y15332   1.705   1.429   9.040  1.6767  0.7548 -0.8455
  140SAPE  C31415333   1.749   1.381   8.833 -0.1041  0.1980  0.1735
  140SAPE  H14X15334   1.779   1.276   8.853 -3.0963 -0.9704 -0.8963
  140SAPE  H14Y15335   1.844   1.439   8.842  0.5747 -0.7611 -0.6612
  140SAPE  C31515336   1.704   1.386   8.677 -0.2602 -0.2905 -0.9213
  140SAPE  H15X15337   1.654   1.484   8.661 -1.7535 -0.8462  0.0720
  140SAPE  H15Y15338   1.627   1.307   8.669  1.1806 -1.9812  0.7526
  140SAPE  C31615339   1.826   1.362   8.583  0.3499 -0.5556  0.3624
  140SAPE  H16X15340   1.862   1.258   8.595  0.5865 -0.7684 -1.8532
  140SAPE  H16Y15341   1.907   1.424   8.627 -0.0408 -0.4446  0.9474
  140SAPE  C31715342   1.797   1.396   8.437  0.4262 -0.1649 -0.1614
  140SAPE  H17X15343   1.698   1.347   8.420 -0.9966  1.9965  1.4625
  140SAPE  H17Y15344   1.872   1.343   8.375 -1.1151 -1.3438 -1.1195
  140SAPE  C31815345   1.796   1.548   8.400 -0.0663  1.1455  0.1298
  140SAPE  H18X15346   1.896   1.588   8.425  0.5305  2.1703 -3.2844
  140SAPE  H18Y15347   1.724   1.610   8.456  0.5308 -0.0062  2.2639
  140SAPE  H18Z15348   1.786   1.567   8.291 -0.7908  2.1327  0.3574
  141SAPE     N15349   4.068   2.013  10.886 -0.3479 -0.0156 -0.2260
  141SAPE   HN115350   4.163   1.974  10.869  0.3906  1.0390  1.3355
  141SAPE   HN215351   4.015   2.001  10.797 -0.0250  2.2210 -0.7686
  141SAPE   HN315352   4.069   2.115  10.905 -1.0734  0.1103 -0.7808
  141SAPE   C1215353   3.989   1.937  10.988 -0.2473 -0.2077  0.8596
  141SAPE  H12A15354   4.038   1.924  11.086  1.4108 -1.5330 -0.0780
  141SAPE  H12B15355   3.979   1.832  10.953  0.3074 -0.7027  2.1413
  141SAPE   C1115356   3.847   2.001  10.996  0.0665 -0.2701  0.1239
  141SAPE  H11A15357   3.856   2.112  10.999 -1.1547 -0.1700  0.7707
  141SAPE  H11B15358   3.800   1.972  11.093  0.4691 -0.6344  0.2174
  141SAPE     P15359   3.607   1.968  10.899  0.2451 -0.6239  0.1998
  141SAPE   O1315360   3.549   1.835  10.919  0.4321  0.2987  0.0894
  141SAPE   O1415361   3.562   2.072  10.987  0.4879 -0.3655  0.5164
  141SAPE   O1215362   3.767   1.963  10.886 -0.2388 -0.7121 -0.0276
  141SAPE   O1115363   3.577   2.012  10.749  0.3560  0.1335 -0.0818
  141SAPE    C115364   3.674   2.053  10.651 -0.1420  0.0484  0.3280
  141SAPE    HA15365   3.741   2.130  10.695 -1.9413  3.4717 -2.4244
  141SAPE    HB15366   3.733   1.963  10.622 -1.1383 -0.0190 -1.6783
  141SAPE    C215367   3.610   2.119  10.522 -0.2339  0.8914 -0.6691
  141SAPE    HS15368   3.542   2.202  10.551  1.1479  1.3782  1.3608
  141SAPE   O2115369   3.542   2.005  10.455 -0.7116  0.0939  0.5137
  141SAPE   C2115370   3.440   2.049  10.375  0.0172  0.4305  0.0948
  141SAPE   O2215371   3.386   2.157  10.383 -0.0651 -0.2574 -0.3385
  141SAPE   C2215372   3.398   1.939  10.281  0.1428  0.5627  0.4170
  141SAPE   H2R15373   3.459   1.847  10.291  1.2361  1.1824 -0.3617
  141SAPE   H2S15374   3.293   1.911  10.305  1.0415 -2.0794  1.7183
  141SAPE    C315375   3.711   2.191  10.432  0.2366 -0.3367 -0.1525
  141SAPE    HX15376   3.789   2.117  10.406  1.2808  1.1025 -1.3315
  141SAPE    HY15377   3.756   2.278  10.485 -1.9893  1.5405 -1.1634
  141SAPE   O3115378   3.649   2.238  10.305 -0.3589 -0.6002 -0.2050
  141SAPE   C3115379   3.626   2.366  10.303 -0.0608 -0.4745 -0.4747
  141SAPE   O3215380   3.665   2.453  10.377  0.1517 -0.2955 -0.5806
  141SAPE   C3215381   3.540   2.395  10.182 -0.0505 -0.2403 -0.5562
  141SAPE   H2X15382   3.432   2.384  10.206 -0.1553  0.5247 -0.6778
  141SAPE   H2Y15383   3.575   2.328  10.100 -0.2826 -0.2019 -0.6906
  141SAPE   C2315384   3.402   1.986  10.129 -0.2778  0.8225  0.1502
  141SAPE   H3R15385   3.354   2.086  10.133 -0.1458  0.8574  1.2024
  141SAPE   H3S15386   3.330   1.926  10.070 -0.2815  0.4561  0.5184
  141SAPE   C2415387   3.544   1.997  10.071 -0.3214 -0.6096  0.5818
  141SAPE   H4R15388   3.611   2.041  10.147  0.9222 -1.2337 -0.1351
  141SAPE   H4S15389   3.543   2.058   9.978  0.4317  0.2069  1.1017
  141SAPE   C2515390   3.595   1.857  10.047 -0.4559 -0.8956  0.3481
  141SAPE   H5R15391   3.636   1.797  10.130 -0.4716 -0.7958  0.4281
  141SAPE   C2615392   3.589   1.796   9.925  0.6067  0.2886  0.8484
  141SAPE   H6R15393   3.631   1.694   9.921  0.0744  0.0689  0.7145
  141SAPE   C2715394   3.532   1.858   9.801 -0.0747  0.4202  0.0894
  141SAPE   H7R15395   3.607   1.933   9.767 -1.4179  1.0874 -1.6087
  141SAPE   H7S15396   3.433   1.903   9.823 -0.1925  0.5173 -0.5989
  141SAPE   C2815397   3.529   1.753   9.685  0.4325 -0.3605 -0.3688
  141SAPE   H8R15398   3.559   1.649   9.703  1.9566  0.1482  0.1341
  141SAPE   C2915399   3.474   1.771   9.570  0.3233  0.0031  0.4991
  141SAPE   H9R15400   3.467   1.687   9.499 -1.6913 -0.5116  1.2352
  141SAPE  C21015401   3.415   1.897   9.509  0.3704  0.0127 -0.0212
  141SAPE  H10R15402   3.400   1.969   9.593 -2.0914 -1.3778  0.8327
  141SAPE  H10S15403   3.315   1.871   9.470  0.1308  2.7158 -1.3988
  141SAPE  C21115404   3.511   1.969   9.412 -0.1478  0.8881 -0.3301
  141SAPE  H11R15405   3.581   2.043   9.454  2.3065 -1.6000  0.3016
  141SAPE  C21215406   3.532   1.953   9.279 -0.8179  0.0648  0.4582
  141SAPE  H12R15407   3.610   2.019   9.238 -1.2392  0.4810  0.3239
  141SAPE  C21315408   3.469   1.856   9.181 -0.1807  0.9173 -0.3362
  141SAPE  H13R15409   3.388   1.798   9.232  3.3702 -2.7938  1.7256
  141SAPE  H13S15410   3.532   1.770   9.149 -1.7999 -0.7737  0.8216
  141SAPE  C21415411   3.424   1.935   9.061 -0.3178  0.2053 -0.3355
  141SAPE  H14R15412   3.406   2.043   9.077  0.2635 -0.0262  2.2420
  141SAPE  C21515413   3.432   1.895   8.932 -1.5195 -0.1396 -0.2920
  141SAPE  H15R15414   3.410   1.964   8.849 -1.4000 -1.0873 -1.1279
  141SAPE  C21615415   3.476   1.761   8.881  0.0002 -0.3317 -0.4338
  141SAPE  H16R15416   3.396   1.686   8.898  0.8639 -0.9188  1.1163
  141SAPE  H16S15417   3.570   1.726   8.927 -1.0748 -1.7982  0.7171
  141SAPE  C21715418   3.487   1.781   8.721  0.2489  0.1158 -0.3317
  141SAPE  H17R15419   3.575   1.848   8.717  0.4619  0.0590  1.9936
  141SAPE  H17S15420   3.402   1.833   8.672  1.5523  0.5175 -2.2888
  141SAPE  C21815421   3.513   1.647   8.657 -0.7742  0.1333  0.2615
  141SAPE  H18R15422   3.600   1.597   8.706 -0.3971  0.0766 -0.4617
  141SAPE  H18S15423   3.555   1.667   8.556 -0.2749 -2.6086 -0.1547
  141SAPE  C21915424   3.394   1.559   8.656 -0.4240 -0.0612 -0.2655
  141SAPE  H19R15425   3.311   1.604   8.597 -0.1562  1.7295  0.6405
  141SAPE  H19S15426   3.362   1.542   8.761  3.0641 -1.8036  0.6713
  141SAPE  C22015427   3.430   1.421   8.594  0.4624  0.0001  0.1123
  141SAPE  H20R15428   3.466   1.352   8.673 -1.6119 -1.9083 -0.4818
  141SAPE  H20S15429   3.502   1.437   8.512  1.4398  0.9981  1.1247
  141SAPE  H20T15430   3.337   1.377   8.552  1.0048 -0.5176 -0.5650
  141SAPE   C3315431   3.552   2.540  10.138 -0.3467 -0.5329 -0.1358
  141SAPE   H3X15432   3.660   2.564  10.129 -0.3650 -0.0853  0.7591
  141SAPE   H3Y15433   3.517   2.607  10.219 -0.9308  0.0877 -0.8874
  141SAPE   C3415434   3.483   2.590  10.007 -0.3832 -0.0330 -0.0494
  141SAPE   H4X15435   3.505   2.697   9.984  1.0610 -0.3807 -0.4441
  141SAPE   H4Y15436   3.375   2.568  10.021 -0.6941  1.0698 -0.5683
  141SAPE   C3515437   3.512   2.506   9.879  0.2683 -0.8607 -0.5300
  141SAPE   H5X15438   3.472   2.406   9.908 -0.5273 -0.7188 -1.1116
  141SAPE   H5Y15439   3.623   2.511   9.881  0.2890 -1.4088  0.3949
  141SAPE   C3615440   3.453   2.552   9.749 -0.3038 -0.1506  0.4295
  141SAPE   H6X15441   3.508   2.644   9.718  0.1377 -0.6761 -0.3600
  141SAPE   H6Y15442   3.344   2.569   9.759 -0.8773 -3.3653  0.6094
  141SAPE   C3715443   3.468   2.442   9.644  0.2217 -0.1008  0.6196
  141SAPE   H7X15444   3.443   2.346   9.693  0.4946 -0.1542  0.6519
  141SAPE   H7Y15445   3.573   2.436   9.608 -0.3038  1.6994 -1.4499
  141SAPE   C3815446   3.375   2.467   9.515  0.5053  0.1100  0.0077
  141SAPE   H8X15447   3.380   2.574   9.485  1.9027 -0.3678 -1.6692
  141SAPE   H8Y15448   3.269   2.448   9.541  0.0117  2.1413 -0.3752
  141SAPE   C3915449   3.413   2.386   9.388 -0.2017 -1.2625  0.7067
  141SAPE   H9X15450   3.412   2.279   9.419  0.7752 -1.5687 -0.2550
  141SAPE   H9Y15451   3.521   2.409   9.371 -0.6668  1.0947  0.5924
  141SAPE  C31015452   3.330   2.405   9.267 -0.5500  0.1530  0.6766
  141SAPE  H10X15453   3.322   2.512   9.241  3.1912  0.2510 -0.6484
  141SAPE  H10Y15454   3.228   2.365   9.287 -0.3370  0.5500  2.7975
  141SAPE  C31115455   3.382   2.318   9.152 -0.1157  0.3502 -0.3249
  141SAPE  H11X15456   3.368   2.208   9.164  1.3171  0.0788 -0.9476
  141SAPE  H11Y15457   3.490   2.330   9.131 -0.3776  0.7707 -1.5528
  141SAPE  C31215458   3.302   2.353   9.026 -0.2086 -0.5693 -0.2335
  141SAPE  H12X15459   3.350   2.449   8.999 -0.3442 -0.3519  0.2885
  141SAPE  H12Y15460   3.194   2.369   9.046 -0.8024 -2.4981 -1.5488
  141SAPE  C31315461   3.321   2.259   8.907  0.0005  0.9335  0.7332
  141SAPE  H13X15462   3.275   2.162   8.934  0.6534  0.3544 -0.1828
  141SAPE  H13Y15463   3.428   2.250   8.879  0.2964  1.5696  1.5977
  141SAPE  C31415464   3.243   2.307   8.789  0.0587  0.7249 -0.4308
  141SAPE  H14X15465   3.297   2.401   8.764 -0.8976  1.4442  0.1170
  141SAPE  H14Y15466   3.133   2.321   8.802  0.1228  0.6260  0.3043
  141SAPE  C31515467   3.264   2.218   8.656  0.0867 -0.2768 -0.7585
  141SAPE  H15X15468   3.226   2.115   8.672  0.7890 -0.2354  1.6853
  141SAPE  H15Y15469   3.370   2.218   8.625 -0.0989  0.5626 -1.4337
  141SAPE  C31615470   3.180   2.280   8.547 -0.1296  0.2038 -0.2344
  141SAPE  H16X15471   3.209   2.388   8.543 -1.6112  0.5979 -2.0652
  141SAPE  H16Y15472   3.070   2.280   8.560 -0.1947  0.8996 -0.6890
  141SAPE  C31715473   3.194   2.208   8.408 -0.3532  0.1658  0.1089
  141SAPE  H17X15474   3.127   2.263   8.338 -1.8205 -1.2304  0.3666
  141SAPE  H17Y15475   3.158   2.103   8.411  0.1106  0.0202  0.8377
  141SAPE  C31815476   3.336   2.205   8.349  0.3877  0.3590 -0.2055
  141SAPE  H18X15477   3.410   2.146   8.408  1.5983  2.0700  0.0421
  141SAPE  H18Y15478   3.373   2.309   8.358  2.4228 -0.3918  0.8068
  141SAPE  H18Z15479   3.353   2.181   8.242 -0.7514 -0.3997 -0.2406
  142SAPE     N15480   4.513   1.211  11.105  0.3094  0.6105 -0.0622
  142SAPE   HN115481   4.535   1.161  11.194 -0.4295  1.1547  0.4383
  142SAPE   HN215482   4.414   1.241  11.102  0.0051 -0.1915  1.0046
  142SAPE   HN315483   4.511   1.145  11.024  1.4822  1.1260 -0.5294
  142SAPE   C1215484   4.607   1.328  11.090  0.3059  0.6118  0.9472
  142SAPE  H12A15485   4.699   1.291  11.040 -0.3451 -0.1806  0.3158
  142SAPE  H12B15486   4.629   1.371  11.190 -2.2653  1.5138  1.1894
  142SAPE   C1115487   4.554   1.437  10.992 -0.4365  0.3068 -0.0871
  142SAPE  H11A15488   4.530   1.383  10.898  0.5267 -0.9662  0.3795
  142SAPE  H11B15489   4.643   1.503  10.984  0.4430 -0.1474  3.7873
  142SAPE     P15490   4.283   1.476  11.036  0.2830  0.3968  0.0476
  142SAPE   O1315491   4.265   1.337  11.062 -0.9563  0.4431  0.0566
  142SAPE   O1415492   4.206   1.563  11.126 -0.0679  0.6690  0.5804
  142SAPE   O1215493   4.439   1.505  11.043 -0.0646 -0.5290 -0.3679
  142SAPE   O1115494   4.245   1.505  10.886 -0.0365 -0.4083 -1.0049
  142SAPE    C115495   4.270   1.643  10.842 -0.2837  0.2129 -0.2615
  142SAPE    HA15496   4.191   1.705  10.890 -0.4184  0.7688 -1.1841
  142SAPE    HB15497   4.374   1.674  10.867 -0.1992  1.0059 -1.4954
  142SAPE    C215498   4.258   1.654  10.689 -0.1894  0.0622  0.0793
  142SAPE    HS15499   4.307   1.749  10.658  1.1104 -1.1978 -1.9352
  142SAPE   O2115500   4.125   1.635  10.644  0.2626 -0.3481  0.5848
  142SAPE   C2115501   4.064   1.758  10.618  0.7435  0.6809 -0.2690
  142SAPE   O2215502   4.116   1.863  10.643  0.0519 -0.1445 -0.3004
  142SAPE   C2215503   3.932   1.732  10.541 -0.4158  0.6328 -0.0971
  142SAPE   H2R15504   3.954   1.644  10.477  2.6241  1.0424  0.2511
  142SAPE   H2S15505   3.854   1.713  10.618 -1.6000  1.5029 -1.0533
  142SAPE    C315506   4.346   1.541  10.631 -0.2325  0.5460  0.1014
  142SAPE    HX15507   4.301   1.446  10.666 -0.0281  0.6010  0.5269
  142SAPE    HY15508   4.447   1.546  10.678 -0.6470  1.6841  0.9277
  142SAPE   O3115509   4.349   1.561  10.487 -0.3143  0.4197  0.0423
  142SAPE   C3115510   4.312   1.456  10.415  0.0574 -0.6625  0.7006
  142SAPE   O3215511   4.289   1.343  10.458  0.4072  0.5697 -0.2961
  142SAPE   C3215512   4.286   1.506  10.273  0.5878  0.4784  0.1231
  142SAPE   H2X15513   4.354   1.592  10.254  0.7627  0.3650  0.2324
  142SAPE   H2Y15514   4.179   1.535  10.260  0.3872 -1.0861 -2.2637
  142SAPE   C2315515   3.868   1.847  10.448 -0.3860  0.2816 -0.1370
  142SAPE   H3R15516   3.874   1.944  10.502 -3.1351  0.6448 -0.3341
  142SAPE   H3S15517   3.760   1.827  10.432 -0.6492  1.5047  0.0520
  142SAPE   C2415518   3.949   1.849  10.311  1.1197 -0.4923  0.3170
  142SAPE   H4R15519   3.869   1.892  10.246 -0.0514 -1.3338  1.1595
  142SAPE   H4S15520   3.971   1.747  10.273 -2.3177 -2.4479  3.0179
  142SAPE   C2515521   4.070   1.938  10.305 -0.4827  0.4384  0.9017
  142SAPE   H5R15522   4.067   2.023  10.374 -0.1053  0.1965  1.2205
  142SAPE   C2615523   4.170   1.936  10.218  0.0732 -0.2044 -0.5479
  142SAPE   H6R15524   4.240   2.020  10.231 -1.0122  0.9984 -2.0425
  142SAPE   C2715525   4.184   1.839  10.102 -0.9494 -0.5443 -0.3173
  142SAPE   H7R15526   4.188   1.742  10.155 -1.2648  0.2911  1.2846
  142SAPE   H7S15527   4.277   1.857  10.045 -1.4178  2.0900 -0.4028
  142SAPE   C2815528   4.070   1.816  10.016  0.6284  0.5577 -0.7011
  142SAPE   H8R15529   3.974   1.807  10.069  0.9300 -0.8700 -0.3583
  142SAPE   C2915530   4.059   1.803   9.883  0.3691 -0.0538  0.1048
  142SAPE   H9R15531   3.966   1.788   9.825  1.0635 -1.8076 -0.6105
  142SAPE  C21015532   4.175   1.798   9.783 -0.1126  0.2059  0.2651
  142SAPE  H10R15533   4.143   1.733   9.699 -0.1623  0.2889  0.2202
  142SAPE  H10S15534   4.260   1.746   9.833 -1.3090 -2.3327 -0.1943
  142SAPE  C21115535   4.194   1.941   9.731 -0.2416 -0.1116  0.3256
  142SAPE  H11R15536   4.239   2.012   9.802  1.4778  0.3070 -1.1101
  142SAPE  C21215537   4.171   1.973   9.602  0.7182  0.5603 -0.1031
  142SAPE  H12R15538   4.180   2.079   9.572  0.1071  1.0310  1.2990
  142SAPE  C21315539   4.118   1.888   9.492 -0.1247  0.3934 -0.6564
  142SAPE  H13R15540   4.172   1.791   9.500  0.6710  0.9259  1.0434
  142SAPE  H13S15541   4.155   1.920   9.393  0.1887 -1.7205 -1.2748
  142SAPE  C21415542   3.972   1.851   9.498 -0.5430  0.3139 -0.2645
  142SAPE  H14R15543   3.942   1.788   9.584  0.4932 -1.6515 -1.2654
  142SAPE  C21515544   3.884   1.856   9.392 -0.5330  0.3480 -0.4922
  142SAPE  H15R15545   3.781   1.820   9.405 -0.0628 -1.7341 -1.9343
  142SAPE  C21615546   3.909   1.915   9.250 -0.0266  0.0757  0.5001
  142SAPE  H16R15547   3.988   1.993   9.255  1.3877 -1.3450  1.5728
  142SAPE  H16S15548   3.823   1.978   9.221 -0.0329 -0.5326 -0.8880
  142SAPE  C21715549   3.927   1.804   9.143 -0.5405 -0.7941  0.9153
  142SAPE  H17R15550   3.841   1.735   9.146 -1.2547  0.0070 -0.1568
  142SAPE  H17S15551   4.030   1.765   9.156  0.7490  1.0658 -2.3429
  142SAPE  C21815552   3.925   1.876   9.002  0.4812 -0.1330  0.5384
  142SAPE  H18R15553   4.004   1.954   8.995 -1.7366  2.1261 -1.6678
  142SAPE  H18S15554   3.823   1.919   8.991 -0.6581 -1.9269  3.1472
  142SAPE  C21915555   3.938   1.776   8.880  0.0720 -0.6639 -0.5807
  142SAPE  H19R15556   3.881   1.689   8.919  0.2084  0.7530  3.0895
  142SAPE  H19S15557   4.040   1.732   8.866 -0.3148 -1.3882 -1.1900
  142SAPE  C22015558   3.891   1.830   8.741 -0.0275 -1.1213 -0.7143
  142SAPE  H20R15559   3.948   1.905   8.684 -1.7599 -0.0122 -1.0631
  142SAPE  H20S15560   3.788   1.866   8.761  0.7590  0.1823  1.3149
  142SAPE  H20T15561   3.884   1.738   8.678  0.8956 -0.6633 -1.5029
  142SAPE   C3315562   4.319   1.394  10.173  0.8463 -0.7340  0.1472
  142SAPE   H3X15563   4.256   1.305  10.194  1.2344 -0.7385  1.3611
  142SAPE   H3Y15564   4.421   1.355  10.188  0.4573 -2.4027 -1.2350
  142SAPE   C3415565   4.293   1.433  10.026 -0.7861 -0.2875 -0.4985
  142SAPE   H4X15566   4.347   1.525   9.996  0.9202 -0.6884  1.1383
  142SAPE   H4Y15567   4.184   1.452  10.015 -1.0408 -1.5342 -0.2520
  142SAPE   C3515568   4.328   1.325   9.929 -0.6336  0.3046  0.2713
  142SAPE   H5X15569   4.265   1.236   9.953 -0.4535 -0.3633 -1.5848
  142SAPE   H5Y15570   4.437   1.310   9.945 -0.9162 -2.3878  0.2586
  142SAPE   C3615571   4.314   1.370   9.786  0.0128 -0.5888  0.3840
  142SAPE   H6X15572   4.392   1.445   9.763 -0.6620 -0.3952 -1.4867
  142SAPE   H6Y15573   4.223   1.433   9.777  0.0112 -0.7619 -1.0054
  142SAPE   C3715574   4.309   1.267   9.677  0.8168 -0.0506  0.0116
  142SAPE   H7X15575   4.214   1.211   9.693  0.6491  0.6220  1.4932
  142SAPE   H7Y15576   4.389   1.190   9.682  0.4634 -0.3416  2.6234
  142SAPE   C3815577   4.308   1.325   9.531  0.6940 -0.1890  0.0379
  142SAPE   H8X15578   4.405   1.375   9.509  0.6823 -1.3486 -3.2961
  142SAPE   H8Y15579   4.234   1.407   9.530 -0.8350 -1.5211  0.6892
  142SAPE   C3915580   4.278   1.215   9.430 -0.0223 -0.6823  0.3536
  142SAPE   H9X15581   4.198   1.151   9.470 -1.9526  1.7945  0.7374
  142SAPE   H9Y15582   4.371   1.154   9.426  0.3445 -0.2552  1.9806
  142SAPE  C31015583   4.235   1.256   9.294 -0.3045  0.0478  0.2690
  142SAPE  H10X15584   4.124   1.267   9.293 -0.5780 -2.2245  0.2517
  142SAPE  H10Y15585   4.247   1.171   9.223  0.0477  0.0475  0.3248
  142SAPE  C31115586   4.304   1.382   9.239  0.9748  0.2280 -0.1612
  142SAPE  H11X15587   4.412   1.378   9.265  1.0924  1.0779 -0.4933
  142SAPE  H11Y15588   4.273   1.474   9.293 -0.5574  0.0439 -0.6636
  142SAPE  C31215589   4.308   1.411   9.083 -0.3267  0.0529 -0.5441
  142SAPE  H12X15590   4.349   1.323   9.028  0.3503  0.1439 -0.1918
  142SAPE  H12Y15591   4.387   1.488   9.076  0.9123 -1.3223 -3.1845
  142SAPE  C31315592   4.175   1.447   9.021  0.3979  0.4508  0.6901
  142SAPE  H13X15593   4.195   1.527   8.947 -0.8387  0.6621  0.5574
  142SAPE  H13Y15594   4.102   1.483   9.097  1.4765 -0.3241  2.1448
  142SAPE  C31415595   4.112   1.334   8.944  0.4778  0.1670  1.0056
  142SAPE  H14X15596   4.094   1.256   9.021  0.4521 -1.2513 -0.3884
  142SAPE  H14Y15597   4.182   1.290   8.870  0.9603 -0.6729  1.9357
  142SAPE  C31515598   3.985   1.371   8.867  0.5766  0.2511  0.0992
  142SAPE  H15X15599   3.997   1.461   8.803 -1.2189  0.2625 -0.2667
  142SAPE  H15Y15600   3.917   1.408   8.947  1.2609  1.9618 -0.0553
  142SAPE  C31615601   3.913   1.257   8.801  0.2202  0.5892 -0.0885
  142SAPE  H16X15602   3.881   1.196   8.888 -1.4791  0.1762 -0.9664
  142SAPE  H16Y15603   3.984   1.201   8.738 -0.4843  0.9446 -1.2205
  142SAPE  C31715604   3.794   1.273   8.699  0.3665  0.3069 -0.2859
  142SAPE  H17X15605   3.699   1.297   8.751 -1.0360 -1.0034 -2.1085
  142SAPE  H17Y15606   3.766   1.179   8.648 -0.5300  0.4580 -0.0792
  142SAPE  C31815607   3.811   1.381   8.590 -0.2383  0.3164  0.0092
  142SAPE  H18X15608   3.731   1.373   8.512 -2.4850  0.5536  2.1639
  142SAPE  H18Y15609   3.910   1.362   8.543 -0.9165  0.8452 -1.7215
  142SAPE  H18Z15610   3.822   1.483   8.632 -0.9550 -0.1240  1.3179
  143SAPE     N15611   0.038   2.693  10.982 -0.0239  0.6443 -0.0207
  143SAPE   HN115612   0.029   2.748  11.069  0.5611  0.0623  0.4194
  143SAPE   HN215613   0.055   2.592  11.001 -0.8244  0.3681 -0.6963
  143SAPE   HN315614   0.116   2.728  10.922  1.6986 -1.1644  1.0327
  143SAPE   C1215615  -0.093   2.712  10.912 -0.1134  0.7525 -0.4839
  143SAPE  H12A15616  -0.101   2.635  10.833  2.0738  0.5558 -0.5553
  143SAPE  H12B15617  -0.095   2.815  10.869 -0.9625  1.4808  1.1483
  143SAPE   C1115618  -0.217   2.693  11.002 -0.2774 -0.7956 -0.1224
  143SAPE  H11A15619  -0.309   2.712  10.942  0.7865  0.6992 -1.3644
  143SAPE  H11B15620  -0.213   2.770  11.082  0.0799  0.2057 -1.0805
  143SAPE     P15621  -0.296   2.452  11.013  0.1371  0.5465  0.0274
  143SAPE   O1315622  -0.262   2.333  11.087 -0.3202  0.3216  0.1446
  143SAPE   O1415623  -0.431   2.501  11.035  0.2141  0.0132  0.3811
  143SAPE   O1215624  -0.211   2.566  11.067  0.0321 -0.0077 -0.5732
  143SAPE   O1115625  -0.272   2.440  10.857 -0.1513  0.5084 -0.5378
  143SAPE    C115626  -0.344   2.363  10.772  0.5852  0.3592  0.8878
  143SAPE    HA15627  -0.298   2.262  10.760 -1.8496 -0.8441  0.9715
  143SAPE    HB15628  -0.446   2.338  10.806  0.5425  0.9020  1.1698
  143SAPE    C215629  -0.346   2.426  10.625  0.3587  0.3587 -0.0777
  143SAPE    HS15630  -0.361   2.535  10.636  0.2489  0.5628 -2.0149
  143SAPE   O2115631  -0.443   2.369  10.529 -0.5584  0.0935 -0.2826
  143SAPE   C2115632  -0.569   2.398  10.563 -0.8494 -0.6461 -0.1309
  143SAPE   O2215633  -0.600   2.477  10.650  0.0454  0.3810  0.4252
  143SAPE   C2215634  -0.663   2.325  10.471  0.6292  0.1028  0.0861
  143SAPE   H2R15635  -0.630   2.221  10.488 -0.0933 -0.0831  0.4006
  143SAPE   H2S15636  -0.768   2.355  10.493  0.5080  0.2045 -0.6142
  143SAPE    C315637  -0.200   2.417  10.581  0.0328 -0.5900  0.0874
  143SAPE    HX15638  -0.183   2.313  10.548 -2.2582 -0.8370 -0.4801
  143SAPE    HY15639  -0.137   2.437  10.671 -1.7183 -1.5225  1.5720
  143SAPE   O3115640  -0.160   2.515  10.478  0.5084 -0.0764  0.3547
  143SAPE   C3115641  -0.085   2.616  10.508 -0.7414  1.4528 -0.0553
  143SAPE   O3215642  -0.018   2.625  10.609 -0.6219  0.1130  0.3273
  143SAPE   C3215643  -0.084   2.719  10.393 -0.3445 -0.6389  0.4254
  143SAPE   H2X15644  -0.013   2.800  10.419 -0.4056  0.3909 -2.2616
  143SAPE   H2Y15645  -0.185   2.765  10.383 -0.0235  0.1461  0.7134
  143SAPE   C2315646  -0.636   2.373  10.325  0.9400  0.2610 -0.4288
  143SAPE   H3R15647  -0.527   2.364  10.309  0.6071 -1.7758 -1.9644
  143SAPE   H3S15648  -0.658   2.481  10.330  1.1032  0.2476  1.2923
  143SAPE   C2415649  -0.712   2.282  10.221  0.3288  0.1053 -1.0329
  143SAPE   H4R15650  -0.707   2.172  10.239  0.6501  0.2052 -0.4832
  143SAPE   H4S15651  -0.651   2.309  10.132  4.6939 -0.7782  1.4041
  143SAPE   C2515652  -0.854   2.329  10.216  0.7812  0.1743  0.0118
  143SAPE   H5R15653  -0.909   2.339  10.310 -1.8099  0.6294 -1.4541
  143SAPE   C2615654  -0.918   2.352  10.100  0.0751  0.1831  0.5776
  143SAPE   H6R15655  -1.023   2.386  10.104  0.3986  1.0986  2.0714
  143SAPE   C2715656  -0.858   2.328   9.965 -0.4335  0.1370 -0.0131
  143SAPE   H7R15657  -0.932   2.277   9.900  0.0643 -0.3745 -0.1886
  143SAPE   H7S15658  -0.782   2.247   9.959 -0.4781 -0.2071  2.8134
  143SAPE   C2815659  -0.794   2.454   9.910 -0.1367  0.1661  0.8017
  143SAPE   H8R15660  -0.775   2.541   9.974 -3.2626  2.0056 -0.5480
  143SAPE   C2915661  -0.751   2.466   9.785  0.2859  0.0485 -0.3425
  143SAPE   H9R15662  -0.698   2.559   9.759  0.8207  0.0856  0.8280
  143SAPE  C21015663  -0.758   2.363   9.672 -0.4058 -0.8395 -0.0939
  143SAPE  H10R15664  -0.857   2.387   9.628 -0.0869 -0.2441 -0.5096
  143SAPE  H10S15665  -0.766   2.256   9.700 -1.1644 -1.0449 -1.0606
  143SAPE  C21115666  -0.637   2.372   9.584 -0.5061  0.0359  0.1145
  143SAPE  H11R15667  -0.537   2.374   9.630 -0.5012 -0.0142  0.1069
  143SAPE  C21215668  -0.642   2.352   9.450 -0.0836 -0.8476  0.3996
  143SAPE  H12R15669  -0.554   2.346   9.384 -1.5234  1.0244 -1.8435
  143SAPE  C21315670  -0.771   2.327   9.369 -0.4992  0.3075 -0.0363
  143SAPE  H13R15671  -0.865   2.321   9.428 -0.6211 -0.0200 -0.2665
  143SAPE  H13S15672  -0.775   2.225   9.326  1.1030  0.1978  0.0181
  143SAPE  C21415673  -0.788   2.444   9.279 -0.1620  0.1703  0.1621
  143SAPE  H14R15674  -0.739   2.539   9.306  1.6547 -0.9852  1.1291
  143SAPE  C21515675  -0.846   2.445   9.155 -0.3226  0.0027  0.5794
  143SAPE  H15R15676  -0.844   2.546   9.110  1.2780 -0.3623 -0.2530
  143SAPE  C21615677  -0.909   2.327   9.079 -0.1362  0.2395  0.1541
  143SAPE  H16R15678  -1.017   2.351   9.085 -0.0565  0.3651  1.1895
  143SAPE  H16S15679  -0.892   2.233   9.137  1.4959 -0.7522 -1.7941
  143SAPE  C21715680  -0.858   2.284   8.938  0.0452  0.1378 -0.0938
  143SAPE  H17R15681  -0.896   2.180   8.923 -1.3905  0.5573  0.4835
  143SAPE  H17S15682  -0.747   2.283   8.944  0.0211  1.3894  0.9396
  143SAPE  C21815683  -0.905   2.359   8.821 -0.2494 -0.1038  0.1528
  143SAPE  H18R15684  -0.857   2.460   8.820 -1.2220  0.3667 -0.8604
  143SAPE  H18S15685  -1.015   2.373   8.824 -0.1118  1.0536  2.0516
  143SAPE  C21915686  -0.868   2.296   8.681 -0.5383  0.1486 -0.0578
  143SAPE  H19R15687  -0.924   2.204   8.653  0.7708  0.1090 -2.8661
  143SAPE  H19S15688  -0.761   2.268   8.687  0.4242  3.0308 -1.8030
  143SAPE  C22015689  -0.903   2.382   8.562  0.0309  0.0368  0.1199
  143SAPE  H20R15690  -0.829   2.466   8.560  0.6515 -0.4883  0.7876
  143SAPE  H20S15691  -1.011   2.409   8.559 -0.6412 -2.4624 -1.6765
  143SAPE  H20T15692  -0.888   2.324   8.468  1.5011 -1.6954  1.3616
  143SAPE   C3315693  -0.034   2.666  10.259 -0.7902 -0.3821  0.8958
  143SAPE   H3X15694  -0.104   2.602  10.201  1.5700  1.2250 -4.3192
  143SAPE   H3Y15695   0.062   2.619  10.288  0.8774  2.0767 -0.2309
  143SAPE   C3415696  -0.009   2.788  10.162  0.1834 -0.4936 -0.2628
  143SAPE   H4X15697   0.093   2.824  10.189 -1.6680  4.2306  1.3750
  143SAPE   H4Y15698  -0.074   2.877  10.173 -0.6487 -1.1624  0.2964
  143SAPE   C3515699  -0.009   2.751  10.012  0.0407 -0.1205 -0.0721
  143SAPE   H5X15700  -0.093   2.688   9.975  0.0798 -0.8023  0.9434
  143SAPE   H5Y15701   0.083   2.689  10.001  0.7461  0.3899  2.3629
  143SAPE   C3615702  -0.001   2.871   9.921 -0.2348 -0.6327 -0.2580
  143SAPE   H6X15703   0.092   2.930   9.940 -0.5082 -0.4016  0.3909
  143SAPE   H6Y15704  -0.087   2.938   9.940  0.5395  0.2905  0.0699
  143SAPE   C3715705  -0.019   2.831   9.776  0.4337  0.0449 -0.1487
  143SAPE   H7X15706  -0.123   2.856   9.747  0.6345  0.8191 -0.2477
  143SAPE   H7Y15707  -0.001   2.723   9.763 -0.1498 -0.1216  0.4142
  143SAPE   C3815708   0.066   2.903   9.677 -0.8170 -0.0294 -0.1475
  143SAPE   H8X15709   0.173   2.876   9.693 -0.4162  2.6972  2.9414
  143SAPE   H8Y15710   0.060   3.014   9.684  0.7963  0.0436  0.7409
  143SAPE   C3915711   0.041   2.863   9.529 -0.9233 -0.7660 -0.7501
  143SAPE   H9X15712  -0.061   2.900   9.506 -0.4704  1.0151 -0.1191
  143SAPE   H9Y15713   0.038   2.753   9.516  0.6534 -0.9974  0.4724
  143SAPE  C31015714   0.145   2.930   9.427 -0.0808  0.6356  0.3526
  143SAPE  H10X15715   0.247   2.886   9.432 -0.5709 -0.7256 -1.0620
  143SAPE  H10Y15716   0.159   3.038   9.452  0.9605  0.7151 -0.5482
  143SAPE  C31115717   0.096   2.911   9.282  0.2144  0.0115 -0.2875
  143SAPE  H11X15718   0.167   2.964   9.215 -1.9449  1.5586 -1.4880
  143SAPE  H11Y15719  -0.009   2.945   9.275 -0.4639 -2.0015 -0.6755
  143SAPE  C31215720   0.115   2.764   9.230 -0.6793 -0.8753  0.5449
  143SAPE  H12X15721   0.043   2.706   9.291 -1.6642 -0.5018 -0.2314
  143SAPE  H12Y15722   0.222   2.736   9.240 -0.3141 -0.1817 -1.0001
  143SAPE  C31315723   0.085   2.767   9.078  0.2615 -0.0063 -0.5542
  143SAPE  H13X15724   0.160   2.831   9.027 -1.4964  1.4202 -1.4958
  143SAPE  H13Y15725  -0.007   2.816   9.039  1.2794  1.3945 -1.2936
  143SAPE  C31415726   0.080   2.623   9.022  0.6979  0.3917  0.4547
  143SAPE  H14X15727  -0.012   2.569   9.055  0.2430  0.3216 -0.8815
  143SAPE  H14Y15728   0.160   2.563   9.072 -0.2563 -0.4629  0.9912
  143SAPE  C31515729   0.129   2.610   8.873  0.8187  1.1665 -0.0327
  143SAPE  H15X15730   0.224   2.660   8.846  1.0307  0.1692 -1.2195
  143SAPE  H15Y15731   0.062   2.648   8.793  0.0262 -1.2262 -0.5933
  143SAPE  C31615732   0.143   2.463   8.829  0.3234 -0.3835  0.1933
  143SAPE  H16X15733   0.144   2.469   8.718  0.4530  0.5432  0.2341
  143SAPE  H16Y15734   0.057   2.406   8.871 -0.9802  1.8854  0.8167
  143SAPE  C31715735   0.277   2.396   8.870  0.7731  0.0939 -0.5788
  143SAPE  H17X15736   0.252   2.288   8.877  1.2773  0.0500  0.7361
  143SAPE  H17Y15737   0.316   2.415   8.972  1.1164  0.2955 -0.7431
  143SAPE  C31815738   0.390   2.439   8.781 -0.3205  0.5530 -0.0400
  143SAPE  H18X15739   0.383   2.397   8.678  1.1352 -0.8740  0.4001
  143SAPE  H18Y15740   0.474   2.380   8.824  0.5409  1.5861 -0.2613
  143SAPE  H18Z15741   0.397   2.549   8.788 -0.3582  0.7221 -2.1597
  144SAPE     N15742   2.716   5.619  10.843 -0.0872  0.1919 -0.2999
  144SAPE   HN115743   2.637   5.571  10.796 -1.0715  1.3558  0.1075
  144SAPE   HN215744   2.774   5.672  10.775 -1.2022 -1.3460 -2.5696
  144SAPE   HN315745   2.792   5.556  10.874 -0.0426 -0.5281 -1.7894
  144SAPE   C1215746   2.661   5.694  10.966 -0.2621  0.0695  0.0936
  144SAPE  H12A15747   2.746   5.750  11.011 -0.7500  1.8999 -1.1561
  144SAPE  H12B15748   2.624   5.614  11.034  0.0403 -0.1436  0.0082
  144SAPE   C1115749   2.547   5.785  10.925  0.1550 -0.5034  0.0607
  144SAPE  H11A15750   2.519   5.849  11.011 -1.3683 -2.5503  1.1681
  144SAPE  H11B15751   2.457   5.725  10.896  0.2340 -0.4454 -0.3190
  144SAPE     P15752   2.487   5.986  10.762  0.0760  0.0638  0.0086
  144SAPE   O1315753   2.439   6.051  10.887 -0.3905  0.0165 -0.2229
  144SAPE   O1415754   2.545   6.081  10.659 -0.4476  1.0235 -0.7737
  144SAPE   O1215755   2.593   5.870  10.807  0.2409  0.7282 -0.5464
  144SAPE   O1115756   2.373   5.896  10.696 -0.8414 -0.3277  0.6548
  144SAPE    C115757   2.406   5.786  10.618 -0.9403  0.5589 -0.1552
  144SAPE    HA15758   2.488   5.728  10.666  0.0015  1.0679 -1.1157
  144SAPE    HB15759   2.320   5.718  10.601  0.5797 -1.6341  0.5849
  144SAPE    C215760   2.458   5.824  10.477  0.2167 -0.7135 -0.6287
  144SAPE    HS15761   2.548   5.887  10.490  1.0675 -1.9966 -0.0361
  144SAPE   O2115762   2.358   5.898  10.408 -0.0414  0.2145 -0.6689
  144SAPE   C2115763   2.398   5.995  10.328  0.3888  0.4288 -0.4913
  144SAPE   O2215764   2.515   6.023  10.314  0.5103  0.4407 -0.0333
  144SAPE   C2215765   2.292   6.086  10.271 -0.0945  0.1414  0.7821
  144SAPE   H2R15766   2.234   6.023  10.200 -1.0855  0.7296  1.0549
  144SAPE   H2S15767   2.219   6.105  10.352 -0.9913  0.0663  0.0063
  144SAPE    C315768   2.506   5.696  10.401  0.2408 -0.3741  0.6490
  144SAPE    HX15769   2.421   5.625  10.412  0.7983 -0.9450  1.3207
  144SAPE    HY15770   2.578   5.647  10.470 -0.2299 -0.6039  0.9867
  144SAPE   O3115771   2.563   5.716  10.268 -0.1424 -0.6566 -0.3763
  144SAPE   C3115772   2.682   5.775  10.269  0.4945 -0.2948 -0.0762
  144SAPE   O3215773   2.737   5.823  10.368  0.2266  0.0610 -0.7499
  144SAPE   C3215774   2.745   5.776  10.128  0.3562  0.2440  0.2948
  144SAPE   H2X15775   2.678   5.720  10.059  0.3687 -1.6807  1.7519
  144SAPE   H2Y15776   2.849   5.735  10.128  0.8723  1.5243  0.9822
  144SAPE   C2315777   2.344   6.220  10.213 -0.3168  1.1860  0.0418
  144SAPE   H3R15778   2.415   6.195  10.131 -0.4623  1.2268 -0.0960
  144SAPE   H3S15779   2.408   6.270  10.290  0.6575  1.1765 -0.7391
  144SAPE   C2415780   2.223   6.308  10.167  0.0531 -0.6361 -0.1390
  144SAPE   H4R15781   2.160   6.311  10.258  0.4611 -1.0420  0.1613
  144SAPE   H4S15782   2.155   6.267  10.089 -0.1878  0.4929 -0.5335
  144SAPE   C2515783   2.245   6.449  10.123  0.0780  0.1804 -0.1656
  144SAPE   H5R15784   2.277   6.514  10.206  2.5437 -0.9226 -0.1599
  144SAPE   C2615785   2.247   6.492   9.994 -0.2548 -0.3296  0.0407
  144SAPE   H6R15786   2.249   6.601   9.979  0.3725 -0.1156  1.5278
  144SAPE   C2715787   2.238   6.421   9.863  0.1742 -0.3782  0.2477
  144SAPE   H7R15788   2.221   6.492   9.780 -0.3855 -0.6872  0.0865
  144SAPE   H7S15789   2.142   6.364   9.860 -2.5120  3.7624 -0.5392
  144SAPE   C2815790   2.357   6.336   9.836  0.2983 -0.0384  0.5528
  144SAPE   H8R15791   2.411   6.295   9.923  1.9040  2.4572  0.8374
  144SAPE   C2915792   2.408   6.306   9.716  0.3014  0.1656  0.2502
  144SAPE   H9R15793   2.498   6.244   9.708 -0.5924 -1.0907 -0.3861
  144SAPE  C21015794   2.362   6.358   9.582 -0.4109 -0.6388 -0.0704
  144SAPE  H10R15795   2.435   6.327   9.504 -0.4875 -0.7834 -0.0852
  144SAPE  H10S15796   2.345   6.468   9.579  1.2919 -0.2355  2.5353
  144SAPE  C21115797   2.224   6.311   9.539  0.3610 -0.1286 -0.2243
  144SAPE  H11R15798   2.155   6.286   9.621 -1.2965  0.2567 -1.4576
  144SAPE  C21215799   2.192   6.318   9.406  0.1236  0.1465 -0.1191
  144SAPE  H12R15800   2.099   6.283   9.359  0.5638  0.2723 -1.1230
  144SAPE  C21315801   2.282   6.372   9.298 -0.7182  1.0807 -0.0581
  144SAPE  H13R15802   2.382   6.323   9.297 -0.1696  2.1088 -1.8880
  144SAPE  H13S15803   2.287   6.482   9.316  0.6814  0.8675  1.0566
  144SAPE  C21415804   2.230   6.342   9.157 -0.8174  0.4000  0.4062
  144SAPE  H14R15805   2.132   6.293   9.156 -1.2926  1.2806  1.3839
  144SAPE  C21515806   2.296   6.353   9.044  0.1065  0.4854 -0.5450
  144SAPE  H15R15807   2.228   6.347   8.958 -2.8109  4.5811  1.1519
  144SAPE  C21615808   2.431   6.410   9.016 -0.4094 -0.1377  0.3098
  144SAPE  H16R15809   2.489   6.332   8.962 -0.0017 -0.0626  0.6308
  144SAPE  H16S15810   2.488   6.425   9.110  0.1617 -2.0228  0.3015
  144SAPE  C21715811   2.438   6.552   8.960  0.4731 -0.5070  0.5289
  144SAPE  H17R15812   2.542   6.571   8.924  0.6018  2.0334  2.0001
  144SAPE  H17S15813   2.414   6.627   9.039  1.3303 -0.2562  0.5652
  144SAPE  C21815814   2.347   6.577   8.836 -0.4108  0.6036 -0.5471
  144SAPE  H18R15815   2.354   6.681   8.797  2.4891  0.6902 -0.0615
  144SAPE  H18S15816   2.239   6.561   8.859 -0.9030  0.2988 -2.8390
  144SAPE  C21915817   2.382   6.492   8.711  0.2928  0.3169 -0.4923
  144SAPE  H19R15818   2.291   6.507   8.649 -0.0737 -2.4335 -0.7333
  144SAPE  H19S15819   2.380   6.386   8.744  2.5137  0.3991  0.1272
  144SAPE  C22015820   2.514   6.505   8.637  0.1125  0.0758 -0.3272
  144SAPE  H20R15821   2.601   6.486   8.704 -0.9458  1.4369  1.5333
  144SAPE  H20S15822   2.517   6.612   8.608 -4.6799  0.4297 -0.1785
  144SAPE  H20T15823   2.527   6.436   8.551 -3.2295 -0.3193 -0.6164
  144SAPE   C3315824   2.755   5.929  10.082 -0.2771 -0.2725  0.3209
  144SAPE   H3X15825   2.864   5.946  10.089  0.0524 -1.4803 -1.2611
  144SAPE   H3Y15826   2.700   6.001  10.146  0.9628  0.5303  0.5160
  144SAPE   C3415827   2.716   5.946   9.931  0.8174  0.2802  0.2634
  144SAPE   H4X15828   2.616   5.898   9.919  0.9742 -0.1062  0.4668
  144SAPE   H4Y15829   2.781   5.891   9.860  0.7762 -0.3778  0.7249
  144SAPE   C3515830   2.703   6.090   9.875 -0.1870  0.9339 -0.7978
  144SAPE   H5X15831   2.788   6.146   9.920 -0.1416  1.1837 -1.1894
  144SAPE   H5Y15832   2.609   6.143   9.898 -1.7627 -1.2589 -1.7756
  144SAPE   C3615833   2.724   6.098   9.724 -0.6410 -0.2110  0.2214
  144SAPE   H6X15834   2.624   6.062   9.689 -1.4945  1.7725  0.4647
  144SAPE   H6Y15835   2.799   6.020   9.697  0.0278  0.6393 -0.4125
  144SAPE   C3715836   2.772   6.231   9.672  0.1331 -0.2213 -0.4149
  144SAPE   H7X15837   2.878   6.254   9.699  0.8563 -1.0223 -2.3832
  144SAPE   H7Y15838   2.718   6.313   9.723  2.4707  1.2332 -0.1108
  144SAPE   C3815839   2.746   6.242   9.520  0.7052  0.4239 -0.6038
  144SAPE   H8X15840   2.645   6.206   9.490  0.3522 -0.8555  1.8743
  144SAPE   H8Y15841   2.822   6.183   9.465  0.6887  0.4838 -0.6910
  144SAPE   C3915842   2.742   6.389   9.475  0.0284 -0.5416  0.1698
  144SAPE   H9X15843   2.838   6.442   9.497 -1.2223  1.3414  1.3725
  144SAPE   H9Y15844   2.665   6.448   9.528 -0.6906 -2.0042  0.8218
  144SAPE  C31015845   2.698   6.406   9.327 -0.4604  0.6521 -0.5145
  144SAPE  H10X15846   2.591   6.381   9.312 -0.2277 -0.0647 -1.0494
  144SAPE  H10Y15847   2.767   6.342   9.267 -0.7984  0.0684 -0.2805
  144SAPE  C31115848   2.728   6.549   9.284  0.1950 -0.6834 -0.2961
  144SAPE  H11X15849   2.736   6.607   9.379 -2.2193 -0.8542  0.0601
  144SAPE  H11Y15850   2.647   6.595   9.224 -1.6920 -1.9430  1.1572
  144SAPE  C31215851   2.862   6.573   9.222 -0.3578 -0.0405 -0.5398
  144SAPE  H12X15852   2.936   6.501   9.264 -0.9916 -0.4651 -0.1336
  144SAPE  H12Y15853   2.892   6.677   9.247 -2.0053  0.3320  0.0255
  144SAPE  C31315854   2.853   6.550   9.070  0.9355  0.5304  0.2944
  144SAPE  H13X15855   2.784   6.618   9.015 -2.2307 -2.7799 -0.1966
  144SAPE  H13Y15856   2.803   6.454   9.049  0.5118  0.5092  1.3392
  144SAPE  C31415857   2.995   6.535   9.017 -0.3678  0.6491  0.0861
  144SAPE  H14X15858   3.056   6.466   9.080 -1.0309  0.2862  0.3378
  144SAPE  H14Y15859   3.048   6.633   9.021  0.8422  0.1400 -1.9792
  144SAPE  C31515860   3.014   6.480   8.881 -0.5488  0.1857  0.4631
  144SAPE  H15X15861   2.961   6.383   8.879 -0.6684  0.2133  1.7806
  144SAPE  H15Y15862   3.122   6.473   8.856 -0.0272  1.5193  2.1827
  144SAPE  C31615863   2.953   6.576   8.771  0.1809 -0.4727 -0.2500
  144SAPE  H16X15864   3.014   6.669   8.774 -0.4353 -0.0363 -1.0917
  144SAPE  H16Y15865   2.849   6.603   8.798 -1.5767 -1.9127 -4.6208
  144SAPE  C31715866   2.956   6.523   8.627  0.1748 -0.1846 -0.6001
  144SAPE  H17X15867   3.061   6.511   8.594  0.4541  3.4670 -1.4538
  144SAPE  H17Y15868   2.920   6.612   8.571  0.5240  0.7318  0.6107
  144SAPE  C31815869   2.876   6.395   8.599  0.2793  0.3107 -0.3864
  144SAPE  H18X15870   2.863   6.391   8.488  3.9262 -0.7911 -0.9268
  144SAPE  H18Y15871   2.782   6.389   8.656  2.1379  0.3453  2.9138
  144SAPE  H18Z15872   2.919   6.304   8.646 -1.2402  0.4367  1.3314
  145SAPE     N15873   4.722   0.116  11.055  0.2756  0.7403  0.0356
  145SAPE   HN115874   4.701   0.015  11.052  0.4341  0.7008  0.2527
  145SAPE   HN215875   4.781   0.148  10.975  0.5600  1.4361  0.5115
  145SAPE   HN315876   4.763   0.146  11.146 -1.1526 -0.6275  1.1650
  145SAPE   C1215877   4.583   0.185  11.042 -0.1848  0.4192  0.1021
  145SAPE  H12A15878   4.511   0.121  10.988  0.9584 -0.9500  0.1501
  145SAPE  H12B15879   4.592   0.274  10.975 -1.2164 -0.1883 -0.8766
  145SAPE   C1115880   4.521   0.232  11.175  0.5815  0.4939  0.6990
  145SAPE  H11A15881   4.479   0.140  11.220  0.3439 -0.6846 -1.7478
  145SAPE  H11B15882   4.438   0.301  11.151  0.8980  0.2541 -1.2984
  145SAPE     P15883   4.609   0.442  11.314 -0.3837 -0.2251  0.1551
  145SAPE   O1315884   4.471   0.464  11.368 -0.5819  0.0141  0.1946
  145SAPE   O1415885   4.733   0.459  11.393  0.9163 -1.0742 -0.4267
  145SAPE   O1215886   4.621   0.295  11.247  0.3795 -0.4516  0.1479
  145SAPE   O1115887   4.618   0.537  11.185 -0.0266  0.0155 -0.3615
  145SAPE    C115888   4.740   0.561  11.131  0.0520  0.1714  0.5346
  145SAPE    HA15889   4.803   0.622  11.199  0.1114  0.5593  0.1343
  145SAPE    HB15890   4.779   0.458  11.113 -2.7544 -0.5081 -2.6679
  145SAPE    C215891   4.740   0.625  10.984  0.0923 -0.4918 -0.1479
  145SAPE    HS15892   4.726   0.733  11.010 -1.6062 -0.7573  0.1626
  145SAPE   O2115893   4.634   0.574  10.911 -0.1435 -0.3143  0.4609
  145SAPE   C2115894   4.551   0.664  10.849 -0.7637  0.5611 -0.1845
  145SAPE   O2215895   4.564   0.785  10.856  0.4512  0.5598  0.1907
  145SAPE   C2215896   4.462   0.596  10.746  0.0911 -0.2010  0.1180
  145SAPE   H2R15897   4.411   0.510  10.795 -2.2469  0.1184 -1.5814
  145SAPE   H2S15898   4.381   0.667  10.719 -1.6988 -1.2384  2.3887
  145SAPE    C315899   4.883   0.604  10.917 -0.2944  0.3579 -0.2701
  145SAPE    HX15900   4.894   0.493  10.922  1.4472  0.5587  2.2233
  145SAPE    HY15901   4.950   0.661  10.985 -2.2696  3.5453 -0.8043
  145SAPE   O3115902   4.879   0.664  10.790  0.1277 -0.0946 -0.5995
  145SAPE   C3115903   4.943   0.601  10.693 -0.1623 -0.5941 -0.3829
  145SAPE   O3215904   5.013   0.503  10.702  0.0245  0.3633 -0.8377
  145SAPE   C3215905   4.921   0.682  10.567 -0.4154  0.7732  0.7645
  145SAPE   H2X15906   4.974   0.780  10.563 -0.5990  0.8692 -2.3100
  145SAPE   H2Y15907   4.813   0.708  10.566 -0.8746 -0.7966  3.0320
  145SAPE   C2315908   4.536   0.570  10.609 -0.1516  0.5043  1.0614
  145SAPE   H3R15909   4.641   0.533  10.617 -0.5853 -0.8024  1.0254
  145SAPE   H3S15910   4.541   0.667  10.557  0.1758  0.0857  0.2944
  145SAPE   C2415911   4.463   0.481  10.504 -0.2969  0.4055  0.0862
  145SAPE   H4R15912   4.512   0.473  10.405 -0.9452 -1.2016 -0.1485
  145SAPE   H4S15913   4.367   0.533  10.483 -1.8066 -1.8674  0.8830
  145SAPE   C2515914   4.449   0.343  10.550  0.3002 -0.6453 -0.8922
  145SAPE   H5R15915   4.363   0.327  10.617 -0.6451  0.2235 -1.8537
  145SAPE   C2615916   4.522   0.240  10.505  0.1566  0.3586  0.6985
  145SAPE   H6R15917   4.495   0.147  10.557  1.0489 -0.4011 -0.1576
  145SAPE   C2715918   4.646   0.244  10.405  0.6391  0.2025  0.2769
  145SAPE   H7R15919   4.629   0.321  10.326  1.2357 -0.1154 -0.1772
  145SAPE   H7S15920   4.651   0.146  10.353  0.5537  0.1949  0.2843
  145SAPE   C2815921   4.774   0.270  10.466  0.5444 -0.0654 -0.0307
  145SAPE   H8R15922   4.761   0.319  10.564  0.7678  1.0663 -0.5522
  145SAPE   C2915923   4.898   0.251  10.408 -0.3812  0.5398 -0.3427
  145SAPE   H9R15924   4.980   0.281  10.476 -1.2115 -0.4203  1.1311
  145SAPE  C21015925   4.920   0.203  10.264 -0.1681  0.8821 -0.0746
  145SAPE  H10R15926   4.978   0.288  10.221  0.7987  0.4642  0.3604
  145SAPE  H10S15927   4.824   0.199  10.209 -0.0454  0.6241 -0.2713
  145SAPE  C21115928   4.997   0.076  10.236 -0.6347 -0.2843 -0.3844
  145SAPE  H11R15929   5.050   0.028  10.320  0.6760 -2.1047 -2.1411
  145SAPE  C21215930   5.009   0.026  10.114 -0.6332 -0.2536  0.2133
  145SAPE  H12R15931   5.062  -0.068  10.093 -2.0788 -1.2757  0.9651
  145SAPE  C21315932   4.956   0.105   9.998 -0.6801 -0.4353  0.9605
  145SAPE  H13R15933   4.876   0.176  10.028 -1.6890 -1.2234  0.2083
  145SAPE  H13S15934   4.900   0.039   9.928 -1.9240  0.1757  1.3482
  145SAPE  C21415935   5.064   0.181   9.925 -0.2987  0.0649 -0.0871
  145SAPE  H14R15936   5.081   0.277   9.977 -0.2257  0.1075 -0.1894
  145SAPE  C21515937   5.123   0.138   9.815 -0.0291 -0.6922 -0.3011
  145SAPE  H15R15938   5.202   0.200   9.770 -0.8196  0.6380  0.0889
  145SAPE  C21615939   5.094   0.002   9.754 -0.1139 -0.1542  0.0461
  145SAPE  H16R15940   5.060  -0.069   9.831 -0.6295 -0.0716 -0.0990
  145SAPE  H16S15941   5.182  -0.041   9.701 -0.5345 -0.9277 -0.0412
  145SAPE  C21715942   4.991  -0.011   9.639 -0.6438  0.1275 -0.6792
  145SAPE  H17R15943   4.895   0.022   9.683  0.1611  0.4682  0.8985
  145SAPE  H17S15944   4.989  -0.117   9.606 -0.7224 -0.2640  0.5206
  145SAPE  C21815945   5.022   0.082   9.516  0.1994  0.0105 -0.5173
  145SAPE  H18R15946   5.124   0.065   9.475  0.2578 -0.3350 -0.2331
  145SAPE  H18S15947   5.016   0.190   9.540 -0.4489 -0.1312 -0.0231
  145SAPE  C21915948   4.923   0.059   9.398 -0.2219 -0.4049 -0.5039
  145SAPE  H19R15949   4.825   0.038   9.446 -0.3653  3.0890  1.0700
  145SAPE  H19S15950   4.958  -0.033   9.347 -0.8713 -1.8777  1.5759
  145SAPE  C22015951   4.902   0.177   9.301  0.6313 -0.6231 -0.0239
  145SAPE  H20R15952   4.848   0.151   9.208  2.0624 -0.3088 -0.9768
  145SAPE  H20S15953   5.000   0.213   9.263  0.3173 -0.5657 -0.8019
  145SAPE  H20T15954   4.839   0.255   9.349 -1.0315 -0.9997 -1.4897
  145SAPE   C3315955   4.977   0.621  10.437 -0.3278 -0.3255 -0.6461
  145SAPE   H3X15956   4.974   0.509  10.438  0.3308 -0.3694  1.0195
  145SAPE   H3Y15957   5.086   0.644  10.442 -0.6894  1.2611  2.1973
  145SAPE   C3415958   4.918   0.684  10.313 -1.1370 -0.0487 -0.0551
  145SAPE   H4X15959   4.914   0.795  10.316 -0.3217  0.0739 -2.3229
  145SAPE   H4Y15960   4.809   0.663  10.305 -0.7170 -1.8214 -1.7106
  145SAPE   C3515961   4.991   0.636  10.184 -0.9180  0.0948  0.3204
  145SAPE   H5X15962   4.971   0.528  10.165  1.8491 -0.8320  2.0370
  145SAPE   H5Y15963   5.101   0.636  10.197 -0.6306 -0.7698 -1.7858
  145SAPE   C3615964   4.949   0.709  10.066  0.2846 -0.4777  0.4104
  145SAPE   H6X15965   5.013   0.799  10.058 -0.7878  0.6246  3.0387
  145SAPE   H6Y15966   4.849   0.757  10.076  0.9551  1.3309 -0.9621
  145SAPE   C3715967   4.946   0.610   9.940  0.1786 -0.0007 -0.1393
  145SAPE   H7X15968   4.888   0.517   9.960 -1.4469  0.1715 -3.3578
  145SAPE   H7Y15969   5.052   0.595   9.909  0.3449 -0.9678  0.8130
  145SAPE   C3815970   4.860   0.676   9.826  0.0007  0.1600  0.0869
  145SAPE   H8X15971   4.886   0.780   9.796 -2.1765  0.2380 -1.8664
  145SAPE   H8Y15972   4.751   0.667   9.847 -0.5082 -1.4826 -2.6746
  145SAPE   C3915973   4.881   0.603   9.695 -0.1386 -0.4026  0.1604
  145SAPE   H9X15974   4.866   0.495   9.716 -0.7246 -0.1060  1.3309
  145SAPE   H9Y15975   4.987   0.621   9.667 -0.4010  0.9438 -0.0381
  145SAPE  C31015976   4.798   0.647   9.580 -0.3586 -0.3678  0.3156
  145SAPE  H10X15977   4.787   0.758   9.573 -1.5453 -0.4757  0.2767
  145SAPE  H10Y15978   4.690   0.627   9.598 -0.7903  1.1978 -0.3657
  145SAPE  C31115979   4.840   0.576   9.449 -0.0024 -0.8052  0.0370
  145SAPE  H11X15980   4.862   0.470   9.475  1.0591 -0.9445 -1.3101
  145SAPE  H11Y15981   4.931   0.629   9.414  1.7334 -1.6675  2.8657
  145SAPE  C31215982   4.728   0.600   9.342  0.2792  0.4924 -0.6588
  145SAPE  H12X15983   4.730   0.707   9.314 -0.4824  0.8568  0.5871
  145SAPE  H12Y15984   4.632   0.581   9.395  0.4677  1.2498 -0.0313
  145SAPE  C31315985   4.742   0.510   9.223 -0.4098  0.0535  0.6021
  145SAPE  H13X15986   4.716   0.405   9.247  0.1034 -0.6096 -1.4619
  145SAPE  H13Y15987   4.850   0.515   9.197 -0.6506 -1.4733 -0.8767
  145SAPE  C31415988   4.656   0.558   9.100 -0.4698 -0.1017  0.0110
  145SAPE  H14X15989   4.715   0.531   9.010  3.3803  2.8827  1.3705
  145SAPE  H14Y15990   4.632   0.666   9.091  2.4316  0.7707  1.2603
  145SAPE  C31515991   4.529   0.482   9.085  0.1469  0.3205 -0.3512
  145SAPE  H15X15992   4.482   0.485   9.186  1.0252 -0.2364  0.0973
  145SAPE  H15Y15993   4.549   0.373   9.079 -1.4293 -0.1349  1.4268
  145SAPE  C31615994   4.438   0.539   8.985  0.3984 -0.3573  0.0962
  145SAPE  H16X15995   4.418   0.647   9.005 -1.4884 -0.7538  0.6036
  145SAPE  H16Y15996   4.342   0.483   8.993  1.7655 -2.7585  0.4842
  145SAPE  C31715997   4.492   0.514   8.843  0.2250  0.6461 -0.4177
  145SAPE  H17X15998   4.602   0.529   8.837  0.8075 -1.3000  2.8378
  145SAPE  H17Y15999   4.444   0.587   8.776  1.1469  0.7419 -0.9961
  145SAPE  C31816000   4.454   0.374   8.779 -0.2997  0.5883  0.3118
  145SAPE  H18X16001   4.500   0.367   8.678 -1.6411  1.3965 -0.3883
  145SAPE  H18Y16002   4.343   0.373   8.770 -0.1761  0.4768 -1.7186
  145SAPE  H18Z16003   4.490   0.287   8.839 -1.3423  0.1333  0.3066
  146SAPE     N16004   3.595   5.618  10.769  0.9336  0.5490 -0.9494
  146SAPE   HN116005   3.665   5.650  10.839  0.6247  0.7795 -0.7435
  146SAPE   HN216006   3.536   5.700  10.745  0.6546  0.9565  0.9945
  146SAPE   HN316007   3.536   5.547  10.817  0.2773  0.8306 -1.3368
  146SAPE   C1216008   3.669   5.565  10.655  0.2169  0.4800 -0.2238
  146SAPE  H12A16009   3.604   5.541  10.568  0.4545 -3.7398  0.5590
  146SAPE  H12B16010   3.710   5.467  10.687 -2.4295  0.0440  2.2845
  146SAPE   C1116011   3.782   5.658  10.614 -0.4339 -0.7203 -0.5564
  146SAPE  H11A16012   3.747   5.754  10.570 -2.9350  0.4606  3.5032
  146SAPE  H11B16013   3.829   5.591  10.539  0.5209 -1.1858  0.4379
  146SAPE     P16014   4.019   5.608  10.716 -0.0829 -0.0632 -0.7290
  146SAPE   O1316015   4.104   5.671  10.816 -0.3340  0.4875  0.5321
  146SAPE   O1416016   3.997   5.463  10.735  0.3475 -0.0456 -0.0559
  146SAPE   O1216017   3.880   5.683  10.718  0.6038  0.2127 -0.8022
  146SAPE   O1116018   4.074   5.635  10.573  0.3136  0.3393 -0.3444
  146SAPE    C116019   4.188   5.722  10.558  0.4389  0.0154  0.5374
  146SAPE    HA16020   4.258   5.717  10.644  0.1291 -0.7125  0.7531
  146SAPE    HB16021   4.246   5.696  10.467  0.4101  1.7025  0.0025
  146SAPE    C216022   4.141   5.867  10.531  0.5914  0.2346  0.9740
  146SAPE    HS16023   4.052   5.901  10.587 -0.6843  1.7613 -1.7758
  146SAPE   O2116024   4.113   5.870  10.385  0.6591 -0.2978  0.6654
  146SAPE   C2116025   4.070   5.993  10.339  0.2611 -0.2047  0.8209
  146SAPE   O2216026   4.019   6.078  10.413 -0.2980  0.5928  0.5929
  146SAPE   C2216027   4.101   6.007  10.184 -0.1663  0.6241  0.6332
  146SAPE   H2R16028   4.208   5.986  10.160 -1.4586 -4.3875 -1.9848
  146SAPE   H2S16029   4.056   5.921  10.131  1.4885  0.5152 -0.6696
  146SAPE    C316030   4.255   5.971  10.571  0.5458 -0.2093  0.7948
  146SAPE    HX16031   4.284   5.953  10.677 -1.3037 -0.0424  1.3651
  146SAPE    HY16032   4.197   6.066  10.573 -2.3515 -1.8708  1.1613
  146SAPE   O3116033   4.358   5.975  10.471 -0.3446  0.2720  0.1386
  146SAPE   C3116034   4.446   6.080  10.480  0.0026  0.6669 -0.3107
  146SAPE   O3216035   4.440   6.165  10.568 -0.3532 -0.3800  0.6031
  146SAPE   C3216036   4.553   6.074  10.367  0.0764  1.0525 -0.5776
  146SAPE   H2X16037   4.506   6.021  10.281 -0.4273 -0.2300  0.4566
  146SAPE   H2Y16038   4.637   6.008  10.398 -0.6074  0.2173 -0.4529
  146SAPE   C2316039   4.078   6.150  10.126 -0.8388  0.0884 -0.6241
  146SAPE   H3R16040   3.989   6.194  10.175 -0.3751 -1.3288  1.5925
  146SAPE   H3S16041   4.066   6.139  10.016 -1.7421  1.8404 -0.7335
  146SAPE   C2416042   4.214   6.222  10.157  0.0892 -0.3118  0.6312
  146SAPE   H4R16043   4.298   6.164  10.113 -0.9391  0.2487 -2.2911
  146SAPE   H4S16044   4.223   6.244  10.265 -0.4075  0.3248  0.5500
  146SAPE   C2516045   4.208   6.360  10.091 -0.5235  0.5936  0.1901
  146SAPE   H5R16046   4.212   6.438  10.169 -1.0178 -0.7615  1.6155
  146SAPE   C2616047   4.215   6.385   9.959 -0.2923  0.1354  0.0582
  146SAPE   H6R16048   4.208   6.489   9.922  2.6830  0.7556  0.9759
  146SAPE   C2716049   4.224   6.288   9.844  0.4433 -0.8195 -0.0391
  146SAPE   H7R16050   4.127   6.291   9.789  1.4650 -0.0595 -1.8628
  146SAPE   H7S16051   4.254   6.186   9.878 -1.0844 -1.6464 -1.0388
  146SAPE   C2816052   4.329   6.322   9.736  0.6996  0.2221 -0.7051
  146SAPE   H8R16053   4.432   6.324   9.775 -0.5026  0.7393  2.7678
  146SAPE   C2916054   4.313   6.374   9.615 -0.0385  0.6139 -0.0464
  146SAPE   H9R16055   4.402   6.382   9.552  0.9964  1.3937  1.4437
  146SAPE  C21016056   4.181   6.410   9.552  0.8546 -0.2690 -0.4909
  146SAPE  H10R16057   4.193   6.507   9.499  1.1279 -1.6351 -3.0623
  146SAPE  H10S16058   4.100   6.429   9.626  1.1374 -2.7971  0.5680
  146SAPE  C21116059   4.122   6.300   9.469  0.2599  0.0666  0.5700
  146SAPE  H11R16060   4.120   6.197   9.508 -3.2668 -0.2724 -0.1585
  146SAPE  C21216061   4.069   6.319   9.346  0.2534  0.1250 -0.4985
  146SAPE  H12R16062   4.024   6.232   9.294  0.7481 -0.1088 -0.5357
  146SAPE  C21316063   4.054   6.454   9.269  0.3087  0.4254 -0.0559
  146SAPE  H13R16064   4.144   6.461   9.204 -1.1281 -1.2205 -2.3410
  146SAPE  H13S16065   4.046   6.536   9.344 -0.5537  1.1433 -0.9150
  146SAPE  C21416066   3.928   6.487   9.193  0.2449  0.5111 -0.2219
  146SAPE  H14R16067   3.841   6.464   9.256  2.4417  0.7434  3.2078
  146SAPE  C21516068   3.917   6.528   9.064 -0.8108 -0.2409  0.4127
  146SAPE  H15R16069   3.818   6.547   9.020 -1.0762 -1.1371  0.5974
  146SAPE  C21616070   4.027   6.550   8.964  0.0776 -0.5909 -0.9007
  146SAPE  H16R16071   4.103   6.476   8.998  0.0167  0.6136  2.0908
  146SAPE  H16S16072   4.068   6.652   8.978 -2.7616  0.6332 -0.9531
  146SAPE  C21716073   3.993   6.544   8.820 -0.2468 -0.5374 -0.1239
  146SAPE  H17R16074   3.904   6.609   8.807  0.0382 -0.0529  0.3595
  146SAPE  H17S16075   3.973   6.435   8.804  0.6407 -1.0181  1.7947
  146SAPE  C21816076   4.101   6.582   8.726 -1.1784 -0.9389 -0.8817
  146SAPE  H18R16077   4.118   6.692   8.728  0.4176 -1.1383 -1.8858
  146SAPE  H18S16078   4.083   6.563   8.619 -0.5194 -1.7403 -0.8689
  146SAPE  C21916079   4.234   6.509   8.752  0.2296  0.0220  0.4627
  146SAPE  H19R16080   4.278   6.480   8.655 -0.7451 -0.5589  0.1846
  146SAPE  H19S16081   4.209   6.416   8.807  1.5213 -0.7860 -0.2829
  146SAPE  C22016082   4.337   6.583   8.835 -0.4963  0.0087 -0.0896
  146SAPE  H20R16083   4.360   6.686   8.803  0.5572  0.3094  1.4908
  146SAPE  H20S16084   4.431   6.526   8.815 -1.0557 -0.7355 -0.6362
  146SAPE  H20T16085   4.313   6.586   8.944 -1.5091 -0.0246 -0.3060
  146SAPE   C3316086   4.606   6.210  10.326 -0.4797 -0.5107  0.6042
  146SAPE   H3X16087   4.618   6.274  10.416 -0.7499 -2.0954  1.8131
  146SAPE   H3Y16088   4.540   6.265  10.255 -2.4479 -4.5310 -0.9707
  146SAPE   C3416089   4.757   6.208  10.272  0.3904 -0.6591 -0.0071
  146SAPE   H4X16090   4.833   6.197  10.352  0.5452 -0.6626 -0.1530
  146SAPE   H4Y16091   4.784   6.314  10.252  2.7899 -0.7801  2.0520
  146SAPE   C3516092   4.775   6.102  10.152 -0.5006  0.0482 -0.2115
  146SAPE   H5X16093   4.733   6.009  10.195  3.1579 -1.2317  1.0024
  146SAPE   H5Y16094   4.880   6.084  10.121 -0.3198 -0.5274  0.7041
  146SAPE   C3616095   4.698   6.140  10.023  0.6067 -0.6863 -0.1508
  146SAPE   H6X16096   4.742   6.240  10.002 -1.9118  0.3373 -1.0135
  146SAPE   H6Y16097   4.589   6.143  10.048  0.6942 -0.8758  0.2622
  146SAPE   C3716098   4.726   6.047   9.913  0.1228 -0.4202 -0.5515
  146SAPE   H7X16099   4.661   5.957   9.913  0.2908 -0.5424 -0.4612
  146SAPE   H7Y16100   4.831   6.010   9.926  0.4143  0.2335 -0.9911
  146SAPE   C3816101   4.712   6.116   9.778 -0.7674  0.7372  0.4563
  146SAPE   H8X16102   4.786   6.199   9.773  1.8358 -1.4742 -0.0838
  146SAPE   H8Y16103   4.608   6.152   9.768 -0.8849  0.0781 -1.1011
  146SAPE   C3916104   4.748   6.026   9.660 -0.1154 -0.1975 -0.3309
  146SAPE   H9X16105   4.696   5.930   9.678  1.2054 -0.8264  0.2825
  146SAPE   H9Y16106   4.858   6.009   9.665  0.0859  1.1455  0.2788
  146SAPE  C31016107   4.717   6.089   9.520 -0.3262  0.4412 -0.9925
  146SAPE  H10X16108   4.766   6.188   9.515 -0.7034  0.5929 -1.7655
  146SAPE  H10Y16109   4.609   6.114   9.511 -0.8953 -1.2137  0.5142
  146SAPE  C31116110   4.753   5.991   9.405  0.0535 -0.3558  0.0773
  146SAPE  H11X16111   4.689   5.905   9.432 -1.5692  1.1796  1.3327
  146SAPE  H11Y16112   4.862   5.970   9.405  0.3546  0.9433  2.1454
  146SAPE  C31216113   4.715   6.046   9.263 -0.2193  0.9701  0.3542
  146SAPE  H12X16114   4.614   6.091   9.264 -0.2363  0.9932 -0.8921
  146SAPE  H12Y16115   4.724   5.960   9.193 -0.8208  1.6434 -0.5677
  146SAPE  C31316116   4.809   6.152   9.217 -0.7450 -0.5617  0.3744
  146SAPE  H13X16117   4.911   6.109   9.221  0.2907  1.6549 -0.2700
  146SAPE  H13Y16118   4.795   6.239   9.285  1.1469  0.3877 -0.3856
  146SAPE  C31416119   4.774   6.189   9.072  0.2427  0.1885  0.2041
  146SAPE  H14X16120   4.674   6.237   9.078  1.1102  2.2834 -0.8423
  146SAPE  H14Y16121   4.776   6.095   9.013  0.7229 -1.1641  2.2778
  146SAPE  C31516122   4.877   6.302   9.032  0.3506  0.0481  0.1733
  146SAPE  H15X16123   4.976   6.252   9.030  0.1202 -0.4070  0.0675
  146SAPE  H15Y16124   4.881   6.384   9.107  2.4370  0.6606 -0.5339
  146SAPE  C31616125   4.837   6.353   8.892  0.8321 -0.1801 -0.4429
  146SAPE  H16X16126   4.734   6.392   8.907  0.3231 -1.9069  0.8982
  146SAPE  H16Y16127   4.827   6.265   8.825 -0.0571 -1.4523  1.2643
  146SAPE  C31716128   4.943   6.454   8.834  0.5644  0.0620  0.5347
  146SAPE  H17X16129   5.043   6.406   8.836  1.2050  1.3373 -0.2523
  146SAPE  H17Y16130   4.941   6.546   8.896 -0.0882  0.2838  0.1988
  146SAPE  C31816131   4.918   6.506   8.693  0.4750 -0.2138 -0.2568
  146SAPE  H18X16132   4.816   6.549   8.691  0.4301 -0.2767  0.3029
  146SAPE  H18Y16133   4.914   6.422   8.621 -1.8716 -0.4171  0.0360
  146SAPE  H18Z16134   4.992   6.582   8.660  1.3414 -0.9966 -0.1653
  147SAPE     N16135   0.612   5.382   6.077  0.3871  0.3978  0.5592
  147SAPE   HN116136   0.596   5.370   5.975 -1.0137  0.6548  0.7265
  147SAPE   HN216137   0.694   5.321   6.098 -0.7877 -2.4422 -2.2853
  147SAPE   HN316138   0.527   5.347   6.125 -0.3004  2.0246  0.5722
  147SAPE   C1216139   0.646   5.524   6.104  0.1839 -0.0266  0.2452
  147SAPE  H12A16140   0.664   5.567   6.003  0.0150 -1.7650 -0.5769
  147SAPE  H12B16141   0.746   5.531   6.152  1.1847 -1.1958 -1.5586
  147SAPE   C1116142   0.540   5.602   6.188 -0.0378  0.4215 -0.3353
  147SAPE  H11A16143   0.455   5.634   6.124 -0.6776 -0.5719 -0.0183
  147SAPE  H11B16144   0.587   5.696   6.224 -2.0289  0.4867  2.3531
  147SAPE     P16145   0.379   5.588   6.397 -0.3321 -0.4575 -0.4749
  147SAPE   O1316146   0.372   5.733   6.370 -0.1868 -0.0383 -0.0797
  147SAPE   O1416147   0.244   5.522   6.406 -0.0766 -0.0923 -0.4686
  147SAPE   O1216148   0.478   5.521   6.290 -0.6528 -0.0058 -0.0054
  147SAPE   O1116149   0.461   5.569   6.524  0.6989  0.4267  0.1661
  147SAPE    C116150   0.603   5.588   6.525 -0.1662 -0.5130  0.1140
  147SAPE    HA16151   0.645   5.496   6.572 -0.8328 -1.0792 -0.3836
  147SAPE    HB16152   0.642   5.605   6.422 -1.0295  1.6349  0.0803
  147SAPE    C216153   0.656   5.716   6.608 -0.9154  0.6246  0.0256
  147SAPE    HS16154   0.767   5.714   6.609 -0.8866  0.5878 -1.1052
  147SAPE   O2116155   0.600   5.714   6.741  0.2007 -0.5276 -0.2617
  147SAPE   C2116156   0.644   5.629   6.820 -0.0402 -0.0637 -0.8298
  147SAPE   O2216157   0.742   5.553   6.802  0.3328  0.1616  0.0032
  147SAPE   C2216158   0.552   5.623   6.938  0.1134  0.4442  0.0277
  147SAPE   H2R16159   0.444   5.610   6.916 -0.4948  1.1217  2.3378
  147SAPE   H2S16160   0.600   5.543   6.998 -3.0226  0.3463  2.7360
  147SAPE    C316161   0.619   5.850   6.541  0.5755  0.1819  0.5437
  147SAPE    HX16162   0.509   5.859   6.559  0.3439 -1.5389  0.1432
  147SAPE    HY16163   0.618   5.849   6.429  0.2665  0.9503  0.5343
  147SAPE   O3116164   0.700   5.960   6.590  0.1523 -0.2770  0.6756
  147SAPE   C3116165   0.647   6.032   6.685 -0.1790  0.5354 -0.4452
  147SAPE   O3216166   0.540   6.011   6.737  0.8862  0.3845  0.1212
  147SAPE   C3216167   0.726   6.164   6.714  0.0613  0.0916 -0.0207
  147SAPE   H2X16168   0.650   6.242   6.737  0.9576  0.9074  0.2754
  147SAPE   H2Y16169   0.761   6.193   6.612 -2.9916  0.9375 -0.9540
  147SAPE   C2316170   0.565   5.751   7.038  0.5200 -0.3621  0.1028
  147SAPE   H3R16171   0.516   5.831   6.978  2.3428 -0.0900 -1.1090
  147SAPE   H3S16172   0.671   5.778   7.054  0.7512 -0.0227 -1.7546
  147SAPE   C2416173   0.502   5.726   7.175  0.6770  0.2551 -0.1209
  147SAPE   H4R16174   0.397   5.688   7.179  0.8397 -0.1328  0.5815
  147SAPE   H4S16175   0.502   5.824   7.226 -1.4187 -1.0966  2.7623
  147SAPE   C2516176   0.588   5.656   7.280 -0.2588 -0.3120  0.4280
  147SAPE   H5R16177   0.686   5.699   7.302  0.0387 -0.8722  0.2094
  147SAPE   C2616178   0.552   5.541   7.341  0.1110  0.6666  0.6385
  147SAPE   H6R16179   0.605   5.494   7.426  0.6125 -0.2943 -0.1778
  147SAPE   C2716180   0.416   5.470   7.307  0.1582 -0.7584  0.4802
  147SAPE   H7R16181   0.402   5.468   7.197 -2.6728 -0.3870  0.7812
  147SAPE   H7S16182   0.342   5.540   7.351  0.9524  0.1159  0.4679
  147SAPE   C2816183   0.402   5.334   7.368 -1.0135 -0.5991 -0.6937
  147SAPE   H8R16184   0.415   5.245   7.306 -0.1347 -2.1565  1.5803
  147SAPE   C2916185   0.373   5.305   7.495  0.5847 -0.1092 -0.2908
  147SAPE   H9R16186   0.359   5.199   7.522 -0.1949 -0.7997 -3.0858
  147SAPE  C21016187   0.338   5.408   7.600 -0.3788  0.4459  0.4162
  147SAPE  H10R16188   0.430   5.461   7.632  1.0414 -2.0075  0.6439
  147SAPE  H10S16189   0.313   5.345   7.687 -0.4159 -1.0295 -0.6215
  147SAPE  C21116190   0.222   5.497   7.568  0.4741 -0.2344  0.0046
  147SAPE  H11R16191   0.171   5.491   7.471 -1.6416  0.4705  0.9967
  147SAPE  C21216192   0.171   5.589   7.658  0.1114  0.0695 -0.5642
  147SAPE  H12R16193   0.073   5.629   7.627 -0.2558  0.5756  1.1516
  147SAPE  C21316194   0.217   5.609   7.795 -0.2369  0.1346  0.5284
  147SAPE  H13R16195   0.308   5.671   7.808 -0.0854 -0.2608  1.4681
  147SAPE  H13S16196   0.241   5.515   7.849  1.0774 -0.0290 -0.2935
  147SAPE  C21416197   0.105   5.686   7.863  0.0970  0.0433 -0.0800
  147SAPE  H14R16198   0.052   5.758   7.799  0.3092  1.4730  1.3233
  147SAPE  C21516199   0.070   5.685   7.994 -0.0180  0.3938  0.5227
  147SAPE  H15R16200  -0.026   5.734   8.018 -1.1706 -0.3105 -2.2745
  147SAPE  C21616201   0.134   5.606   8.108  0.0497 -0.3355 -0.4075
  147SAPE  H16R16202   0.230   5.639   8.154 -0.5937 -0.3541  0.9627
  147SAPE  H16S16203   0.157   5.505   8.067 -0.9524  0.0278 -1.9650
  147SAPE  C21716204   0.030   5.576   8.218 -0.8686  0.2142 -0.2223
  147SAPE  H17R16205   0.055   5.479   8.266 -1.0490  0.8260  1.1699
  147SAPE  H17S16206  -0.071   5.548   8.181  0.2370 -2.9471 -1.1643
  147SAPE  C21816207   0.019   5.688   8.320 -0.0891  0.8959  0.3544
  147SAPE  H18R16208   0.118   5.739   8.329  0.7533 -0.5769 -0.1518
  147SAPE  H18S16209   0.007   5.628   8.413 -0.6032  1.4750  0.6680
  147SAPE  C21916210  -0.104   5.775   8.315  0.4195  0.1864  0.2040
  147SAPE  H19R16211  -0.178   5.717   8.256  0.6887  0.3373 -0.2828
  147SAPE  H19S16212  -0.105   5.869   8.255  0.1918 -1.2393 -2.1285
  147SAPE  C22016213  -0.176   5.796   8.450 -0.0174  0.2070  0.3251
  147SAPE  H20R16214  -0.185   5.706   8.514  1.3348  0.6034  1.0940
  147SAPE  H20S16215  -0.275   5.842   8.427 -0.0763  0.3855  0.9404
  147SAPE  H20T16216  -0.111   5.870   8.501 -2.1839  1.3959  1.4909
  147SAPE   C3316217   0.848   6.140   6.806 -0.5579  0.3638  0.2412
  147SAPE   H3X16218   0.890   6.239   6.838 -0.9021  0.3657  0.7004
  147SAPE   H3Y16219   0.932   6.085   6.759  2.3281  3.3858  1.4143
  147SAPE   C3416220   0.819   6.073   6.934  0.9008 -0.6051 -0.2904
  147SAPE   H4X16221   0.824   5.965   6.910  1.8049 -0.6965  0.2551
  147SAPE   H4Y16222   0.713   6.095   6.959  1.3030  1.6969 -0.4194
  147SAPE   C3516223   0.913   6.109   7.050  0.0197  0.4680  0.6875
  147SAPE   H5X16224   0.921   6.220   7.053  0.3401  0.4722 -0.1542
  147SAPE   H5Y16225   1.016   6.079   7.021 -0.5196  1.7412 -2.9811
  147SAPE   C3616226   0.864   6.050   7.179 -0.7579 -0.9097 -0.7737
  147SAPE   H6X16227   0.857   5.939   7.171 -0.0156 -1.0242 -0.0692
  147SAPE   H6Y16228   0.768   6.094   7.213  1.2176  0.3130  4.0742
  147SAPE   C3716229   0.976   6.069   7.291  0.7141 -0.3621 -0.2714
  147SAPE   H7X16230   1.001   6.177   7.294  0.6658 -0.2462 -2.6137
  147SAPE   H7Y16231   1.066   6.018   7.250  2.2463  3.5964 -2.3867
  147SAPE   C3816232   0.933   6.014   7.428  0.2798  0.4616 -0.1708
  147SAPE   H8X16233   0.844   6.075   7.456  1.7449  3.3675 -1.4005
  147SAPE   H8Y16234   1.010   6.026   7.507  1.7817 -0.7358 -1.3982
  147SAPE   C3916235   0.894   5.868   7.426 -0.6682  0.0645 -0.1552
  147SAPE   H9X16236   0.965   5.819   7.356  0.6898  0.7406  0.7052
  147SAPE   H9Y16237   0.794   5.881   7.380  0.4782  0.0225 -2.8888
  147SAPE  C31016238   0.870   5.799   7.564  0.6234 -0.0310  0.0907
  147SAPE  H10X16239   0.963   5.798   7.624  1.2541  1.6916 -0.7803
  147SAPE  H10Y16240   0.837   5.693   7.552 -2.1742  0.8740 -1.0132
  147SAPE  C31116241   0.763   5.869   7.648 -0.3844  0.8023  0.0152
  147SAPE  H11X16242   0.667   5.866   7.592 -0.4081 -0.1117  0.0971
  147SAPE  H11Y16243   0.788   5.977   7.661 -0.2008  1.0986 -2.3017
  147SAPE  C31216244   0.741   5.812   7.787 -0.5299  0.7487  0.2460
  147SAPE  H12X16245   0.696   5.710   7.781  2.0612 -0.4220 -2.3568
  147SAPE  H12Y16246   0.668   5.883   7.831  1.4292  4.0734 -1.4694
  147SAPE  C31316247   0.865   5.793   7.883 -0.2708  0.2977  0.4390
  147SAPE  H13X16248   0.920   5.888   7.900 -2.8589  2.4964 -2.3592
  147SAPE  H13Y16249   0.942   5.728   7.835  3.1770  3.1341  1.6710
  147SAPE  C31416250   0.802   5.731   8.006  0.0435  0.7029 -0.0093
  147SAPE  H14X16251   0.777   5.626   7.978  0.0262  0.3890  1.1076
  147SAPE  H14Y16252   0.711   5.786   8.035 -1.2045 -0.9341 -0.6473
  147SAPE  C31516253   0.896   5.734   8.130 -0.1223 -0.1449  0.5029
  147SAPE  H15X16254   0.913   5.842   8.150 -0.0207 -0.0416 -0.1205
  147SAPE  H15Y16255   0.992   5.685   8.106  0.6623  1.5561  0.0228
  147SAPE  C31616256   0.835   5.677   8.253 -0.0788  0.1967  0.9007
  147SAPE  H16X16257   0.809   5.571   8.236  3.1168 -0.6742  0.8404
  147SAPE  H16Y16258   0.737   5.726   8.271  0.2293  1.8835 -1.5801
  147SAPE  C31716259   0.927   5.692   8.377 -0.4425  0.5957 -0.1681
  147SAPE  H17X16260   1.025   5.645   8.352 -0.5919  0.6983 -0.9645
  147SAPE  H17Y16261   0.872   5.630   8.451 -1.2741  1.0248 -0.4214
  147SAPE  C31816262   0.959   5.831   8.431  0.7917 -0.2321  0.7893
  147SAPE  H18X16263   1.021   5.828   8.523  2.0652 -1.1532 -0.0627
  147SAPE  H18Y16264   0.860   5.874   8.456  1.7334  0.9143  2.7567
  147SAPE  H18Z16265   1.010   5.897   8.358  0.3681  1.8347  2.2718
  148SAPE     N16266   0.363   3.448   6.557  0.0036 -0.1905  0.4111
  148SAPE   HN116267   0.282   3.494   6.511  0.3880  0.3126  0.2195
  148SAPE   HN216268   0.448   3.459   6.498 -1.4958  1.5969 -1.5832
  148SAPE   HN316269   0.342   3.347   6.571  0.1609 -0.7322 -2.6790
  148SAPE   C1216270   0.408   3.493   6.692  0.2392 -0.1314 -0.2154
  148SAPE  H12A16271   0.345   3.450   6.773 -1.4238 -1.1070 -1.9311
  148SAPE  H12B16272   0.406   3.604   6.689 -0.3417  0.0608  3.1228
  148SAPE   C1116273   0.550   3.433   6.718 -0.0689 -0.1052 -0.1336
  148SAPE  H11A16274   0.544   3.322   6.723 -1.3118 -0.1793 -2.0161
  148SAPE  H11B16275   0.588   3.474   6.814 -2.0648 -0.9257  1.0728
  148SAPE     P16276   0.775   3.544   6.617  0.0911  0.5745 -0.2010
  148SAPE   O1316277   0.880   3.443   6.610 -0.2084  0.5666 -0.6195
  148SAPE   O1416278   0.777   3.643   6.515  0.1494 -0.6438  0.5953
  148SAPE   O1216279   0.633   3.478   6.611  0.3609  0.1824  0.0606
  148SAPE   O1116280   0.770   3.601   6.753  0.2043 -0.6254 -0.0491
  148SAPE    C116281   0.838   3.728   6.775  0.4718  0.4885 -1.5193
  148SAPE    HA16282   0.878   3.767   6.679 -0.5330  0.9362 -1.7647
  148SAPE    HB16283   0.760   3.800   6.810 -1.4861 -2.0046 -0.4284
  148SAPE    C216284   0.944   3.726   6.885 -0.2043  0.4753  0.6311
  148SAPE    HS16285   1.013   3.649   6.844 -0.6473 -0.3351  1.3494
  148SAPE   O2116286   0.878   3.680   7.002  0.0478  0.2464 -0.1809
  148SAPE   C2116287   0.961   3.616   7.077 -0.4746  0.2333  0.1590
  148SAPE   O2216288   1.082   3.597   7.061  0.1427  0.3931  0.0518
  148SAPE   C2216289   0.882   3.593   7.208 -0.0968  0.0358 -1.1043
  148SAPE   H2R16290   0.886   3.684   7.271 -2.5535 -0.7893  0.4207
  148SAPE   H2S16291   0.773   3.577   7.194 -0.4886  0.5465  0.9684
  148SAPE    C316292   1.025   3.863   6.903 -0.3496 -0.5111 -0.4533
  148SAPE    HX16293   1.097   3.883   6.821 -0.0757  1.2438  0.1678
  148SAPE    HY16294   1.091   3.847   6.992 -3.0926 -1.3080  1.5820
  148SAPE   O3116295   0.931   3.974   6.914  0.0751  0.1911  0.4145
  148SAPE   C3116296   0.881   3.981   7.039  0.4671 -0.3045  0.5536
  148SAPE   O3216297   0.909   3.913   7.136  0.0914  0.0388  0.2640
  148SAPE   C3216298   0.760   4.074   7.022  0.1309 -0.7097  0.7471
  148SAPE   H2X16299   0.699   4.038   6.936 -0.3763  0.6974  0.5032
  148SAPE   H2Y16300   0.793   4.174   6.986 -1.9220  0.2248  1.3113
  148SAPE   C2316301   0.939   3.469   7.289 -0.4790 -0.6427 -0.6616
  148SAPE   H3R16302   1.049   3.465   7.305 -0.6111 -1.6155  0.0471
  148SAPE   H3S16303   0.933   3.378   7.226  1.3354 -1.3082  0.0426
  148SAPE   C2416304   0.868   3.453   7.429  0.2184 -0.6975  0.4795
  148SAPE   H4R16305   0.910   3.362   7.477  1.2858 -0.3461  0.2342
  148SAPE   H4S16306   0.759   3.447   7.409  0.3496  2.0177 -1.6167
  148SAPE   C2516307   0.912   3.554   7.534 -0.4253 -0.1327  0.4114
  148SAPE   H5R16308   0.923   3.658   7.500  1.8390 -0.6144 -0.5028
  148SAPE   C2616309   0.953   3.528   7.667  0.0164  0.6485  0.0658
  148SAPE   H6R16310   0.990   3.621   7.713  1.0495  0.4567 -0.3580
  148SAPE   C2716311   0.971   3.404   7.736  0.2371 -0.5705 -0.2847
  148SAPE   H7R16312   0.964   3.319   7.665  0.8822 -0.9267  0.0689
  148SAPE   H7S16313   0.899   3.396   7.820  1.5335  2.1149  1.2383
  148SAPE   C2816314   1.114   3.389   7.782  0.2524  0.2159  0.1933
  148SAPE   H8R16315   1.181   3.354   7.701 -1.5552  1.7724 -2.1139
  148SAPE   C2916316   1.166   3.418   7.903  0.6741 -0.2628  0.2169
  148SAPE   H9R16317   1.273   3.408   7.922  0.7921 -2.4449 -1.3195
  148SAPE  C21016318   1.090   3.483   8.018  0.0646  0.1871  0.4822
  148SAPE  H10R16319   1.120   3.431   8.112  0.7441  0.7564  0.5876
  148SAPE  H10S16320   0.984   3.452   8.008 -0.1889  0.8834  0.9715
  148SAPE  C21116321   1.086   3.633   8.034  0.4809  0.2743 -0.3433
  148SAPE  H11R16322   0.990   3.671   7.997  0.1550 -0.5261 -0.3395
  148SAPE  C21216323   1.178   3.721   8.082  0.6788 -0.2587  0.2256
  148SAPE  H12R16324   1.150   3.824   8.109  0.9423 -0.2620  0.5086
  148SAPE  C21316325   1.319   3.689   8.115 -0.3203  0.3913 -0.5372
  148SAPE  H13R16326   1.374   3.640   8.032  1.4453  0.4495  0.5517
  148SAPE  H13S16327   1.316   3.611   8.194  1.7447  1.1188  0.3308
  148SAPE  C21416328   1.408   3.806   8.156 -0.3852 -0.1013  0.9889
  148SAPE  H14R16329   1.391   3.895   8.094  0.4767 -0.2679  0.4854
  148SAPE  C21516330   1.497   3.800   8.254 -1.0720  0.2769 -0.1327
  148SAPE  H15R16331   1.557   3.889   8.276  0.9037 -1.4626  2.0754
  148SAPE  C21616332   1.514   3.681   8.346 -0.1793 -0.0334 -0.2919
  148SAPE  H16R16333   1.484   3.585   8.298 -0.9379 -0.7930  1.5882
  148SAPE  H16S16334   1.461   3.683   8.444  3.6555  1.1377  1.9437
  148SAPE  C21716335   1.663   3.664   8.396  0.3213  0.2292  0.4584
  148SAPE  H17R16336   1.735   3.643   8.314 -1.0801 -0.3178 -0.6786
  148SAPE  H17S16337   1.668   3.579   8.468 -2.4240 -0.2043  0.2306
  148SAPE  C21816338   1.709   3.793   8.470  0.1789  0.9811  0.4642
  148SAPE  H18R16339   1.648   3.799   8.562  0.0893 -0.8433  0.5499
  148SAPE  H18S16340   1.692   3.891   8.418  1.0115  0.8614 -0.0466
  148SAPE  C21916341   1.861   3.781   8.506 -0.2946  0.2866 -0.2877
  148SAPE  H19R16342   1.933   3.781   8.422  0.0085 -2.6773 -0.1474
  148SAPE  H19S16343   1.876   3.683   8.556  0.2274  0.5625  0.1070
  148SAPE  C22016344   1.898   3.884   8.616  0.1131  0.3295 -0.1175
  148SAPE  H20R16345   1.834   3.881   8.707  1.3112  1.9539  0.8100
  148SAPE  H20S16346   1.878   3.982   8.566 -1.9205  0.6085  1.1075
  148SAPE  H20T16347   2.005   3.875   8.643  0.1918  1.7716  0.1424
  148SAPE   C3316348   0.679   4.089   7.152 -0.6586  0.1024  0.5237
  148SAPE   H3X16349   0.668   3.989   7.200  0.0038  0.1832  0.8513
  148SAPE   H3Y16350   0.580   4.127   7.119 -0.1212 -0.2895 -1.6581
  148SAPE   C3416351   0.734   4.189   7.251  0.5387 -1.2359 -0.2759
  148SAPE   H4X16352   0.726   4.293   7.215 -1.1419 -0.1743  2.7953
  148SAPE   H4Y16353   0.840   4.177   7.279  1.0323  1.5043 -0.6806
  148SAPE   C3516354   0.653   4.175   7.376  0.5251 -0.5910 -0.1552
  148SAPE   H5X16355   0.633   4.069   7.405 -1.7739 -0.2199 -0.2374
  148SAPE   H5Y16356   0.551   4.205   7.345  0.3162 -0.9794  0.1486
  148SAPE   C3616357   0.693   4.253   7.497 -0.6955 -0.2210  0.1402
  148SAPE   H6X16358   0.756   4.344   7.485  0.8838 -1.2699  0.1637
  148SAPE   H6Y16359   0.763   4.189   7.555 -0.9097 -0.9926 -0.4278
  148SAPE   C3716360   0.571   4.273   7.596  0.1168 -0.6304 -0.2604
  148SAPE   H7X16361   0.538   4.177   7.642  1.4442 -0.3396  1.4134
  148SAPE   H7Y16362   0.494   4.318   7.530  1.3714 -0.7598 -1.8499
  148SAPE   C3816363   0.616   4.369   7.701  0.5890 -0.2648  0.0415
  148SAPE   H8X16364   0.653   4.464   7.655 -1.0625 -0.3258 -1.5332
  148SAPE   H8Y16365   0.702   4.323   7.755  0.7095 -1.7750 -1.3618
  148SAPE   C3916366   0.499   4.397   7.803  0.2067 -0.1258  0.2549
  148SAPE   H9X16367   0.421   4.445   7.741 -0.4548  0.0020  1.1544
  148SAPE   H9Y16368   0.542   4.462   7.883  0.6663  1.6300 -1.3603
  148SAPE  C31016369   0.435   4.270   7.864  0.1883 -0.2005  0.0704
  148SAPE  H10X16370   0.527   4.210   7.879 -0.6582 -1.6997 -0.5823
  148SAPE  H10Y16371   0.366   4.226   7.789 -1.3727  2.5057 -0.2325
  148SAPE  C31116372   0.370   4.288   8.003  0.1258 -0.9077 -0.5005
  148SAPE  H11X16373   0.292   4.367   8.000  1.4022  0.3744 -1.8315
  148SAPE  H11Y16374   0.457   4.321   8.064  1.1357 -2.5258 -0.9935
  148SAPE  C31216375   0.319   4.156   8.064  0.2010  0.5699 -0.4088
  148SAPE  H12X16376   0.231   4.130   8.002  0.2300  0.0912 -0.2497
  148SAPE  H12Y16377   0.270   4.171   8.163  1.9031 -1.9319  0.8925
  148SAPE  C31316378   0.404   4.032   8.067  0.0734  0.1476 -0.6899
  148SAPE  H13X16379   0.504   4.066   8.100 -0.6840  1.0212  0.8146
  148SAPE  H13Y16380   0.402   3.974   7.972 -0.1856  0.8089 -1.0966
  148SAPE  C31416381   0.380   3.924   8.174 -0.3002 -0.0790 -0.6135
  148SAPE  H14X16382   0.413   3.826   8.135  1.1055  0.2170 -0.2196
  148SAPE  H14Y16383   0.273   3.905   8.196 -0.2556 -1.1269 -1.2554
  148SAPE  C31516384   0.455   3.955   8.308  0.0321  0.6071 -0.6745
  148SAPE  H15X16385   0.420   4.056   8.340 -1.9863 -0.4134  0.5859
  148SAPE  H15Y16386   0.565   3.947   8.300 -0.0187 -1.8722  0.2543
  148SAPE  C31616387   0.405   3.846   8.411  0.1567 -0.4686  0.4507
  148SAPE  H16X16388   0.451   3.746   8.396 -0.5576 -0.7226 -0.1206
  148SAPE  H16Y16389   0.297   3.823   8.396  0.2098 -1.4690  1.4447
  148SAPE  C31716390   0.435   3.888   8.551 -0.0395 -0.3409 -0.0344
  148SAPE  H17X16391   0.402   3.815   8.629  3.1095 -1.2964  0.5639
  148SAPE  H17Y16392   0.375   3.981   8.562  0.0480 -0.1189 -1.3020
  148SAPE  C31816393   0.582   3.896   8.585 -0.1687  0.1985  0.0741
  148SAPE  H18X16394   0.612   3.789   8.587 -1.6051 -0.2808 -1.5362
  148SAPE  H18Y16395   0.593   3.955   8.679 -2.6624  0.5955  0.1785
  148SAPE  H18Z16396   0.635   3.953   8.505 -1.8161  2.1321  0.2702
  149SAPE     N16397   0.255   4.691   6.534 -0.4979  0.9233 -0.0262
  149SAPE   HN116398   0.208   4.750   6.462  1.1877  2.0665 -0.2581
  149SAPE   HN216399   0.210   4.598   6.527  0.4549  0.5327 -1.8025
  149SAPE   HN316400   0.236   4.731   6.627 -1.8162 -0.7124  0.4559
  149SAPE   C1216401   0.404   4.684   6.507 -0.1768  0.8585  0.1250
  149SAPE  H12A16402   0.417   4.646   6.403  1.1247  2.3730 -0.3116
  149SAPE  H12B16403   0.451   4.628   6.591  2.4661  0.8729 -1.2543
  149SAPE   C1116404   0.463   4.829   6.513  0.1148 -0.3787  0.2417
  149SAPE  H11A16405   0.572   4.830   6.491  0.1125  1.1551  0.1907
  149SAPE  H11B16406   0.439   4.863   6.616 -2.4784 -1.3430  0.0258
  149SAPE     P16407   0.462   5.015   6.326  0.0017  0.2686 -0.1749
  149SAPE   O1316408   0.515   4.946   6.201 -0.0296 -0.5568  0.2666
  149SAPE   O1416409   0.366   5.123   6.306  0.8682  0.7998 -0.5297
  149SAPE   O1216410   0.390   4.916   6.421 -0.3356 -0.1153  0.3750
  149SAPE   O1116411   0.589   5.073   6.405  0.0160 -0.0987 -0.1517
  149SAPE    C116412   0.578   5.201   6.469  0.7371 -0.0140  0.1584
  149SAPE    HA16413   0.676   5.251   6.457  0.8271  0.2018  1.6643
  149SAPE    HB16414   0.501   5.270   6.426 -1.1814 -2.1947 -0.0839
  149SAPE    C216415   0.554   5.193   6.619 -0.1969 -0.5052 -1.0107
  149SAPE    HS16416   0.599   5.279   6.674 -2.8963  0.9147 -0.8134
  149SAPE   O2116417   0.607   5.069   6.669  0.2203 -0.3236  0.0132
  149SAPE   C2116418   0.735   5.059   6.676  0.3531 -0.8734 -0.1706
  149SAPE   O2216419   0.811   5.149   6.649 -0.8907  0.3972 -0.6161
  149SAPE   C2216420   0.773   4.923   6.722  0.0791  0.4305  0.6613
  149SAPE   H2R16421   0.723   4.905   6.820  0.3921 -0.6960  0.6325
  149SAPE   H2S16422   0.737   4.850   6.647 -0.2813  0.9319  0.3469
  149SAPE    C316423   0.405   5.216   6.666 -0.2206  0.0853 -0.2076
  149SAPE    HX16424   0.343   5.140   6.613  1.3359 -0.5136 -1.2203
  149SAPE    HY16425   0.370   5.317   6.635 -0.7875  0.3846  1.2889
  149SAPE   O3116426   0.407   5.213   6.807  0.4894 -0.3732  0.4867
  149SAPE   C3116427   0.380   5.100   6.865  0.3550  0.0985 -0.1711
  149SAPE   O3216428   0.332   5.002   6.813 -0.2424 -0.0526  0.5817
  149SAPE   C3216429   0.415   5.122   7.012  0.4433  0.8453 -0.3708
  149SAPE   H2X16430   0.366   5.047   7.078 -0.4666  1.2853 -0.5290
  149SAPE   H2Y16431   0.366   5.216   7.046  1.4251  0.8377  1.1769
  149SAPE   C2316432   0.925   4.904   6.742  0.7287 -0.1541  0.1066
  149SAPE   H3R16433   0.956   4.976   6.821 -0.7899  0.7527 -0.0676
  149SAPE   H3S16434   0.981   4.937   6.652 -1.4514  1.3205 -0.8114
  149SAPE   C2416435   0.967   4.760   6.784  0.2054 -0.7886 -0.7042
  149SAPE   H4R16436   1.076   4.757   6.766  0.0315 -1.6318 -1.7156
  149SAPE   H4S16437   0.932   4.688   6.707 -2.8227  0.7591 -0.9299
  149SAPE   C2516438   0.919   4.708   6.918  0.2841  0.3975  0.2786
  149SAPE   H5R16439   0.873   4.609   6.904 -1.8795  1.5960 -1.9130
  149SAPE   C2616440   0.922   4.752   7.042  0.0152 -0.8587 -0.3043
  149SAPE   H6R16441   0.884   4.692   7.126 -2.4277 -2.2957 -2.2943
  149SAPE   C2716442   0.990   4.874   7.096 -0.4878 -0.5087  0.6105
  149SAPE   H7R16443   0.919   4.924   7.165 -0.4780 -0.3895  0.5346
  149SAPE   H7S16444   1.003   4.959   7.026 -3.3798  2.3843  3.2839
  149SAPE   C2816445   1.128   4.848   7.154 -0.3363 -0.5714  0.3420
  149SAPE   H8R16446   1.201   4.784   7.101  0.3429 -1.6272  2.4399
  149SAPE   C2916447   1.167   4.882   7.275  0.0047  0.5086 -0.2479
  149SAPE   H9R16448   1.271   4.855   7.302  1.1457  3.4235 -1.2998
  149SAPE  C21016449   1.091   4.969   7.376  0.0151 -0.1117 -0.3352
  149SAPE  H10R16450   0.981   4.955   7.375  0.1852 -1.7803  0.6954
  149SAPE  H10S16451   1.111   5.078   7.363 -1.9843  0.2728 -0.4337
  149SAPE  C21116452   1.139   4.931   7.514 -0.8914 -0.2468  0.2881
  149SAPE  H11R16453   1.238   4.881   7.519  0.1929  1.5390 -1.7908
  149SAPE  C21216454   1.088   4.992   7.623  0.6598 -0.3650 -0.0108
  149SAPE  H12R16455   1.136   4.984   7.721  0.9058 -1.7172 -0.2242
  149SAPE  C21316456   0.966   5.087   7.642 -0.4072  0.1928  0.2452
  149SAPE  H13R16457   1.007   5.190   7.638  1.3362 -0.3296  2.4904
  149SAPE  H13S16458   0.941   5.069   7.749 -1.4289  1.4626  0.2472
  149SAPE  C21416459   0.838   5.053   7.579  0.2776  0.8539  0.5518
  149SAPE  H14R16460   0.838   4.951   7.539 -0.0592  1.0912 -0.0551
  149SAPE  C21516461   0.731   5.134   7.583 -0.1891 -0.2493  0.3379
  149SAPE  H15R16462   0.631   5.109   7.544 -0.6808  2.4163 -0.3190
  149SAPE  C21616463   0.711   5.264   7.651 -0.1485 -0.0928 -0.2205
  149SAPE  H16R16464   0.637   5.331   7.603  0.0667  0.3688  0.0844
  149SAPE  H16S16465   0.810   5.316   7.653 -0.9105  1.4262 -0.3496
  149SAPE  C21716466   0.666   5.236   7.799 -0.4299 -0.6839 -0.1543
  149SAPE  H17R16467   0.748   5.182   7.852  0.9380  1.8113  0.4176
  149SAPE  H17S16468   0.583   5.164   7.784  0.8712 -2.3762  0.4444
  149SAPE  C21816469   0.617   5.353   7.868 -0.1823 -0.4679 -0.0583
  149SAPE  H18R16470   0.527   5.393   7.817 -0.7562 -1.4936  0.1364
  149SAPE  H18S16471   0.692   5.435   7.863 -0.8126  0.1519  0.5070
  149SAPE  C21916472   0.566   5.315   8.009 -0.2993 -0.1027  0.1545
  149SAPE  H19R16473   0.647   5.270   8.069  0.6422  0.2059 -0.8421
  149SAPE  H19S16474   0.492   5.234   7.995 -1.0154  0.4090  0.8879
  149SAPE  C22016475   0.494   5.428   8.093  0.2461 -0.1405  1.0146
  149SAPE  H20R16476   0.571   5.496   8.136  1.8660 -0.2014 -1.5678
  149SAPE  H20S16477   0.434   5.379   8.173 -1.1475 -1.2006 -0.6102
  149SAPE  H20T16478   0.423   5.485   8.030  0.5127  0.6871  1.4440
  149SAPE   C3316479   0.568   5.120   7.020 -0.1992 -0.1308 -0.8887
  149SAPE   H3X16480   0.608   5.039   6.954 -0.5210 -2.8181  2.0020
  149SAPE   H3Y16481   0.598   5.088   7.122 -2.1664  0.0418 -0.2245
  149SAPE   C3416482   0.646   5.252   6.993 -0.0903  0.5261  0.3864
  149SAPE   H4X16483   0.615   5.334   7.060 -0.7269  1.1629 -0.6532
  149SAPE   H4Y16484   0.624   5.300   6.895  1.9701  0.1588 -0.2937
  149SAPE   C3516485   0.800   5.244   6.992 -0.2052 -0.0004 -0.4216
  149SAPE   H5X16486   0.823   5.342   6.944  0.6360 -0.1174 -0.2800
  149SAPE   H5Y16487   0.836   5.159   6.930 -0.4832 -0.4317  0.0039
  149SAPE   C3616488   0.881   5.228   7.131  0.1842  0.0826  0.1514
  149SAPE   H6X16489   0.983   5.193   7.108  0.2806  1.5065 -1.7922
  149SAPE   H6Y16490   0.828   5.152   7.193 -0.2528  1.6738  1.8588
  149SAPE   C3716491   0.866   5.359   7.204  0.0075  0.1674  0.4593
  149SAPE   H7X16492   0.756   5.375   7.216 -0.0822 -1.4637  2.1448
  149SAPE   H7Y16493   0.905   5.442   7.140 -1.5924  0.8891  0.3593
  149SAPE   C3816494   0.947   5.370   7.332  0.9889  0.1156  0.6408
  149SAPE   H8X16495   1.010   5.279   7.328  1.2753  0.3582 -0.9305
  149SAPE   H8Y16496   0.881   5.362   7.421  0.2826 -0.3259  0.0832
  149SAPE   C3916497   1.028   5.500   7.351  0.3453 -0.8024  0.1669
  149SAPE   H9X16498   0.953   5.581   7.354  1.0470 -0.1045 -0.5064
  149SAPE   H9Y16499   1.091   5.522   7.262 -2.2710  0.0107 -1.6031
  149SAPE  C31016500   1.123   5.509   7.478  0.1132  0.4590 -0.2246
  149SAPE  H10X16501   1.190   5.420   7.474 -0.6482 -0.1486  0.5313
  149SAPE  H10Y16502   1.060   5.522   7.568  2.0263 -1.2275  1.4706
  149SAPE  C31116503   1.229   5.619   7.464  0.1992 -0.1916  0.1380
  149SAPE  H11X16504   1.175   5.715   7.453 -0.2121 -0.3356  0.8285
  149SAPE  H11Y16505   1.275   5.609   7.364 -1.6000 -0.6109 -0.6957
  149SAPE  C31216506   1.340   5.622   7.573 -0.3355 -0.0485 -0.0414
  149SAPE  H12X16507   1.424   5.682   7.532 -1.5429  4.1885  3.0594
  149SAPE  H12Y16508   1.379   5.524   7.608 -0.0559  0.6368  1.6536
  149SAPE  C31316509   1.292   5.689   7.700 -0.0912  0.1593 -0.5922
  149SAPE  H13X16510   1.204   5.637   7.743  0.2280  1.4519  1.7967
  149SAPE  H13Y16511   1.252   5.790   7.674  1.1181  0.9867  0.5914
  149SAPE  C31416512   1.399   5.708   7.808  0.1311  0.0960 -0.5883
  149SAPE  H14X16513   1.479   5.770   7.762  0.0455 -1.1223 -2.5184
  149SAPE  H14Y16514   1.439   5.617   7.858  0.3601  1.6002  2.1380
  149SAPE  C31516515   1.324   5.773   7.929  0.4533 -0.4784  0.0124
  149SAPE  H15X16516   1.267   5.701   7.992  2.0640 -0.0140  2.1186
  149SAPE  H15Y16517   1.253   5.850   7.891  0.0350 -0.8029  0.1271
  149SAPE  C31616518   1.418   5.855   8.025  0.5589  0.4315  1.0297
  149SAPE  H16X16519   1.506   5.792   8.051 -0.7627 -2.1478 -0.2638
  149SAPE  H16Y16520   1.368   5.890   8.117 -1.4202 -1.1859  0.6576
  149SAPE  C31716521   1.474   5.985   7.967  0.1900  1.0042  0.1425
  149SAPE  H17X16522   1.394   6.047   7.921  1.0258  1.0236 -1.3645
  149SAPE  H17Y16523   1.538   5.968   7.877 -0.7544 -1.3132 -0.1613
  149SAPE  C31816524   1.548   6.066   8.074 -0.1574 -0.5754 -0.0804
  149SAPE  H18X16525   1.643   6.021   8.109 -0.6113 -0.2606  1.6575
  149SAPE  H18Y16526   1.481   6.098   8.157 -0.3930  0.0428 -0.5026
  149SAPE  H18Z16527   1.569   6.168   8.035 -1.8598  0.2030  0.9407
  150SAPE     N16528   0.186   4.639   6.098 -0.3031 -0.1599 -0.0943
  150SAPE   HN116529   0.089   4.648   6.063 -1.0631  1.4047  2.2279
  150SAPE   HN216530   0.258   4.610   6.028  2.4515  2.9713  1.1461
  150SAPE   HN316531   0.177   4.567   6.173  0.6952  0.7119  0.8975
  150SAPE   C1216532   0.231   4.773   6.154  0.1543  0.6386 -0.2689
  150SAPE  H12A16533   0.268   4.828   6.065  1.4942  3.4196  1.8672
  150SAPE  H12B16534   0.304   4.752   6.234 -1.7898  0.4216  1.5383
  150SAPE   C1116535   0.120   4.851   6.227 -0.0553 -0.3595 -0.1958
  150SAPE  H11A16536   0.050   4.894   6.152  0.6206  0.7766 -0.1960
  150SAPE  H11B16537   0.154   4.948   6.269 -1.0974 -0.2407  0.4294
  150SAPE     P16538  -0.081   4.766   6.355 -0.3427 -0.1641 -0.2182
  150SAPE   O1316539  -0.152   4.743   6.227 -0.0568  0.7325  0.3492
  150SAPE   O1416540  -0.109   4.674   6.468 -0.1780 -0.0246 -0.3836
  150SAPE   O1216541   0.069   4.770   6.333  0.5498 -0.7347 -0.5882
  150SAPE   O1116542  -0.103   4.914   6.391  0.6036  0.3709  0.1991
  150SAPE    C116543  -0.061   4.980   6.510 -0.3625 -0.9056 -0.3572
  150SAPE    HA16544   0.000   4.911   6.572  0.9125 -0.8142 -1.4839
  150SAPE    HB16545   0.006   5.061   6.476 -0.6063 -1.4770 -2.3027
  150SAPE    C216546  -0.183   5.044   6.594  0.7001  0.2915  0.4935
  150SAPE    HS16547  -0.143   5.111   6.674 -0.5942  0.2805  1.1863
  150SAPE   O2116548  -0.269   4.945   6.649  0.0591 -0.1661 -0.8285
  150SAPE   C2116549  -0.223   4.860   6.735  0.5407 -0.6122  0.3716
  150SAPE   O2216550  -0.116   4.873   6.792 -0.5330  0.3710 -0.3339
  150SAPE   C2216551  -0.320   4.739   6.752 -0.4009 -0.5635 -0.1157
  150SAPE   H2R16552  -0.420   4.774   6.784 -1.6977 -3.2822 -0.9146
  150SAPE   H2S16553  -0.350   4.702   6.652 -2.2629  1.0195 -0.2047
  150SAPE    C316554  -0.278   5.128   6.500 -0.2351 -0.4144 -0.1346
  150SAPE    HX16555  -0.312   5.051   6.428  2.4900 -0.7445 -1.1840
  150SAPE    HY16556  -0.207   5.201   6.455  0.7752 -1.0676  0.3615
  150SAPE   O3116557  -0.380   5.202   6.568 -0.0261 -0.5947  0.5672
  150SAPE   C3116558  -0.503   5.149   6.590 -0.5442 -0.7815 -0.3803
  150SAPE   O3216559  -0.540   5.036   6.568 -0.2922  0.4275  0.5584
  150SAPE   C3216560  -0.594   5.257   6.659 -0.0014  0.3538  0.7363
  150SAPE   H2X16561  -0.626   5.326   6.579  0.4800  1.1909  1.2481
  150SAPE   H2Y16562  -0.523   5.310   6.727 -1.4554  1.1681  1.6666
  150SAPE   C2316563  -0.258   4.628   6.839  0.6016 -0.2659 -0.5977
  150SAPE   H3R16564  -0.210   4.664   6.932 -0.5205 -2.4539  0.9124
  150SAPE   H3S16565  -0.194   4.568   6.772 -0.7145 -0.7984 -1.4118
  150SAPE   C2416566  -0.369   4.535   6.890  1.0242  0.0614  0.3582
  150SAPE   H4R16567  -0.407   4.502   6.790  1.9580  0.5329 -0.1602
  150SAPE   H4S16568  -0.454   4.593   6.933  1.2045  0.4501  0.1975
  150SAPE   C2516569  -0.331   4.416   6.978 -0.1146 -0.6162 -0.2490
  150SAPE   H5R16570  -0.283   4.333   6.923  3.6446  0.5216  1.0107
  150SAPE   C2616571  -0.328   4.410   7.114 -0.2290  0.5248  0.7427
  150SAPE   H6R16572  -0.298   4.314   7.159  0.2537 -0.0808 -0.8331
  150SAPE   C2716573  -0.358   4.528   7.203 -0.2069 -0.2286 -0.2947
  150SAPE   H7R16574  -0.431   4.491   7.279 -0.0589 -0.1490 -0.1145
  150SAPE   H7S16575  -0.407   4.613   7.151 -0.3834  0.6119  1.2046
  150SAPE   C2816576  -0.233   4.566   7.276 -0.0047  0.2755  0.2140
  150SAPE   H8R16577  -0.151   4.614   7.221 -0.3421  1.6481  0.8719
  150SAPE   C2916578  -0.213   4.552   7.410  0.0473  0.1965  0.0566
  150SAPE   H9R16579  -0.114   4.571   7.454  0.3078  1.2556 -0.9346
  150SAPE  C21016580  -0.307   4.495   7.512 -0.5500  0.3433  0.4589
  150SAPE  H10R16581  -0.400   4.554   7.499 -0.5470 -0.1348 -2.4736
  150SAPE  H10S16582  -0.262   4.512   7.612  1.5682 -0.9440 -0.2136
  150SAPE  C21116583  -0.358   4.354   7.498  0.3180  0.2516 -0.1094
  150SAPE  H11R16584  -0.376   4.322   7.394  0.1320  1.2684 -0.3979
  150SAPE  C21216585  -0.400   4.264   7.590 -0.3418 -0.2211 -0.6586
  150SAPE  H12R16586  -0.444   4.172   7.547  3.6804 -1.9620 -1.5792
  150SAPE  C21316587  -0.394   4.285   7.740  0.8057 -0.1869 -0.4795
  150SAPE  H13R16588  -0.410   4.391   7.768 -0.2033 -0.3801 -0.3123
  150SAPE  H13S16589  -0.287   4.271   7.769  0.3077  0.3421  1.8660
  150SAPE  C21416590  -0.481   4.180   7.810 -1.1998 -0.1476  0.1036
  150SAPE  H14R16591  -0.574   4.224   7.848 -0.6514  0.5330  0.7193
  150SAPE  C21516592  -0.440   4.053   7.817  0.6236  0.1908 -0.7603
  150SAPE  H15R16593  -0.515   3.982   7.853  1.3523 -0.5318 -0.6294
  150SAPE  C21616594  -0.317   3.992   7.758 -0.2065  0.1079 -0.2785
  150SAPE  H16R16595  -0.252   4.073   7.719 -1.5766  2.7827  2.5135
  150SAPE  H16S16596  -0.344   3.929   7.671 -1.6605 -0.3751  0.4892
  150SAPE  C21716597  -0.234   3.917   7.863  0.0463  0.8109 -0.5596
  150SAPE  H17R16598  -0.212   3.983   7.950 -2.6433  1.0862 -0.0184
  150SAPE  H17S16599  -0.138   3.876   7.824  0.1410 -1.2928  1.6989
  150SAPE  C21816600  -0.307   3.798   7.920 -0.1456 -0.4051  0.5449
  150SAPE  H18R16601  -0.341   3.733   7.837  0.1218 -3.2470  2.5204
  150SAPE  H18S16602  -0.395   3.830   7.979  0.1599  0.0780  0.7494
  150SAPE  C21916603  -0.224   3.702   8.006 -0.2536  0.2669 -0.1877
  150SAPE  H19R16604  -0.151   3.659   7.934  0.5381  0.6868  0.3478
  150SAPE  H19S16605  -0.306   3.634   8.037 -1.2255  0.8655 -1.3539
  150SAPE  C22016606  -0.144   3.762   8.123 -0.2695 -0.3047 -0.4811
  150SAPE  H20R16607  -0.210   3.811   8.199 -0.9891  0.7545 -1.7445
  150SAPE  H20S16608  -0.075   3.835   8.076  0.4916  0.0397  1.1039
  150SAPE  H20T16609  -0.083   3.682   8.171 -1.1040 -2.3590 -2.6478
  150SAPE   C3316610  -0.725   5.224   6.737  0.4868 -0.1439  1.0438
  150SAPE   H3X16611  -0.793   5.154   6.683  1.5713 -0.2035 -0.2868
  150SAPE   H3Y16612  -0.781   5.319   6.753 -0.0709 -0.2838 -0.0279
  150SAPE   C3416613  -0.706   5.178   6.879 -0.2435 -0.0597 -0.2053
  150SAPE   H4X16614  -0.655   5.080   6.880 -0.8337 -0.3724  0.0607
  150SAPE   H4Y16615  -0.812   5.159   6.910  0.2047 -2.4556  0.0671
  150SAPE   C3516616  -0.644   5.293   6.963 -0.7289  0.0433  0.5649
  150SAPE   H5X16617  -0.713   5.378   6.947 -0.4320  0.1016 -0.4719
  150SAPE   H5Y16618  -0.545   5.322   6.923 -0.9474  1.2590  0.8677
  150SAPE   C3616619  -0.644   5.283   7.117  0.7435  0.5632 -0.3803
  150SAPE   H6X16620  -0.587   5.193   7.146  0.8265  1.1621  1.4292
  150SAPE   H6Y16621  -0.746   5.269   7.158  0.9066 -1.0651 -0.4675
  150SAPE   C3716622  -0.588   5.411   7.189 -0.3871 -0.8010  0.6016
  150SAPE   H7X16623  -0.639   5.499   7.145  1.8721 -1.9253 -5.1339
  150SAPE   H7Y16624  -0.482   5.434   7.168 -0.3509 -0.9343  0.6334
  150SAPE   C3816625  -0.594   5.386   7.340  1.0472  0.4737  0.1216
  150SAPE   H8X16626  -0.539   5.292   7.364  1.7353  0.8774  0.1427
  150SAPE   H8Y16627  -0.701   5.364   7.363  1.1602  1.0871  1.2955
  150SAPE   C3916628  -0.553   5.497   7.422 -0.0628 -0.3015 -0.6930
  150SAPE   H9X16629  -0.641   5.564   7.430  0.3554  0.2537 -0.6816
  150SAPE   H9Y16630  -0.464   5.553   7.387  2.3218 -3.4367 -0.1017
  150SAPE  C31016631  -0.520   5.449   7.567 -0.2896  0.4298  0.3428
  150SAPE  H10X16632  -0.420   5.401   7.575  0.1009  0.9048 -1.3785
  150SAPE  H10Y16633  -0.596   5.376   7.602  2.7437 -3.7201 -0.9573
  150SAPE  C31116634  -0.513   5.567   7.662  0.6431 -0.3874  0.1375
  150SAPE  H11X16635  -0.612   5.615   7.655 -0.5378 -2.6574  0.3884
  150SAPE  H11Y16636  -0.429   5.633   7.629  0.4191 -0.5374 -0.7642
  150SAPE  C31216637  -0.505   5.537   7.814 -1.0180  0.4588  1.1667
  150SAPE  H12X16638  -0.593   5.485   7.855 -1.9767 -0.6296 -1.9496
  150SAPE  H12Y16639  -0.478   5.629   7.869 -1.0424  0.2701  1.4934
  150SAPE  C31316640  -0.387   5.437   7.849  0.3443 -0.2826 -1.0745
  150SAPE  H13X16641  -0.414   5.334   7.818 -0.7595 -0.4013  0.2051
  150SAPE  H13Y16642  -0.380   5.437   7.960  1.6011  2.0062 -1.0742
  150SAPE  C31416643  -0.250   5.472   7.793 -0.0902  0.2952 -0.0721
  150SAPE  H14X16644  -0.227   5.580   7.810  0.7471  0.3915 -1.6174
  150SAPE  H14Y16645  -0.244   5.446   7.685  0.6287 -0.6185  0.1818
  150SAPE  C31516646  -0.135   5.408   7.869 -0.0017  0.6701  0.2338
  150SAPE  H15X16647  -0.147   5.415   7.979 -3.0680 -3.0345  0.3788
  150SAPE  H15Y16648  -0.035   5.433   7.828 -0.1702 -0.2639 -0.8076
  150SAPE  C31616649  -0.136   5.247   7.850  0.1413 -0.2771  0.0120
  150SAPE  H16X16650  -0.152   5.232   7.741  4.4138 -3.8568 -0.3959
  150SAPE  H16Y16651  -0.225   5.199   7.896 -1.2527  1.8132 -0.3547
  150SAPE  C31716652  -0.016   5.173   7.897  0.1193 -0.2674  0.2273
  150SAPE  H17X16653  -0.045   5.068   7.916 -3.3607  0.4321 -0.6711
  150SAPE  H17Y16654   0.005   5.223   7.995  0.2249  3.2678 -1.4271
  150SAPE  C31816655   0.106   5.186   7.801 -0.2555 -0.0707  0.0221
  150SAPE  H18X16656   0.078   5.169   7.695  0.2087  1.9799 -0.4874
  150SAPE  H18Y16657   0.199   5.132   7.826  0.5646  0.8129 -1.0130
  150SAPE  H18Z16658   0.133   5.294   7.803 -0.9457  0.0986  0.6619
  151SAPE     N16659   1.052   3.437   6.400 -0.3316 -0.3306  0.2579
  151SAPE   HN116660   0.998   3.444   6.488  0.6996  1.4002  0.8031
  151SAPE   HN216661   1.045   3.532   6.359 -0.8137  1.4682  4.0304
  151SAPE   HN316662   1.013   3.369   6.331 -0.1834  0.4192 -0.5773
  151SAPE   C1216663   1.191   3.393   6.418  0.1180  0.1786  0.4760
  151SAPE  H12A16664   1.189   3.282   6.410 -2.1312  0.2637 -0.7638
  151SAPE  H12B16665   1.218   3.414   6.524 -0.9098 -0.2982  0.8427
  151SAPE   C1116666   1.290   3.454   6.313  0.3835 -0.0402  0.7582
  151SAPE  H11A16667   1.276   3.406   6.214 -0.9842  0.6615  0.5920
  151SAPE  H11B16668   1.395   3.439   6.349  0.3714  0.3013  0.9413
  151SAPE     P16669   1.360   3.719   6.348  0.3044  0.5857 -0.1970
  151SAPE   O1316670   1.492   3.722   6.285 -0.2284  0.4861  0.4339
  151SAPE   O1416671   1.277   3.839   6.330  0.8707  0.1290 -0.2594
  151SAPE   O1216672   1.274   3.595   6.295 -0.3610  0.1478  0.2993
  151SAPE   O1116673   1.376   3.676   6.495 -0.1853  0.2056  0.3901
  151SAPE    C116674   1.498   3.695   6.576  0.4401  0.3539  0.1424
  151SAPE    HA16675   1.562   3.778   6.539  0.7854 -0.8800 -2.1913
  151SAPE    HB16676   1.466   3.719   6.680 -0.0132 -0.1156  0.1109
  151SAPE    C216677   1.595   3.577   6.584  0.5323  0.5556  0.6346
  151SAPE    HS16678   1.619   3.550   6.478  1.0420 -1.0648  1.1243
  151SAPE   O2116679   1.526   3.474   6.643  0.2092  0.1067 -0.4620
  151SAPE   C2116680   1.553   3.352   6.613 -0.1828  0.3881  0.5131
  151SAPE   O2216681   1.626   3.313   6.525  0.7607  0.0148 -0.6854
  151SAPE   C2216682   1.445   3.259   6.679  0.3312 -0.4068 -0.5490
  151SAPE   H2R16683   1.358   3.239   6.614 -0.2363  2.6513 -0.8514
  151SAPE   H2S16684   1.496   3.165   6.711 -0.5507 -0.2412  1.4798
  151SAPE    C316685   1.725   3.615   6.655  0.1266  0.5760 -0.1771
  151SAPE    HX16686   1.775   3.692   6.593 -0.7857 -0.5608 -2.4514
  151SAPE    HY16687   1.790   3.525   6.662 -0.7694 -0.0895 -0.1896
  151SAPE   O3116688   1.701   3.665   6.795  0.0269  0.3282  0.0116
  151SAPE   C3116689   1.695   3.573   6.885  0.6749  0.7254 -1.4543
  151SAPE   O3216690   1.745   3.460   6.884 -0.3000 -0.1816 -0.1634
  151SAPE   C3216691   1.624   3.633   7.003  0.4697  0.0970 -0.2393
  151SAPE   H2X16692   1.542   3.701   6.975 -0.3009  0.0002  1.6573
  151SAPE   H2Y16693   1.710   3.683   7.054  0.0714  0.0336  0.5088
  151SAPE   C2316694   1.392   3.314   6.819  0.0408 -0.0765  0.1639
  151SAPE   H3R16695   1.347   3.415   6.807 -2.0741 -0.8589  0.9952
  151SAPE   H3S16696   1.468   3.316   6.900 -2.7495  0.9055  2.9779
  151SAPE   C2416697   1.287   3.216   6.864 -0.3794 -0.2600 -0.1367
  151SAPE   H4R16698   1.325   3.113   6.878  2.2128  0.6112 -0.2475
  151SAPE   H4S16699   1.220   3.208   6.775 -0.5139 -0.6326 -0.0033
  151SAPE   C2516700   1.218   3.263   6.989  0.6198 -0.3521 -0.0366
  151SAPE   H5R16701   1.212   3.372   7.008 -0.2171 -0.5732  1.0550
  151SAPE   C2616702   1.144   3.190   7.067  0.6539  0.1718 -0.4931
  151SAPE   H6R16703   1.085   3.236   7.147 -0.9679 -0.6688 -1.1466
  151SAPE   C2716704   1.117   3.042   7.042  0.2682  0.4572 -0.1684
  151SAPE   H7R16705   1.201   2.981   7.081  0.8730 -0.4185 -2.6138
  151SAPE   H7S16706   1.129   3.020   6.934  4.9937  0.4174  0.1662
  151SAPE   C2816707   0.981   3.000   7.085 -0.2105 -0.3515 -0.4975
  151SAPE   H8R16708   0.907   2.964   7.012  0.2431 -2.6027  0.0738
  151SAPE   C2916709   0.941   2.972   7.213  0.3796 -0.3416  0.2619
  151SAPE   H9R16710   0.834   2.958   7.237 -0.1167 -0.9114 -2.0397
  151SAPE  C21016711   1.037   2.975   7.332 -0.3787 -0.5896 -0.0733
  151SAPE  H10R16712   0.998   3.055   7.397 -1.7964 -0.3123 -1.2197
  151SAPE  H10S16713   1.138   3.007   7.299 -0.4732  0.4069  0.5845
  151SAPE  C21116714   1.030   2.844   7.400  0.3126  0.0438 -0.1222
  151SAPE  H11R16715   1.057   2.758   7.336  0.3696  0.9725 -1.3913
  151SAPE  C21216716   1.003   2.821   7.528 -0.1664 -0.1714  0.0529
  151SAPE  H12R16717   0.996   2.717   7.563  1.0232  0.2171  1.5470
  151SAPE  C21316718   0.982   2.925   7.632  0.3845  0.1092 -0.3307
  151SAPE  H13R16719   0.875   2.957   7.634 -0.5650 -2.5161 -2.9534
  151SAPE  H13S16720   1.045   3.009   7.597  1.2753 -0.8332 -1.0331
  151SAPE  C21416721   1.037   2.875   7.764 -0.1702  0.3672  0.6306
  151SAPE  H14R16722   1.090   2.779   7.757 -1.1945 -0.2230  0.8087
  151SAPE  C21516723   1.013   2.939   7.877  0.5806  0.4198 -0.1963
  151SAPE  H15R16724   1.054   2.896   7.969 -0.6175  2.2891  1.2856
  151SAPE  C21616725   0.932   3.066   7.894  0.0919 -0.2140  0.5694
  151SAPE  H16R16726   0.935   3.120   7.798  0.3227  0.8323  1.1452
  151SAPE  H16S16727   0.981   3.143   7.959 -0.0003 -0.2381  0.6685
  151SAPE  C21716728   0.786   3.056   7.945 -0.4015 -0.3489  0.1367
  151SAPE  H17R16729   0.717   2.995   7.882  0.9708 -2.7563  0.8484
  151SAPE  H17S16730   0.747   3.160   7.952 -0.8725 -0.4716 -0.5129
  151SAPE  C21816731   0.774   2.984   8.083  0.7714 -0.0290 -0.2252
  151SAPE  H18R16732   0.817   2.882   8.084  1.8111  0.3621  2.1277
  151SAPE  H18S16733   0.667   2.960   8.102  0.5091 -2.2541 -3.6493
  151SAPE  C21916734   0.830   3.068   8.201  0.1959 -0.3075 -0.3140
  151SAPE  H19R16735   0.830   3.173   8.165  2.5218  0.1560  0.8730
  151SAPE  H19S16736   0.937   3.039   8.202  0.1353 -0.5261  0.0806
  151SAPE  C22016737   0.775   3.038   8.343  0.2503  0.0639  0.4714
  151SAPE  H20R16738   0.815   3.102   8.425  0.2374 -0.7946  1.1658
  151SAPE  H20S16739   0.667   3.066   8.336  0.1056 -0.7665 -1.0053
  151SAPE  H20T16740   0.779   2.932   8.374  0.2702 -0.1262 -0.1709
  151SAPE   C3316741   1.563   3.531   7.097  1.3725 -0.2434 -0.8567
  151SAPE   H3X16742   1.639   3.458   7.132  0.6083 -0.2605  0.8626
  151SAPE   H3Y16743   1.482   3.469   7.052  0.2713  0.0139  0.6767
  151SAPE   C3416744   1.515   3.605   7.226  0.1458 -0.6676 -0.1684
  151SAPE   H4X16745   1.427   3.666   7.195  0.5143  0.0108  0.1102
  151SAPE   H4Y16746   1.600   3.667   7.262 -0.6999  0.6104 -0.3214
  151SAPE   C3516747   1.467   3.509   7.338  0.0467 -0.3057  0.5494
  151SAPE   H5X16748   1.555   3.443   7.351  1.1080  1.0706  0.5886
  151SAPE   H5Y16749   1.380   3.446   7.312 -0.3147 -0.1344  1.3187
  151SAPE   C3616750   1.446   3.584   7.460 -0.5381 -0.1670 -0.0461
  151SAPE   H6X16751   1.519   3.666   7.480 -2.1640  0.9191  1.7720
  151SAPE   H6Y16752   1.438   3.523   7.552 -1.7600  2.1983  1.5123
  151SAPE   C3716753   1.311   3.659   7.458 -0.3235 -0.3102  0.2788
  151SAPE   H7X16754   1.226   3.589   7.471 -1.3764  1.0228  0.7742
  151SAPE   H7Y16755   1.286   3.711   7.363 -0.8278  0.6198  0.9041
  151SAPE   C3816756   1.304   3.782   7.554 -0.2358 -0.2319 -0.4268
  151SAPE   H8X16757   1.394   3.847   7.560 -1.2628  1.4760 -2.3177
  151SAPE   H8Y16758   1.280   3.745   7.656 -0.4060 -1.6242 -0.9575
  151SAPE   C3916759   1.200   3.879   7.517  0.5033  0.0834 -0.0927
  151SAPE   H9X16760   1.099   3.834   7.523 -0.6649  2.6769  0.8644
  151SAPE   H9Y16761   1.220   3.914   7.414  1.8774  0.2340  0.2032
  151SAPE  C31016762   1.199   4.004   7.606  0.3322  0.7683  0.2025
  151SAPE  H10X16763   1.140   4.083   7.555 -0.4304 -1.1023 -2.0148
  151SAPE  H10Y16764   1.303   4.041   7.613  1.0155 -0.2495 -2.8882
  151SAPE  C31116765   1.125   3.952   7.733  0.1709  0.4315  0.1802
  151SAPE  H11X16766   1.170   3.866   7.788 -1.3797 -0.5331  0.0025
  151SAPE  H11Y16767   1.022   3.916   7.713  1.1299 -2.8400  0.4725
  151SAPE  C31216768   1.117   4.059   7.838 -0.3360 -0.8997 -0.0862
  151SAPE  H12X16769   1.217   4.104   7.857 -1.1642  0.3650  1.4821
  151SAPE  H12Y16770   1.096   4.012   7.937 -0.5616 -0.3198  0.1416
  151SAPE  C31316771   1.011   4.170   7.806 -0.0528  0.4667  0.0732
  151SAPE  H13X16772   0.920   4.118   7.767  0.5603 -0.1286 -0.5980
  151SAPE  H13Y16773   1.045   4.224   7.715 -1.8269 -0.5613 -1.2869
  151SAPE  C31416774   0.977   4.270   7.915 -0.5311  0.3363  0.7594
  151SAPE  H14X16775   0.961   4.364   7.859  1.5985  0.0412 -0.4543
  151SAPE  H14Y16776   1.065   4.288   7.980 -1.2499  0.5871  1.6820
  151SAPE  C31516777   0.847   4.230   7.986  0.3155 -0.0894  0.3313
  151SAPE  H15X16778   0.866   4.133   8.037 -2.0202 -0.7903 -0.0224
  151SAPE  H15Y16779   0.771   4.199   7.911 -1.2841 -4.7337  3.4675
  151SAPE  C31616780   0.798   4.335   8.088 -0.6090  0.1383  0.7941
  151SAPE  H16X16781   0.730   4.408   8.039  1.2267  2.5443  1.6306
  151SAPE  H16Y16782   0.872   4.412   8.120  0.2093 -0.6127  0.7603
  151SAPE  C31716783   0.719   4.293   8.215 -0.2248 -0.2423 -0.2999
  151SAPE  H17X16784   0.788   4.240   8.284 -1.0297 -1.4149 -0.3662
  151SAPE  H17Y16785   0.643   4.219   8.182  0.1571 -0.7647 -0.0047
  151SAPE  C31816786   0.652   4.404   8.303 -0.8732 -0.2915 -0.4321
  151SAPE  H18X16787   0.731   4.481   8.319  0.3051 -1.2696 -1.3547
  151SAPE  H18Y16788   0.603   4.367   8.396 -0.1629  1.1195  0.5440
  151SAPE  H18Z16789   0.574   4.464   8.250 -1.5285 -0.5526  0.2149
  152SAPE     N16790   5.362   6.504   6.207  0.2990  0.4415  0.5246
  152SAPE   HN116791   5.446   6.563   6.195  0.9677 -0.9154 -2.1664
  152SAPE   HN216792   5.307   6.523   6.121 -2.3176 -0.2601  1.8987
  152SAPE   HN316793   5.307   6.528   6.293  0.1575  0.3579  0.4588
  152SAPE   C1216794   5.409   6.364   6.193  0.1882  0.4514  0.7731
  152SAPE  H12A16795   5.505   6.354   6.248  1.5298 -1.1822 -1.6494
  152SAPE  H12B16796   5.423   6.335   6.087 -1.8346  0.3087  0.5098
  152SAPE   C1116797   5.313   6.265   6.257  0.5151 -0.0140 -0.2622
  152SAPE  H11A16798   5.325   6.266   6.368  2.1860 -0.6082 -0.4083
  152SAPE  H11B16799   5.346   6.162   6.231 -1.1603 -0.8317  0.7205
  152SAPE     P16800   5.064   6.346   6.292  0.1191 -0.1055  0.4784
  152SAPE   O1316801   5.096   6.489   6.316 -0.6123 -1.0052 -0.3102
  152SAPE   O1416802   4.945   6.319   6.203  0.1556 -0.6524 -0.0513
  152SAPE   O1216803   5.183   6.274   6.215 -0.1061 -0.0634  0.0832
  152SAPE   O1116804   5.065   6.246   6.411 -0.0269 -0.1930 -1.0514
  152SAPE    C116805   4.980   6.279   6.523  0.0258  0.1786 -0.2258
  152SAPE    HA16806   5.012   6.378   6.561 -1.4121  0.8576 -0.6991
  152SAPE    HB16807   4.875   6.298   6.494 -0.2817 -1.0415  0.0362
  152SAPE    C216808   4.982   6.176   6.643  0.0169 -0.0648 -1.2217
  152SAPE    HS16809   4.924   6.218   6.728  1.1782 -2.0325  0.6571
  152SAPE   O2116810   5.116   6.141   6.690  0.0528 -0.0942 -0.1336
  152SAPE   C2116811   5.176   6.238   6.758 -1.0936  0.0477  0.0151
  152SAPE   O2216812   5.125   6.338   6.794 -0.3232  0.1604  0.1637
  152SAPE   C2216813   5.323   6.179   6.795 -0.2187  0.6664 -0.3384
  152SAPE   H2R16814   5.304   6.089   6.857  0.2127  0.7061 -0.1470
  152SAPE   H2S16815   5.351   6.144   6.693 -0.1473 -0.7901  0.1641
  152SAPE    C316816   4.898   6.046   6.615  0.6767  0.6750 -0.0830
  152SAPE    HX16817   4.953   6.004   6.528 -2.0498 -1.6979 -0.8198
  152SAPE    HY16818   4.796   6.070   6.580  0.9395  0.2756 -1.1500
  152SAPE   O3116819   4.913   5.936   6.712  0.4294 -0.4560  0.9666
  152SAPE   C3116820   4.823   5.944   6.812  0.2285  0.8404  0.5251
  152SAPE   O3216821   4.752   6.040   6.839  0.2055 -0.5309  0.1065
  152SAPE   C3216822   4.860   5.833   6.908 -0.8617  0.0938  0.3613
  152SAPE   H2X16823   4.910   5.882   6.994  2.2614 -3.1140  0.5581
  152SAPE   H2Y16824   4.926   5.765   6.850  1.1600  2.3822 -0.2232
  152SAPE   C2316825   5.423   6.278   6.861 -0.2618  0.6141 -0.2169
  152SAPE   H3R16826   5.419   6.374   6.805  0.2743 -1.1884 -3.5675
  152SAPE   H3S16827   5.525   6.236   6.849 -0.2893 -0.2945  2.1805
  152SAPE   C2416828   5.414   6.307   7.014  0.6470 -0.0882 -0.0946
  152SAPE   H4R16829   5.310   6.342   7.026  1.0119  1.0462 -0.1409
  152SAPE   H4S16830   5.495   6.378   7.041  0.4588  0.7788 -1.6750
  152SAPE   C2516831   5.445   6.181   7.098  0.1234  0.0606 -0.6091
  152SAPE   H5R16832   5.487   6.097   7.041  2.5625  1.2666 -0.7134
  152SAPE   C2616833   5.428   6.171   7.231 -0.2628  0.0983 -0.1860
  152SAPE   H6R16834   5.462   6.081   7.285  2.8742  2.4741  2.1780
  152SAPE   C2716835   5.382   6.288   7.322  0.0543  0.0078  0.1218
  152SAPE   H7R16836   5.295   6.255   7.383  0.5090  1.0762  1.3937
  152SAPE   H7S16837   5.327   6.362   7.260 -0.5905  0.1758  0.8748
  152SAPE   C2816838   5.492   6.348   7.405 -0.0809 -0.2872  0.4202
  152SAPE   H8R16839   5.579   6.387   7.350  0.0275 -1.7970 -0.5207
  152SAPE   C2916840   5.495   6.359   7.535  0.4925  0.0126 -0.5336
  152SAPE   H9R16841   5.585   6.410   7.572  0.6592 -1.9935  2.0821
  152SAPE  C21016842   5.390   6.315   7.636  0.1690  0.5965 -0.1295
  152SAPE  H10R16843   5.287   6.295   7.599  0.3844 -0.1057 -0.3707
  152SAPE  H10S16844   5.379   6.404   7.701  1.2671 -0.4226  1.5308
  152SAPE  C21116845   5.433   6.190   7.704  0.6396 -0.6092  0.0546
  152SAPE  H11R16846   5.447   6.105   7.635  1.1198 -0.7264  0.2942
  152SAPE  C21216847   5.461   6.176   7.833  0.5532 -0.1665  0.0432
  152SAPE  H12R16848   5.490   6.073   7.857 -1.5092 -1.0048 -0.7931
  152SAPE  C21316849   5.449   6.277   7.942  0.5680  0.0659  0.4007
  152SAPE  H13R16850   5.391   6.233   8.026 -0.7349 -0.2734 -0.6582
  152SAPE  H13S16851   5.388   6.366   7.917 -0.5669 -0.7116  0.3212
  152SAPE  C21416852   5.582   6.328   7.997 -0.6497  0.3792 -0.7637
  152SAPE  H14R16853   5.670   6.298   7.939 -0.4092 -1.9562  0.6836
  152SAPE  C21516854   5.598   6.397   8.106  1.0757  0.6345  0.0813
  152SAPE  H15R16855   5.701   6.415   8.139  1.8277 -3.8716  0.8165
  152SAPE  C21616856   5.485   6.449   8.193  0.2058 -0.4738  0.5392
  152SAPE  H16R16857   5.393   6.457   8.132  1.3788  1.6999 -1.1070
  152SAPE  H16S16858   5.519   6.550   8.224  2.6824 -1.3691  1.0405
  152SAPE  C21716859   5.452   6.357   8.309 -0.9350  0.2263 -0.6228
  152SAPE  H17R16860   5.539   6.324   8.369 -0.3092  0.7837 -1.2045
  152SAPE  H17S16861   5.413   6.266   8.259  0.5330 -1.0638  0.4831
  152SAPE  C21816862   5.344   6.424   8.399 -0.1494 -0.2428 -0.3083
  152SAPE  H18R16863   5.271   6.482   8.338 -1.4323 -1.6399 -0.1620
  152SAPE  H18S16864   5.389   6.490   8.477  1.1098 -0.0358 -1.1783
  152SAPE  C21916865   5.270   6.327   8.490  0.1807  0.0584 -0.3485
  152SAPE  H19R16866   5.204   6.255   8.438 -0.6779  1.7631 -1.7447
  152SAPE  H19S16867   5.208   6.390   8.557  2.3505  0.1480  1.7072
  152SAPE  C22016868   5.360   6.257   8.589 -0.5862  1.0456 -0.0779
  152SAPE  H20R16869   5.304   6.214   8.675  2.0106 -1.1122  0.7130
  152SAPE  H20S16870   5.432   6.330   8.632 -0.9763  1.6617 -0.4645
  152SAPE  H20T16871   5.415   6.179   8.532 -1.3028  3.1460 -3.9174
  152SAPE   C3316872   4.733   5.763   6.953 -0.1565 -0.3548  0.5475
  152SAPE   H3X16873   4.681   5.720   6.865 -0.1942  1.6900 -0.5051
  152SAPE   H3Y16874   4.656   5.838   6.982 -2.2707 -2.3020  0.2103
  152SAPE   C3416875   4.753   5.661   7.063  0.5143 -0.6192 -0.1985
  152SAPE   H4X16876   4.842   5.597   7.049  1.8653  0.3349  3.0877
  152SAPE   H4Y16877   4.654   5.612   7.066 -0.5138  1.2693 -1.0272
  152SAPE   C3516878   4.781   5.732   7.197 -0.0779 -0.7393  0.9442
  152SAPE   H5X16879   4.701   5.802   7.229  0.9954 -0.2238  2.7032
  152SAPE   H5Y16880   4.879   5.786   7.196 -0.2207 -0.4755  1.0579
  152SAPE   C3616881   4.783   5.631   7.307  0.4905 -0.1475 -0.5643
  152SAPE   H6X16882   4.840   5.540   7.277 -0.6250 -0.3135 -2.3769
  152SAPE   H6Y16883   4.681   5.603   7.342  0.7391  0.2005  0.4570
  152SAPE   C3716884   4.843   5.687   7.428 -0.1168 -1.3165  0.3280
  152SAPE   H7X16885   4.803   5.789   7.441 -0.7812 -1.5574  0.2303
  152SAPE   H7Y16886   4.954   5.690   7.426 -0.0867 -0.3456  1.7516
  152SAPE   C3816887   4.797   5.606   7.549 -0.8241 -0.4620 -0.1439
  152SAPE   H8X16888   4.836   5.503   7.535 -1.3784 -0.5481 -1.1187
  152SAPE   H8Y16889   4.687   5.597   7.552 -0.9930  1.2822  0.5783
  152SAPE   C3916890   4.835   5.666   7.687 -0.5720 -0.4301  0.3730
  152SAPE   H9X16891   4.785   5.763   7.709 -0.0574 -0.3050  1.0103
  152SAPE   H9Y16892   4.945   5.670   7.699 -0.2858 -0.5101 -1.7826
  152SAPE  C31016893   4.775   5.580   7.804 -0.3602  0.0183  0.1434
  152SAPE  H10X16894   4.797   5.471   7.805 -0.2908  0.0254 -0.3366
  152SAPE  H10Y16895   4.665   5.591   7.793 -0.6360 -0.4001  2.0739
  152SAPE  C31116896   4.813   5.620   7.946  0.0328  0.1326 -0.3688
  152SAPE  H11X16897   4.787   5.726   7.966  1.7686  0.5134  0.0443
  152SAPE  H11Y16898   4.923   5.606   7.955 -0.1288 -0.9818  0.0120
  152SAPE  C31216899   4.753   5.536   8.059 -0.0039 -0.3762 -0.0367
  152SAPE  H12X16900   4.762   5.426   8.047 -1.2072 -0.7183  1.8398
  152SAPE  H12Y16901   4.645   5.561   8.055  0.0267 -0.3947 -1.5247
  152SAPE  C31316902   4.811   5.577   8.193 -0.6971  0.2030  0.3772
  152SAPE  H13X16903   4.811   5.687   8.202  1.3473  0.2301  0.4995
  152SAPE  H13Y16904   4.920   5.557   8.205 -0.2205 -0.5491 -3.7968
  152SAPE  C31416905   4.734   5.514   8.310 -0.1006  0.3741  0.1905
  152SAPE  H14X16906   4.759   5.406   8.305  0.4347  0.5287 -0.6882
  152SAPE  H14Y16907   4.629   5.517   8.275 -0.2813 -0.2507  0.6549
  152SAPE  C31516908   4.751   5.573   8.448 -0.0639 -0.5335 -0.4488
  152SAPE  H15X16909   4.851   5.620   8.461 -1.0856  1.5793  0.1151
  152SAPE  H15Y16910   4.742   5.486   8.518 -2.1424  1.5684  2.1266
  152SAPE  C31616911   4.645   5.672   8.491 -0.2073  0.2611  0.3317
  152SAPE  H16X16912   4.553   5.634   8.442 -0.1038  0.0964  0.2643
  152SAPE  H16Y16913   4.674   5.767   8.440  1.7273 -0.9076 -0.8733
  152SAPE  C31716914   4.623   5.682   8.643 -0.3564 -1.0035 -0.4432
  152SAPE  H17X16915   4.707   5.742   8.684 -0.8301 -2.1529  2.4819
  152SAPE  H17Y16916   4.625   5.583   8.694 -1.1429 -0.5981  0.4082
  152SAPE  C31816917   4.493   5.748   8.691 -0.7833  1.3254  0.0314
  152SAPE  H18X16918   4.487   5.849   8.645  2.3237  0.6829 -2.0441
  152SAPE  H18Y16919   4.476   5.744   8.801 -2.4104 -1.2542 -0.2445
  152SAPE  H18Z16920   4.421   5.685   8.635  0.4010 -0.5201  0.5171
  153SAPE     N16921   1.629   0.717   6.141 -0.5108  0.6059 -0.0649
  153SAPE   HN116922   1.582   0.660   6.068 -1.6098  4.0493 -2.2645
  153SAPE   HN216923   1.563   0.787   6.181 -0.8247  0.7921 -0.9040
  153SAPE   HN316924   1.706   0.765   6.090 -0.8803  2.0688  0.7019
  153SAPE   C1216925   1.689   0.636   6.253 -0.2054 -0.8092 -0.6727
  153SAPE  H12A16926   1.752   0.558   6.207 -0.0217 -1.1751  0.1827
  153SAPE  H12B16927   1.607   0.576   6.300  0.7109 -2.6628 -1.3526
  153SAPE   C1116928   1.761   0.731   6.351  0.8027 -0.2069 -0.1808
  153SAPE  H11A16929   1.682   0.775   6.416 -2.5447 -2.5938 -2.2661
  153SAPE  H11B16930   1.808   0.814   6.294 -0.1121 -0.7945 -1.8798
  153SAPE     P16931   1.999   0.625   6.393 -0.2596  0.0598 -0.2803
  153SAPE   O1316932   1.998   0.566   6.259 -0.7323  0.3073 -0.0537
  153SAPE   O1416933   2.096   0.735   6.417 -0.1889 -0.2802 -0.1980
  153SAPE   O1216934   1.853   0.670   6.431  0.2682 -0.3836  0.1741
  153SAPE   O1116935   2.038   0.510   6.495 -0.1527  0.5077 -0.0300
  153SAPE    C116936   1.963   0.386   6.488 -0.2210 -0.5124  0.6829
  153SAPE    HA16937   1.885   0.390   6.410  0.3877  2.1616  0.1132
  153SAPE    HB16938   2.042   0.309   6.472  0.3330 -0.1280  1.4708
  153SAPE    C216939   1.889   0.358   6.621  0.7315 -0.3834 -0.0731
  153SAPE    HS16940   1.828   0.273   6.583 -1.7779  1.0612  0.5258
  153SAPE   O2116941   1.809   0.472   6.658  0.7743  0.0522  0.0253
  153SAPE   C2116942   1.692   0.495   6.588  0.4684  0.1563 -0.7794
  153SAPE   O2216943   1.660   0.426   6.494 -0.4971  0.2439  0.5619
  153SAPE   C2216944   1.618   0.614   6.656 -0.4404 -0.0608  0.1024
  153SAPE   H2R16945   1.693   0.658   6.726  0.3414  3.5064 -2.6478
  153SAPE   H2S16946   1.590   0.693   6.583  0.3238  1.9047  1.7954
  153SAPE    C316947   1.977   0.318   6.737 -0.0519  0.3927 -0.3615
  153SAPE    HX16948   2.034   0.409   6.766 -1.0804  0.1729  2.6975
  153SAPE    HY16949   2.056   0.247   6.706  1.7952  3.0137 -2.0321
  153SAPE   O3116950   1.905   0.270   6.847  0.6543 -0.1702 -0.7121
  153SAPE   C3116951   1.982   0.237   6.954  0.1890  0.7810 -0.1457
  153SAPE   O3216952   2.101   0.242   6.947 -0.7525  0.5012 -0.0685
  153SAPE   C3216953   1.894   0.199   7.073 -0.1732  0.2717  0.1858
  153SAPE   H2X16954   1.799   0.155   7.038 -2.1148  2.0209  2.8985
  153SAPE   H2Y16955   1.883   0.287   7.140 -0.2770 -0.2297  0.8318
  153SAPE   C2316956   1.487   0.575   6.724 -0.7128 -0.3314 -0.5004
  153SAPE   H3R16957   1.426   0.514   6.654 -2.5113  2.8282 -1.9288
  153SAPE   H3S16958   1.415   0.655   6.751 -1.4851 -1.1724  0.0019
  153SAPE   C2416959   1.512   0.498   6.855 -0.2884 -0.3582 -0.7834
  153SAPE   H4R16960   1.562   0.400   6.839  1.5185  0.4082 -0.0230
  153SAPE   H4S16961   1.408   0.478   6.890  0.2948 -1.4555  0.3958
  153SAPE   C2516962   1.583   0.562   6.976 -0.0293  0.4408  0.0394
  153SAPE   H5R16963   1.692   0.567   6.967  0.0620 -0.2443  0.6975
  153SAPE   C2616964   1.526   0.621   7.084  0.3871  0.0663  0.4125
  153SAPE   H6R16965   1.576   0.669   7.169 -1.3150  2.9176 -0.0691
  153SAPE   C2716966   1.376   0.621   7.113  0.8975  0.9572  1.0128
  153SAPE   H7R16967   1.361   0.529   7.174 -1.1011 -1.2260 -2.4182
  153SAPE   H7S16968   1.314   0.604   7.022 -0.1705  0.8979  1.7393
  153SAPE   C2816969   1.314   0.740   7.179 -0.3144  0.8956 -0.2623
  153SAPE   H8R16970   1.250   0.801   7.113 -0.1956  2.7249  1.2213
  153SAPE   C2916971   1.318   0.764   7.315  0.2855  0.2011  0.0855
  153SAPE   H9R16972   1.256   0.842   7.363  0.7706  1.5903 -1.4378
  153SAPE  C21016973   1.385   0.676   7.416 -0.3842  0.0188 -0.5569
  153SAPE  H10R16974   1.451   0.601   7.366  2.3192  1.7815  0.1147
  153SAPE  H10S16975   1.307   0.626   7.476  0.5406 -0.1945  0.5142
  153SAPE  C21116976   1.474   0.752   7.512 -0.7249 -0.8590  0.5061
  153SAPE  H11R16977   1.569   0.792   7.474  0.4960 -3.1700  0.9152
  153SAPE  C21216978   1.457   0.756   7.644 -0.4278  0.2646 -0.1878
  153SAPE  H12R16979   1.531   0.828   7.684  1.9435 -0.5977 -2.7097
  153SAPE  C21316980   1.349   0.696   7.735  0.2044 -0.0804 -0.0663
  153SAPE  H13R16981   1.404   0.620   7.796 -0.5020 -1.6719 -1.3332
  153SAPE  H13S16982   1.273   0.634   7.683 -2.1872  2.8807 -0.3524
  153SAPE  C21416983   1.277   0.799   7.817  0.3091 -0.1662  0.4497
  153SAPE  H14R16984   1.193   0.852   7.770 -0.3349 -0.6347  1.0554
  153SAPE  C21516985   1.337   0.847   7.929 -0.1618  0.5249  0.1267
  153SAPE  H15R16986   1.291   0.922   7.995  1.8904  2.0550 -0.0822
  153SAPE  C21616987   1.469   0.800   7.991  0.2169  0.1133  1.4318
  153SAPE  H16R16988   1.545   0.881   7.994  1.5884 -0.9152 -1.3247
  153SAPE  H16S16989   1.512   0.718   7.929  0.2435  0.9961  0.2503
  153SAPE  C21716990   1.456   0.739   8.131  0.3175 -0.3842  0.4340
  153SAPE  H17R16991   1.375   0.663   8.129  1.1627 -1.3773  2.1635
  153SAPE  H17S16992   1.408   0.818   8.194 -2.4279 -1.5383 -0.0412
  153SAPE  C21816993   1.580   0.679   8.196  0.2369  0.4024 -0.3831
  153SAPE  H18R16994   1.661   0.755   8.194 -1.0469  1.8128 -2.1309
  153SAPE  H18S16995   1.604   0.590   8.135  0.0731  0.7055 -0.9032
  153SAPE  C21916996   1.577   0.631   8.344  0.4493  0.0351 -0.9541
  153SAPE  H19R16997   1.479   0.578   8.347  0.6048 -0.4912 -3.1046
  153SAPE  H19S16998   1.562   0.728   8.397 -0.9317 -0.0175 -1.2051
  153SAPE  C22016999   1.704   0.562   8.384 -0.8169  0.7184  0.4899
  153SAPE  H20R17000   1.725   0.567   8.493  1.1686  0.3492  0.1646
  153SAPE  H20S17001   1.788   0.623   8.345  1.3471 -1.9254  0.7699
  153SAPE  H20T17002   1.713   0.458   8.345 -3.3113 -0.1863  2.0491
  153SAPE   C3317003   1.956   0.090   7.167  0.4242 -0.1836 -0.1176
  153SAPE   H3X17004   2.052   0.121   7.211  0.7106 -1.6310  0.3464
  153SAPE   H3Y17005   1.973  -0.006   7.114  1.9346  0.3203 -0.5902
  153SAPE   C3417006   1.868   0.050   7.291  0.2071  0.5051 -1.0463
  153SAPE   H4X17007   1.780  -0.004   7.249 -0.7003  3.0398 -2.5877
  153SAPE   H4Y17008   1.839   0.142   7.346  2.6470 -0.0422  1.3943
  153SAPE   C3517009   1.934  -0.046   7.386 -0.4731  0.0036 -0.0981
  153SAPE   H5X17010   2.021  -0.005   7.441 -0.5109 -0.3733  0.2499
  153SAPE   H5Y17011   1.978  -0.121   7.317 -0.5819  0.2018 -0.3846
  153SAPE   C3617012   1.847  -0.132   7.478  0.0043 -1.1027  0.3383
  153SAPE   H6X17013   1.784  -0.206   7.423  0.8427 -3.0057  1.8395
  153SAPE   H6Y17014   1.776  -0.068   7.534  0.1990 -0.8582  0.3063
  153SAPE   C3717015   1.931  -0.219   7.576 -0.4847 -0.2752  0.4080
  153SAPE   H7X17016   1.966  -0.150   7.656  0.9477  0.4636 -0.7970
  153SAPE   H7Y17017   2.023  -0.257   7.525 -1.0856 -2.3148  0.7485
  153SAPE   C3817018   1.849  -0.328   7.651 -0.1492 -0.1693  0.1405
  153SAPE   H8X17019   1.916  -0.414   7.671  1.7159  1.1670 -0.1334
  153SAPE   H8Y17020   1.761  -0.367   7.595  1.4072 -0.5953 -2.1684
  153SAPE   C3917021   1.795  -0.281   7.789 -0.2561 -0.2699 -0.8600
  153SAPE   H9X17022   1.732  -0.367   7.819 -0.9045 -0.0521 -1.5564
  153SAPE   H9Y17023   1.729  -0.193   7.801  0.1843  0.1662 -1.5840
  153SAPE  C31017024   1.898  -0.281   7.907  0.2289  0.4921 -0.2630
  153SAPE  H10X17025   1.961  -0.189   7.914 -0.0622  0.7202 -0.5551
  153SAPE  H10Y17026   1.948  -0.380   7.909 -3.0460 -1.4065  4.7603
  153SAPE  C31117027   1.817  -0.290   8.038 -0.6050 -0.3376  0.2042
  153SAPE  H11X17028   1.727  -0.354   8.025 -0.8094 -0.1895  0.8177
  153SAPE  H11Y17029   1.779  -0.192   8.074 -0.0208  0.4009 -1.1448
  153SAPE  C31217030   1.894  -0.365   8.150 -0.8875  0.5669  0.0990
  153SAPE  H12X17031   1.971  -0.299   8.196 -0.8107 -0.9332  2.3142
  153SAPE  H12Y17032   1.949  -0.450   8.106 -2.3879 -0.0859 -0.6071
  153SAPE  C31317033   1.803  -0.399   8.270  0.7865 -0.1347 -0.2773
  153SAPE  H13X17034   1.848  -0.458   8.353 -0.7039 -0.0822  0.5928
  153SAPE  H13Y17035   1.725  -0.474   8.244  0.1781  1.1136 -2.2757
  153SAPE  C31417036   1.729  -0.282   8.340  0.2254  0.7156  0.6460
  153SAPE  H14X17037   1.652  -0.321   8.410 -2.8392 -0.3319 -2.9660
  153SAPE  H14Y17038   1.662  -0.239   8.262 -0.7436 -0.5061  0.7716
  153SAPE  C31517039   1.802  -0.161   8.394 -0.2327 -0.6448  0.2223
  153SAPE  H15X17040   1.723  -0.091   8.430 -2.7903 -3.2493 -0.0387
  153SAPE  H15Y17041   1.850  -0.114   8.305  0.8647 -0.3371  0.9531
  153SAPE  C31617042   1.918  -0.187   8.490 -0.2798  0.0287  0.0559
  153SAPE  H16X17043   1.974  -0.092   8.501  0.0729 -0.2347  0.5378
  153SAPE  H16Y17044   1.975  -0.263   8.432  1.5957  0.8325  0.7684
  153SAPE  C31717045   1.879  -0.251   8.624  0.1702  0.2109  0.6844
  153SAPE  H17X17046   1.798  -0.324   8.608 -1.0931  1.3755  1.5113
  153SAPE  H17Y17047   1.833  -0.173   8.689 -2.5309 -0.1330 -0.6899
  153SAPE  C31817048   2.003  -0.320   8.692 -0.3842  0.2086 -0.5615
  153SAPE  H18X17049   2.042  -0.401   8.627 -0.7675 -0.9375  0.5875
  153SAPE  H18Y17050   1.977  -0.369   8.789  0.8943 -0.9436 -0.7627
  153SAPE  H18Z17051   2.076  -0.238   8.709 -0.4472  0.7795 -2.8191
  154SAPE     N17052   6.144   5.871   5.745  0.4619  0.1462  0.4812
  154SAPE   HN117053   6.148   5.974   5.730  1.7000 -0.0998 -1.3309
  154SAPE   HN217054   6.225   5.850   5.806  0.0318  1.6915  1.6547
  154SAPE   HN317055   6.166   5.826   5.654 -0.0420 -1.2731  1.0364
  154SAPE   C1217056   6.005   5.820   5.789  0.3191  0.7152  0.1058
  154SAPE  H12A17057   6.028   5.753   5.875  1.6141 -0.2802 -0.9647
  154SAPE  H12B17058   5.959   5.757   5.710 -0.1070  0.7506  0.3208
  154SAPE   C1117059   5.899   5.931   5.822 -0.7979  0.2124  0.3904
  154SAPE  H11A17060   5.810   5.864   5.818  0.9121 -2.2360  0.9842
  154SAPE  H11B17061   5.888   6.013   5.748 -0.8677 -0.7990 -0.7456
  154SAPE     P17062   6.002   6.097   5.997 -0.1884 -0.1756 -0.0204
  154SAPE   O1317063   6.132   6.096   5.923  0.4746 -0.5897 -0.1591
  154SAPE   O1417064   5.918   6.218   5.986  0.5328  0.6356 -0.2825
  154SAPE   O1217065   5.913   5.970   5.962  0.2277 -0.3795 -0.0353
  154SAPE   O1117066   6.033   6.057   6.153 -0.4478 -0.3701  0.7025
  154SAPE    C117067   5.951   6.050   6.265 -0.2000  0.4136 -0.0924
  154SAPE    HA17068   5.847   6.086   6.253  0.5910  2.1687 -2.5412
  154SAPE    HB17069   5.948   5.945   6.301  0.5005 -0.3011 -1.9644
  154SAPE    C217070   6.008   6.134   6.379 -0.1390  0.3301  0.7459
  154SAPE    HS17071   5.983   6.239   6.351  1.0687  0.5204  0.3224
  154SAPE   O2117072   6.155   6.097   6.387 -0.6233  0.5805  0.3160
  154SAPE   C2117073   6.242   6.197   6.382 -0.2444  0.3262 -0.1819
  154SAPE   O2217074   6.216   6.318   6.388  0.6323 -0.2602 -0.1827
  154SAPE   C2217075   6.387   6.133   6.383  0.0980 -0.6591 -0.2554
  154SAPE   H2R17076   6.410   6.097   6.281  0.8095 -1.3409  0.1300
  154SAPE   H2S17077   6.457   6.219   6.391  0.0198 -0.3613 -2.2345
  154SAPE    C317078   5.928   6.108   6.509  0.0536 -0.5348  0.2547
  154SAPE    HX17079   5.963   6.007   6.539  2.5613 -0.3892 -1.7786
  154SAPE    HY17080   5.818   6.121   6.500  0.2825  0.4716 -1.7568
  154SAPE   O3117081   5.975   6.197   6.611  0.2868 -0.4076  0.0635
  154SAPE   C3117082   5.899   6.212   6.718 -0.0153 -0.3961 -1.2242
  154SAPE   O3217083   5.784   6.164   6.731 -0.6397 -0.3057  0.5571
  154SAPE   C3217084   5.972   6.286   6.835 -0.3239  0.8698  0.1874
  154SAPE   H2X17085   5.977   6.394   6.808 -0.3960  0.8673  0.1631
  154SAPE   H2Y17086   6.071   6.238   6.836 -0.7858 -0.1026  0.5366
  154SAPE   C2317087   6.407   6.032   6.498  0.1380 -0.1523  0.4318
  154SAPE   H3R17088   6.321   5.962   6.510 -0.8308  0.8735 -0.3290
  154SAPE   H3S17089   6.409   6.091   6.592 -1.0978  0.2859  0.2005
  154SAPE   C2417090   6.545   5.961   6.491  0.7205 -0.6940  0.3167
  154SAPE   H4R17091   6.531   5.908   6.394  0.7567 -0.9624  0.4590
  154SAPE   H4S17092   6.547   5.880   6.567 -0.3420 -0.5257  0.5455
  154SAPE   C2517093   6.668   6.059   6.498  0.5167 -0.4859  0.0748
  154SAPE   H5R17094   6.706   6.108   6.407 -0.8801  1.5397  0.5084
  154SAPE   C2617095   6.733   6.094   6.612  0.1948 -0.1829 -0.2811
  154SAPE   H6R17096   6.811   6.171   6.612  0.0835 -0.0649  0.7674
  154SAPE   C2717097   6.700   6.021   6.741 -0.0306  0.0469 -0.0312
  154SAPE   H7R17098   6.689   5.913   6.718 -1.4986  0.0462  0.5632
  154SAPE   H7S17099   6.600   6.049   6.780  0.5159  2.2718 -0.1308
  154SAPE   C2817100   6.811   6.045   6.843  0.4896  0.0272  0.1500
  154SAPE   H8R17101   6.904   6.096   6.813  0.0416  0.8511  0.1365
  154SAPE   C2917102   6.792   6.028   6.974 -0.1665  0.3155  0.8509
  154SAPE   H9R17103   6.874   6.065   7.037 -0.4219  0.5683  1.0344
  154SAPE  C21017104   6.664   5.973   7.033  0.0472  0.2681  0.4697
  154SAPE  H10R17105   6.584   6.035   6.987 -0.3312 -1.8200 -1.8815
  154SAPE  H10S17106   6.669   5.996   7.142 -2.5045 -0.0045  0.7041
  154SAPE  C21117107   6.637   5.825   7.006 -0.0463 -0.0705  0.1345
  154SAPE  H11R17108   6.620   5.802   6.900  0.8659 -0.8660  0.1442
  154SAPE  C21217109   6.594   5.737   7.103 -0.3383  0.6055  0.3381
  154SAPE  H12R17110   6.577   5.631   7.079  3.1503  0.1509 -0.7251
  154SAPE  C21317111   6.575   5.765   7.251  0.0492 -0.4266 -0.1744
  154SAPE  H13R17112   6.502   5.694   7.295 -2.2850  2.6786  1.3337
  154SAPE  H13S17113   6.522   5.862   7.257  1.5258  0.4234 -0.1989
  154SAPE  C21417114   6.710   5.773   7.318 -0.3557 -0.0767  0.1868
  154SAPE  H14R17115   6.794   5.779   7.248 -0.4894  0.1122  0.0402
  154SAPE  C21517116   6.732   5.785   7.453 -0.0666 -0.1948  0.3113
  154SAPE  H15R17117   6.836   5.792   7.488  0.0532  3.9356 -0.3524
  154SAPE  C21617118   6.628   5.775   7.566  0.1942  1.0211  0.8460
  154SAPE  H16R17119   6.647   5.679   7.619  1.6452  1.0056  0.3603
  154SAPE  H16S17120   6.521   5.776   7.538  0.1903  0.2367  0.8075
  154SAPE  C21717121   6.657   5.896   7.666 -0.2080 -0.5183  0.1269
  154SAPE  H17R17122   6.625   5.988   7.612  1.7049  0.4140  0.4928
  154SAPE  H17S17123   6.763   5.924   7.682 -0.3197 -0.6362  1.1454
  154SAPE  C21817124   6.592   5.885   7.804  0.1802 -0.0161 -0.3572
  154SAPE  H18R17125   6.642   5.965   7.863  2.0099 -0.3334 -1.3854
  154SAPE  H18S17126   6.617   5.788   7.853 -0.8910  1.2731  2.9612
  154SAPE  C21917127   6.441   5.904   7.804 -0.2465  0.0961 -0.5430
  154SAPE  H19R17128   6.403   5.812   7.755  1.7442 -1.5154  0.7950
  154SAPE  H19S17129   6.422   5.985   7.730  0.8471 -0.5208 -1.5368
  154SAPE  C22017130   6.373   5.925   7.940  0.2298  0.7694 -0.1226
  154SAPE  H20R17131   6.292   6.001   7.935 -1.5803 -1.1281 -1.9722
  154SAPE  H20S17132   6.440   5.942   8.026 -1.4518 -1.5764  1.7741
  154SAPE  H20T17133   6.317   5.832   7.963  0.9624  0.1995 -0.6083
  154SAPE   C3317134   5.906   6.273   6.971  0.8436  1.1221 -0.1605
  154SAPE   H3X17135   5.990   6.253   7.040 -0.3477 -3.8802  0.2458
  154SAPE   H3Y17136   5.840   6.184   6.981  3.6468 -1.4127 -2.5042
  154SAPE   C3417137   5.829   6.398   7.026  0.4201 -0.2137 -0.2906
  154SAPE   H4X17138   5.741   6.416   6.960  0.1551  0.7351  0.3066
  154SAPE   H4Y17139   5.900   6.483   7.014 -2.1571  2.0932 -0.2996
  154SAPE   C3517140   5.797   6.382   7.178  0.2988  0.4423  0.8286
  154SAPE   H5X17141   5.766   6.276   7.180 -1.9954  0.9754 -1.3537
  154SAPE   H5Y17142   5.705   6.441   7.198  0.1853  0.5232  0.0766
  154SAPE   C3617143   5.909   6.434   7.269  0.4033  0.0411 -0.2463
  154SAPE   H6X17144   5.946   6.537   7.254  2.1676 -0.4340  0.5814
  154SAPE   H6Y17145   5.996   6.366   7.261  0.3037  0.0636 -1.6901
  154SAPE   C3717146   5.874   6.430   7.419 -0.0296 -0.5850 -0.0891
  154SAPE   H7X17147   5.852   6.323   7.442  2.5017 -1.0901  0.2687
  154SAPE   H7Y17148   5.792   6.504   7.431 -1.0229 -1.7020  0.1789
  154SAPE   C3817149   5.995   6.472   7.509  0.2380  0.3318 -0.2146
  154SAPE   H8X17150   6.026   6.568   7.463  0.1304  0.2162 -0.5279
  154SAPE   H8Y17151   6.081   6.402   7.506  0.0184  0.1051 -2.4892
  154SAPE   C3917152   5.948   6.494   7.656 -0.4079 -0.1911  0.3359
  154SAPE   H9X17153   5.956   6.400   7.715  0.4938  1.8458  3.7260
  154SAPE   H9Y17154   5.844   6.531   7.667  0.1419  2.4563 -2.0925
  154SAPE  C31017155   6.027   6.602   7.730 -0.0708  1.1096 -0.0925
  154SAPE  H10X17156   6.021   6.705   7.687 -2.1127  1.7382  1.5316
  154SAPE  H10Y17157   6.133   6.567   7.734 -0.7227 -0.8353  1.6758
  154SAPE  C31117158   5.979   6.616   7.871  0.8627  0.7121 -0.0074
  154SAPE  H11X17159   5.975   6.516   7.921 -0.8749  0.7130 -0.0588
  154SAPE  H11Y17160   5.872   6.644   7.859  0.6935 -0.4465 -1.6184
  154SAPE  C31217161   6.046   6.728   7.946 -0.2689 -0.1310  0.4870
  154SAPE  H12X17162   6.073   6.816   7.883  1.1973  0.7154  2.2100
  154SAPE  H12Y17163   6.146   6.699   7.986 -0.4819 -0.9181  0.4575
  154SAPE  C31317164   5.971   6.785   8.064 -0.7530 -0.5136  0.5018
  154SAPE  H13X17165   5.870   6.787   8.017 -0.1953 -1.5545 -0.8130
  154SAPE  H13Y17166   6.009   6.887   8.084 -0.1072  0.1902 -3.5242
  154SAPE  C31417167   5.979   6.693   8.180 -0.4011  0.1976  0.2625
  154SAPE  H14X17168   5.955   6.592   8.140 -0.4421  0.1698  0.3557
  154SAPE  H14Y17169   5.904   6.724   8.257  1.9153  4.1503  1.1814
  154SAPE  C31517170   6.106   6.693   8.261 -0.7300 -0.4933  0.1034
  154SAPE  H15X17171   6.132   6.797   8.290  4.4478 -1.3993 -0.3100
  154SAPE  H15Y17172   6.187   6.662   8.191  0.0879  0.7838  0.4464
  154SAPE  C31617173   6.087   6.610   8.382 -0.0651 -0.0981 -0.8665
  154SAPE  H16X17174   5.993   6.642   8.431 -1.1697 -0.1209 -2.8601
  154SAPE  H16Y17175   6.169   6.635   8.454  0.2257 -1.9790 -0.4770
  154SAPE  C31717176   6.096   6.458   8.350 -0.1660 -1.1005 -0.3444
  154SAPE  H17X17177   6.200   6.439   8.316 -0.3779 -1.5108 -0.7646
  154SAPE  H17Y17178   6.031   6.428   8.265  0.5780 -1.2121 -0.8815
  154SAPE  C31817179   6.081   6.378   8.479  0.1809 -0.1777 -0.1048
  154SAPE  H18X17180   5.973   6.367   8.502  0.3756  0.0931  1.0175
  154SAPE  H18Y17181   6.132   6.430   8.563 -0.8658 -0.3950  0.6839
  154SAPE  H18Z17182   6.141   6.286   8.462  0.1603 -0.2474  0.1955
  155SAPE     N17183   0.325   5.966   6.284 -0.0333 -0.2623 -1.0618
  155SAPE   HN117184   0.402   6.026   6.250 -0.5169  2.0506  1.5609
  155SAPE   HN217185   0.362   5.876   6.321  1.1022  0.0861 -1.3229
  155SAPE   HN317186   0.269   5.940   6.200 -0.7661 -1.1204 -0.3405
  155SAPE   C1217187   0.244   6.028   6.390 -0.2497  0.4045 -0.2722
  155SAPE  H12A17188   0.190   5.947   6.442  1.0933 -0.3023  0.0599
  155SAPE  H12B17189   0.169   6.093   6.338 -2.8577 -1.3720  1.0571
  155SAPE   C1117190   0.328   6.130   6.474  0.1519  0.4596 -0.2614
  155SAPE  H11A17191   0.420   6.084   6.517 -0.3007  0.8697  1.1776
  155SAPE  H11B17192   0.271   6.157   6.565 -1.0683  0.6598 -1.0642
  155SAPE     P17193   0.494   6.271   6.322  0.0055  0.1336  0.0322
  155SAPE   O1317194   0.538   6.139   6.275  0.1232 -0.2651 -0.1518
  155SAPE   O1417195   0.480   6.374   6.217 -0.2849 -0.7523  0.3020
  155SAPE   O1217196   0.356   6.257   6.405  0.4549 -0.0949 -0.2183
  155SAPE   O1117197   0.602   6.317   6.426  0.2291  0.3404  0.0530
  155SAPE    C117198   0.562   6.414   6.519  0.3473 -0.2053 -0.1666
  155SAPE    HA17199   0.457   6.449   6.514  0.4791 -0.0220 -2.4608
  155SAPE    HB17200   0.568   6.369   6.621  3.4504 -0.1628 -0.2294
  155SAPE    C217201   0.652   6.540   6.484 -0.2286  0.3132  0.0617
  155SAPE    HS17202   0.650   6.537   6.373  2.1351 -1.4781 -0.0093
  155SAPE   O2117203   0.775   6.506   6.539  0.4899 -0.0145  0.0043
  155SAPE   C2117204   0.885   6.548   6.480  0.4318 -0.2166  0.0772
  155SAPE   O2217205   0.888   6.601   6.374  0.7820 -0.1759 -0.2818
  155SAPE   C2217206   1.004   6.494   6.563 -0.0901  0.5791  0.3033
  155SAPE   H2R17207   1.007   6.537   6.666  2.3081  0.2619  0.4314
  155SAPE   H2S17208   0.984   6.385   6.575 -0.7666  0.6313 -0.2757
  155SAPE    C317209   0.588   6.670   6.532 -0.4870 -0.1031  0.3353
  155SAPE    HX17210   0.488   6.686   6.486 -0.4965 -0.3629  0.2618
  155SAPE    HY17211   0.649   6.755   6.496 -1.6754  0.7136  0.1821
  155SAPE   O3117212   0.577   6.667   6.672  0.7851 -0.1006 -0.9347
  155SAPE   C3117213   0.681   6.706   6.746  0.1810  0.3960 -0.2138
  155SAPE   O3217214   0.785   6.750   6.701 -0.2749  0.3585  0.3480
  155SAPE   C3217215   0.663   6.656   6.894  0.2337  0.4866 -0.5351
  155SAPE   H2X17216   0.665   6.545   6.892 -0.2141  0.4792 -0.6663
  155SAPE   H2Y17217   0.561   6.679   6.931  0.1491 -0.3538 -0.2154
  155SAPE   C2317218   1.143   6.512   6.500  0.3995 -0.7438  0.3212
  155SAPE   H3R17219   1.163   6.613   6.457  0.2325 -0.7912  0.1307
  155SAPE   H3S17220   1.156   6.461   6.402 -0.5342 -1.9117  0.7835
  155SAPE   C2417221   1.258   6.486   6.589  0.1427  0.0560 -0.1470
  155SAPE   H4R17222   1.244   6.545   6.682  2.0968 -0.2347  0.3621
  155SAPE   H4S17223   1.348   6.529   6.541  1.0723 -0.8995  0.7065
  155SAPE   C2517224   1.266   6.341   6.635 -0.4354 -0.0829  0.5493
  155SAPE   H5R17225   1.285   6.267   6.556  1.7232  1.8854 -0.9556
  155SAPE   C2617226   1.246   6.288   6.754 -0.1796  0.3737 -0.3692
  155SAPE   H6R17227   1.243   6.180   6.770 -2.3750  0.6001  1.1419
  155SAPE   C2717228   1.209   6.365   6.881 -0.2427 -0.4922 -0.1683
  155SAPE   H7R17229   1.103   6.396   6.893 -0.0687  0.0096  0.0761
  155SAPE   H7S17230   1.272   6.456   6.882  0.8825 -1.1763 -2.6786
  155SAPE   C2817231   1.245   6.279   6.998 -0.5624 -0.3032  0.5233
  155SAPE   H8R17232   1.283   6.179   6.977 -0.6402 -0.1432 -0.4253
  155SAPE   C2917233   1.216   6.310   7.123 -0.0356  0.0289  0.4520
  155SAPE   H9R17234   1.247   6.235   7.198  0.8825 -0.4960 -0.4245
  155SAPE  C21017235   1.152   6.436   7.172 -0.8205  0.7595  0.2661
  155SAPE  H10R17236   1.112   6.412   7.273  0.5002  3.5675  1.5915
  155SAPE  H10S17237   1.063   6.458   7.109 -1.2897 -1.4165  0.0831
  155SAPE  C21117238   1.268   6.537   7.178  0.1263 -0.0091  0.4110
  155SAPE  H11R17239   1.280   6.570   7.074 -1.3869  0.0919  0.2524
  155SAPE  C21217240   1.345   6.575   7.290 -0.3421 -0.6694  0.9953
  155SAPE  H12R17241   1.416   6.655   7.269  1.2453 -2.0410  0.9052
  155SAPE  C21317242   1.322   6.530   7.431  0.0682  0.5970 -0.5214
  155SAPE  H13R17243   1.228   6.472   7.446  1.1675 -1.1217  0.0777
  155SAPE  H13S17244   1.290   6.622   7.484 -0.2800  1.9854 -2.9846
  155SAPE  C21417245   1.433   6.455   7.488  0.1071 -0.0531  0.5080
  155SAPE  H14R17246   1.517   6.432   7.420  0.6840 -1.9754  1.7557
  155SAPE  C21517247   1.446   6.419   7.611 -0.2689  0.1957 -0.2032
  155SAPE  H15R17248   1.524   6.346   7.638 -0.9314 -1.0620 -1.6195
  155SAPE  C21617249   1.356   6.450   7.731  0.5680 -0.1315  0.4513
  155SAPE  H16R17250   1.278   6.372   7.746 -1.4849  1.8631  0.5819
  155SAPE  H16S17251   1.301   6.543   7.708 -0.1424 -0.5976  0.2131
  155SAPE  C21717252   1.440   6.463   7.859  0.0844 -0.2793  0.1682
  155SAPE  H17R17253   1.527   6.530   7.845 -0.3455  0.4004  0.6640
  155SAPE  H17S17254   1.477   6.363   7.890  2.2997  0.4381  0.0010
  155SAPE  C21817255   1.347   6.495   7.980  0.7657  0.2668  0.1463
  155SAPE  H18R17256   1.410   6.484   8.070  0.8697 -3.2687 -0.2321
  155SAPE  H18S17257   1.262   6.423   7.989 -0.1070  1.2392 -0.0598
  155SAPE  C21917258   1.284   6.636   7.972 -0.3487 -0.1610 -0.1155
  155SAPE  H19R17259   1.201   6.631   7.898 -0.6523  0.4141  0.1730
  155SAPE  H19S17260   1.360   6.703   7.927  1.3507 -1.3764  0.8070
  155SAPE  C22017261   1.232   6.700   8.102  0.3532 -0.2152  0.3465
  155SAPE  H20R17262   1.194   6.800   8.070  0.7398 -0.4204 -0.8180
  155SAPE  H20S17263   1.311   6.705   8.180  0.4999  0.1806  0.1774
  155SAPE  H20T17264   1.143   6.656   8.150  0.8939 -1.2934  0.3861
  155SAPE   C3317265   0.773   6.692   6.990 -0.5757 -0.1190  0.6176
  155SAPE   H3X17266   0.790   6.802   6.985 -3.2778  0.3715  0.7725
  155SAPE   H3Y17267   0.871   6.643   6.970 -1.2161 -0.7068 -1.2778
  155SAPE   C3417268   0.727   6.655   7.134  1.3311  0.0149  0.1798
  155SAPE   H4X17269   0.720   6.544   7.140 -0.0448  0.0831  0.0317
  155SAPE   H4Y17270   0.618   6.672   7.147  1.3963  1.5563 -0.9965
  155SAPE   C3517271   0.820   6.710   7.234 -0.7284 -0.2532 -0.0759
  155SAPE   H5X17272   0.832   6.818   7.210  4.1788 -0.6997 -0.7715
  155SAPE   H5Y17273   0.925   6.682   7.210  0.6162  3.1386  1.1700
  155SAPE   C3617274   0.787   6.692   7.379 -0.2846  0.4353 -0.6838
  155SAPE   H6X17275   0.678   6.716   7.386 -0.3711 -0.0969 -0.1230
  155SAPE   H6Y17276   0.842   6.769   7.436 -1.1468  2.1744 -2.1210
  155SAPE   C3717277   0.813   6.548   7.440 -1.4628  0.0535 -0.0829
  155SAPE   H7X17278   0.923   6.541   7.427 -1.6679 -2.3698 -0.9022
  155SAPE   H7Y17279   0.771   6.470   7.372  1.1226 -0.4411 -1.2227
  155SAPE   C3817280   0.773   6.538   7.584 -0.0808  0.3439 -0.0628
  155SAPE   H8X17281   0.663   6.551   7.595 -0.3059 -0.6024 -1.0192
  155SAPE   H8Y17282   0.841   6.609   7.635  4.1602 -1.0211 -3.2005
  155SAPE   C3917283   0.810   6.404   7.646 -0.3082  0.9868  0.2577
  155SAPE   H9X17284   0.918   6.385   7.627 -0.5730  0.9633 -1.3151
  155SAPE   H9Y17285   0.746   6.321   7.609  1.8449 -1.8692  2.4155
  155SAPE  C31017286   0.792   6.401   7.806 -0.5489 -0.0408 -0.2788
  155SAPE  H10X17287   0.690   6.433   7.836  0.1917  1.0059  1.2830
  155SAPE  H10Y17288   0.864   6.470   7.856  2.1429 -1.3478 -2.1220
  155SAPE  C31117289   0.831   6.257   7.846 -0.7958 -0.1723 -1.1230
  155SAPE  H11X17290   0.940   6.239   7.845 -1.0529 -2.1148 -3.2437
  155SAPE  H11Y17291   0.784   6.179   7.782  0.5474 -2.3846  0.4498
  155SAPE  C31217292   0.791   6.230   7.996  0.4136 -0.6244  0.6850
  155SAPE  H12X17293   0.825   6.312   8.063  0.6420 -0.5641  0.4945
  155SAPE  H12Y17294   0.846   6.139   8.027 -0.3229 -1.4283 -0.3139
  155SAPE  C31317295   0.636   6.214   8.017  0.0236  0.4073  0.1417
  155SAPE  H13X17296   0.602   6.116   7.979 -1.2422  0.8267  0.1277
  155SAPE  H13Y17297   0.585   6.292   7.956 -0.7002 -0.5795 -0.5385
  155SAPE  C31417298   0.574   6.240   8.157  0.5670 -0.2672  0.1604
  155SAPE  H14X17299   0.467   6.216   8.140 -0.2196  2.4585  0.7167
  155SAPE  H14Y17300   0.600   6.347   8.175  1.6105 -0.2024 -1.5350
  155SAPE  C31517301   0.637   6.146   8.263  0.2703  0.2946  0.1609
  155SAPE  H15X17302   0.600   6.171   8.365  0.4069 -0.2602  0.3498
  155SAPE  H15Y17303   0.745   6.161   8.279  0.6136 -2.1695  0.6175
  155SAPE  C31617304   0.631   5.996   8.233 -0.1553 -0.3909  0.5901
  155SAPE  H16X17305   0.662   5.946   8.327  0.2541 -1.2025  0.0344
  155SAPE  H16Y17306   0.699   5.965   8.151  1.7397  1.1914  1.4708
  155SAPE  C31717307   0.487   5.953   8.208  0.0399 -0.4137 -0.5528
  155SAPE  H17X17308   0.450   6.005   8.118  1.7277 -0.8400 -1.5426
  155SAPE  H17Y17309   0.419   5.977   8.292 -0.3478 -2.4497 -0.2155
  155SAPE  C31817310   0.474   5.800   8.191  0.3636  0.2168  0.1360
  155SAPE  H18X17311   0.525   5.733   8.263  0.6495  0.2472 -0.0347
  155SAPE  H18Y17312   0.517   5.781   8.090 -0.8640  0.4829 -0.4489
  155SAPE  H18Z17313   0.368   5.771   8.183  0.5576 -0.0497 -2.0806
  156SAPE     N17314   4.782   0.980   6.141  0.0330  0.2276 -0.2444
  156SAPE   HN117315   4.744   1.026   6.056 -0.0575  0.6520  0.0233
  156SAPE   HN217316   4.706   0.962   6.211 -0.5717  0.6896 -0.7698
  156SAPE   HN317317   4.848   1.046   6.186  1.2155 -0.9507 -0.1957
  156SAPE   C1217318   4.860   0.856   6.109  0.4274  0.8854  0.2501
  156SAPE  H12A17319   4.931   0.894   6.032  0.2557  0.8764  0.0866
  156SAPE  H12B17320   4.793   0.780   6.064  2.0775 -0.3946 -0.1638
  156SAPE   C1117321   4.940   0.793   6.223  0.2487  0.1319  0.7080
  156SAPE  H11A17322   5.011   0.866   6.267 -1.1033  0.5852  2.2566
  156SAPE  H11B17323   4.998   0.707   6.183  0.6227  0.9019 -0.4674
  156SAPE     P17324   4.884   0.646   6.424  0.2278 -0.3117 -0.2234
  156SAPE   O1317325   4.766   0.560   6.448 -0.0905  0.2130  0.3405
  156SAPE   O1417326   5.017   0.586   6.392  0.0151 -0.4138  0.4870
  156SAPE   O1217327   4.847   0.755   6.322  0.1620  0.5522 -0.0459
  156SAPE   O1117328   4.895   0.726   6.556  0.0932 -0.2020 -0.2124
  156SAPE    C117329   4.974   0.846   6.562 -0.1835  0.2110 -0.4805
  156SAPE    HA17330   5.076   0.807   6.545 -0.7861 -1.9659  0.5830
  156SAPE    HB17331   4.945   0.929   6.494  0.1548  2.5918  2.0754
  156SAPE    C217332   4.962   0.915   6.703  0.7458  0.4370  0.0070
  156SAPE    HS17333   5.027   1.005   6.696 -0.0121  1.2294  2.2781
  156SAPE   O2117334   5.013   0.819   6.805  0.0636 -0.3316  0.2909
  156SAPE   C2117335   5.145   0.838   6.830  0.0495  0.0159 -0.0936
  156SAPE   O2217336   5.217   0.911   6.765 -0.2216  0.4295 -0.7233
  156SAPE   C2217337   5.170   0.770   6.967  0.1980  0.5585  0.1389
  156SAPE   H2R17338   5.171   0.661   6.946  1.1024  1.0798 -2.9961
  156SAPE   H2S17339   5.266   0.813   7.003  1.2172 -0.8536 -0.7860
  156SAPE    C317340   4.814   0.963   6.745 -0.1972  0.2873 -0.1725
  156SAPE    HX17341   4.769   0.881   6.804  1.0703  0.9013  1.7475
  156SAPE    HY17342   4.753   0.969   6.652 -2.6921  1.5134  1.3994
  156SAPE   O3117343   4.825   1.079   6.825  0.3385 -0.0676 -0.0759
  156SAPE   C3117344   4.710   1.141   6.835 -0.6133  0.0450 -0.4351
  156SAPE   O3217345   4.606   1.108   6.777  0.5781 -0.3372 -0.3129
  156SAPE   C3217346   4.724   1.255   6.934 -0.1479  0.0849  1.0705
  156SAPE   H2X17347   4.643   1.325   6.905  1.4949  1.0596 -1.5050
  156SAPE   H2Y17348   4.819   1.305   6.905 -0.7323 -0.6710 -2.6158
  156SAPE   C2317349   5.044   0.799   7.061  0.2981 -0.2895  0.0506
  156SAPE   H3R17350   4.950   0.761   7.015  1.1287  0.4869 -2.4524
  156SAPE   H3S17351   5.032   0.909   7.074  0.6707 -0.5323  3.1757
  156SAPE   C2417352   5.063   0.731   7.195  0.1096  0.7249  0.5287
  156SAPE   H4R17353   5.093   0.626   7.176 -0.1371  1.3354 -4.2959
  156SAPE   H4S17354   4.966   0.721   7.248  0.4142 -0.6297  0.8571
  156SAPE   C2517355   5.158   0.793   7.294 -0.0106  0.4935  0.1472
  156SAPE   H5R17356   5.252   0.820   7.243  0.8824  0.6664  1.8153
  156SAPE   C2617357   5.136   0.821   7.425  0.1731 -0.7813  0.1905
  156SAPE   H6R17358   5.212   0.873   7.485  2.2687 -1.7940 -1.4609
  156SAPE   C2717359   5.006   0.793   7.499  0.5897 -0.5541 -0.6581
  156SAPE   H7R17360   4.947   0.707   7.461  1.0024 -0.6481 -1.0991
  156SAPE   H7S17361   4.942   0.881   7.476 -0.7663 -1.2457  0.3370
  156SAPE   C2817362   5.033   0.794   7.651 -0.9359  0.1401 -0.2215
  156SAPE   H8R17363   5.136   0.770   7.680 -0.1826  2.3605 -0.8781
  156SAPE   C2917364   4.949   0.809   7.751 -0.0598  0.3546  0.7132
  156SAPE   H9R17365   4.986   0.793   7.853  0.3631  0.7145  0.6223
  156SAPE  C21017366   4.800   0.838   7.736 -0.0499  0.4183  0.3594
  156SAPE  H10R17367   4.750   0.739   7.728  2.0500 -0.6365 -0.6689
  156SAPE  H10S17368   4.774   0.882   7.637 -0.1893 -0.1386  0.1403
  156SAPE  C21117369   4.746   0.924   7.852  0.1462 -0.4668 -0.5733
  156SAPE  H11R17370   4.723   1.030   7.838  1.8147 -0.1584 -1.2440
  156SAPE  C21217371   4.719   0.874   7.974  0.3879 -0.3064  0.5678
  156SAPE  H12R17372   4.701   0.948   8.052  0.7024  1.2587 -0.7881
  156SAPE  C21317373   4.738   0.729   8.029 -0.3658  0.4102  0.2383
  156SAPE  H13R17374   4.791   0.745   8.126 -0.3896 -0.7613  0.4507
  156SAPE  H13S17375   4.813   0.683   7.962 -0.4446  1.2198 -0.4216
  156SAPE  C21417376   4.615   0.641   8.039 -0.4319 -0.4130  0.6569
  156SAPE  H14R17377   4.557   0.629   7.946 -0.4839 -2.8564  0.9550
  156SAPE  C21517378   4.572   0.577   8.149 -0.0672  0.2614 -0.0080
  156SAPE  H15R17379   4.468   0.540   8.156 -0.5614  1.3850 -0.9677
  156SAPE  C21617380   4.645   0.589   8.283 -0.4648 -0.0548 -0.2725
  156SAPE  H16R17381   4.755   0.597   8.267 -1.0149  2.4472 -4.3988
  156SAPE  H16S17382   4.622   0.497   8.341 -2.7753  0.9157  0.4741
  156SAPE  C21717383   4.597   0.711   8.362 -0.3470  0.7815 -0.1788
  156SAPE  H17R17384   4.489   0.722   8.339 -0.7210 -0.6441  0.7373
  156SAPE  H17S17385   4.643   0.804   8.324  2.5144 -0.5259 -0.1706
  156SAPE  C21817386   4.611   0.690   8.509  0.3327 -0.0993 -0.7616
  156SAPE  H18R17387   4.714   0.665   8.542  0.2988  0.5191 -0.1688
  156SAPE  H18S17388   4.553   0.606   8.553 -1.5921  1.1495 -0.7929
  156SAPE  C21917389   4.567   0.818   8.581 -0.3160  0.2199  0.6375
  156SAPE  H19R17390   4.536   0.801   8.686 -1.1852 -0.0487  0.3450
  156SAPE  H19S17391   4.474   0.852   8.530  0.7209 -0.0654 -1.5640
  156SAPE  C22017392   4.673   0.933   8.586  0.1358 -0.6765  0.0607
  156SAPE  H20R17393   4.759   0.897   8.646 -0.0778  1.4280  1.7150
  156SAPE  H20S17394   4.626   1.026   8.624 -1.2349 -0.7632 -1.3420
  156SAPE  H20T17395   4.715   0.957   8.486  0.7596 -0.6270  0.3260
  156SAPE   C3317396   4.712   1.205   7.079 -0.3165  0.0827  0.4207
  156SAPE   H3X17397   4.611   1.159   7.091 -0.7579  0.5848 -1.1817
  156SAPE   H3Y17398   4.716   1.303   7.131  0.2145  0.9592 -1.2058
  156SAPE   C3417399   4.818   1.104   7.125  0.5232 -0.2379 -0.0533
  156SAPE   H4X17400   4.920   1.144   7.105  1.1092 -2.6538 -2.6091
  156SAPE   H4Y17401   4.812   1.009   7.067 -0.9213  1.0303 -2.1244
  156SAPE   C3517402   4.813   1.082   7.274  0.3564  0.1943  0.1725
  156SAPE   H5X17403   4.825   1.184   7.318  0.8801  0.9047 -1.5392
  156SAPE   H5Y17404   4.902   1.025   7.306 -0.9942 -0.8082  2.4169
  156SAPE   C3617405   4.701   0.997   7.332 -0.3854  0.7911  0.2737
  156SAPE   H6X17406   4.597   1.035   7.324 -0.3549  0.7937 -0.1364
  156SAPE   H6Y17407   4.733   0.998   7.438  0.4049  0.0352  0.0536
  156SAPE   C3717408   4.693   0.861   7.273 -0.0698  0.2056  0.3266
  156SAPE   H7X17409   4.776   0.796   7.308 -0.3929 -1.7154 -2.1878
  156SAPE   H7Y17410   4.695   0.860   7.162 -2.7913  2.2360  0.1449
  156SAPE   C3817411   4.572   0.778   7.308 -0.2440 -0.4233  0.0165
  156SAPE   H8X17412   4.597   0.683   7.256  2.6885  1.0113 -1.4289
  156SAPE   H8Y17413   4.476   0.810   7.262 -1.2393 -1.0463  1.5751
  156SAPE   C3917414   4.560   0.742   7.455 -0.0587  0.0236 -1.0476
  156SAPE   H9X17415   4.555   0.835   7.515  0.0427  0.1868 -1.2925
  156SAPE   H9Y17416   4.646   0.689   7.501  0.1008  0.8631 -0.3619
  156SAPE  C31017417   4.438   0.653   7.480 -0.4015 -0.0897 -0.0139
  156SAPE  H10X17418   4.436   0.559   7.421  2.0990 -1.0320  1.2269
  156SAPE  H10Y17419   4.348   0.707   7.444 -0.3033 -0.9853 -1.6818
  156SAPE  C31117420   4.409   0.637   7.630  0.1670 -0.0068  0.5715
  156SAPE  H11X17421   4.464   0.709   7.694  1.0173 -0.8908  0.8690
  156SAPE  H11Y17422   4.463   0.544   7.658  0.5697  0.1449  0.3037
  156SAPE  C31217423   4.257   0.651   7.659  0.0961 -0.1305 -0.8594
  156SAPE  H12X17424   4.201   0.559   7.631  0.0543 -0.2468 -0.4096
  156SAPE  H12Y17425   4.230   0.731   7.588  1.8973  0.0599 -1.3746
  156SAPE  C31317426   4.223   0.677   7.807  0.1926  0.3305 -0.5890
  156SAPE  H13X17427   4.118   0.712   7.818 -0.1975 -0.8278 -0.4563
  156SAPE  H13Y17428   4.293   0.748   7.855 -1.3559 -0.2173  2.8102
  156SAPE  C31417429   4.228   0.547   7.892  0.1679  0.4614  0.0339
  156SAPE  H14X17430   4.334   0.516   7.901  0.0161 -0.6528 -1.5681
  156SAPE  H14Y17431   4.176   0.463   7.841 -0.4995 -0.1750  1.7069
  156SAPE  C31517432   4.163   0.558   8.033 -0.4538  0.3291 -0.3793
  156SAPE  H15X17433   4.066   0.610   8.023 -1.1061 -0.6502  0.6180
  156SAPE  H15Y17434   4.238   0.616   8.092  2.5084 -2.0579 -1.4908
  156SAPE  C31617435   4.145   0.435   8.114 -0.0642 -0.2816 -0.0621
  156SAPE  H16X17436   4.238   0.373   8.111 -0.1827 -0.4406 -0.5448
  156SAPE  H16Y17437   4.060   0.366   8.093 -0.1218 -1.3784  3.1884
  156SAPE  C31717438   4.125   0.460   8.273 -0.2630  0.6616  0.3353
  156SAPE  H17X17439   4.042   0.528   8.300  0.2870  1.0672  1.0550
  156SAPE  H17Y17440   4.218   0.492   8.325  0.4963 -0.9888  0.0414
  156SAPE  C31817441   4.081   0.334   8.335  0.0130 -0.1270 -0.2658
  156SAPE  H18X17442   3.990   0.289   8.290  1.1752 -0.5448 -2.3412
  156SAPE  H18Y17443   4.055   0.344   8.443  3.8142 -2.1805  1.0208
  156SAPE  H18Z17444   4.153   0.250   8.342  1.4399  1.1192  0.5650
  157SAPE     N17445   0.989   3.304   5.951 -0.0590 -0.8177 -0.2486
  157SAPE   HN117446   0.947   3.337   6.040  1.7797  2.4061 -0.4116
  157SAPE   HN217447   1.082   3.259   5.965 -0.4566 -0.9050  2.7146
  157SAPE   HN317448   1.003   3.386   5.889  0.9624 -0.1734  0.7767
  157SAPE   C1217449   0.883   3.215   5.895 -0.0590  0.2256 -0.5485
  157SAPE  H12A17450   0.933   3.168   5.807  0.0895  0.8342 -0.7932
  157SAPE  H12B17451   0.799   3.274   5.853  0.1522 -0.2898 -1.7384
  157SAPE   C1117452   0.836   3.106   6.001 -0.2557 -0.3246  0.1096
  157SAPE  H11A17453   0.789   3.022   5.945 -0.6491  0.8630 -1.4029
  157SAPE  H11B17454   0.760   3.152   6.068  0.0609 -1.4073  1.2488
  157SAPE     P17455   0.991   3.092   6.217 -0.2653 -0.4339 -0.5509
  157SAPE   O1317456   1.101   3.010   6.268 -0.4383 -0.0367 -0.0568
  157SAPE   O1417457   1.009   3.242   6.224 -0.1509  0.3796  0.4783
  157SAPE   O1217458   0.951   3.050   6.071  0.5336 -0.6962  0.3378
  157SAPE   O1117459   0.860   3.053   6.298  0.1867 -0.0238 -0.3042
  157SAPE    C117460   0.784   2.934   6.302  0.0807  0.5243  0.6743
  157SAPE    HA17461   0.677   2.959   6.289  0.1785 -0.2507 -2.4218
  157SAPE    HB17462   0.809   2.864   6.219 -2.3299  2.2846 -1.6817
  157SAPE    C217463   0.777   2.861   6.440  1.4584  0.0458 -0.0769
  157SAPE    HS17464   0.698   2.785   6.424 -1.2441  2.6659  0.0119
  157SAPE   O2117465   0.750   2.950   6.553  0.1615  0.1882 -0.0732
  157SAPE   C2117466   0.621   2.973   6.564  0.0377 -0.4003 -0.6873
  157SAPE   O2217467   0.533   2.946   6.482 -0.3036  0.0351 -0.6398
  157SAPE   C2217468   0.603   3.062   6.689  0.3865  0.4992 -0.1201
  157SAPE   H2R17469   0.675   3.147   6.689  1.1469 -0.1159 -1.0697
  157SAPE   H2S17470   0.502   3.104   6.669  0.7844  0.9196 -1.3422
  157SAPE    C317471   0.918   2.799   6.465  0.3156 -0.0793 -0.5688
  157SAPE    HX17472   0.991   2.880   6.487  0.2701 -0.6731  2.0331
  157SAPE    HY17473   0.955   2.761   6.367 -0.8476  0.5254 -1.2682
  157SAPE   O3117474   0.914   2.690   6.562 -0.3867 -0.3084  0.5842
  157SAPE   C3117475   0.936   2.717   6.694 -0.5470 -0.4835  0.2315
  157SAPE   O3217476   0.994   2.817   6.730  0.1751 -0.1808 -0.0227
  157SAPE   C3217477   0.894   2.597   6.779 -0.0923 -1.1285 -0.5271
  157SAPE   H2X17478   0.956   2.510   6.749  0.9852 -1.1362  1.4717
  157SAPE   H2Y17479   0.789   2.565   6.764  0.2110 -1.7702 -1.2995
  157SAPE   C2317480   0.600   2.991   6.829  0.2499  0.4948  0.0707
  157SAPE   H3R17481   0.699   2.942   6.842  0.3543  0.5516 -0.4708
  157SAPE   H3S17482   0.527   2.909   6.846  0.2655  0.1288 -1.4737
  157SAPE   C2417483   0.573   3.091   6.946 -0.0724  0.1894 -0.3345
  157SAPE   H4R17484   0.644   3.175   6.954  0.7437 -0.5715  0.7775
  157SAPE   H4S17485   0.587   3.026   7.035  1.3541  0.3388 -0.4213
  157SAPE   C2517486   0.440   3.166   6.944  0.0860 -0.5460  0.1672
  157SAPE   H5R17487   0.386   3.155   6.849 -0.1578 -1.0389  0.3566
  157SAPE   C2617488   0.380   3.231   7.044 -0.2519  0.7681 -0.8343
  157SAPE   H6R17489   0.284   3.282   7.023 -2.0517 -1.0873  2.1476
  157SAPE   C2717490   0.430   3.232   7.189 -0.1385 -0.3163  0.5625
  157SAPE   H7R17491   0.378   3.316   7.240  0.4854  0.5963 -0.2476
  157SAPE   H7S17492   0.539   3.258   7.186 -0.3662  0.6464 -0.7168
  157SAPE   C2817493   0.398   3.104   7.264  0.3929  0.1347  0.2734
  157SAPE   H8R17494   0.329   3.033   7.216  0.3896  0.5275 -0.3163
  157SAPE   C2917495   0.454   3.071   7.382 -0.0748  0.0040 -0.2202
  157SAPE   H9R17496   0.440   2.970   7.424  1.8673 -0.0128  0.4635
  157SAPE  C21017497   0.545   3.152   7.465  0.6562  0.5771 -0.7566
  157SAPE  H10R17498   0.522   3.260   7.452  0.6491  0.4767 -1.6367
  157SAPE  H10S17499   0.647   3.152   7.420  1.1980 -2.9964  0.1594
  157SAPE  C21117500   0.555   3.101   7.607  0.0804 -0.5260  0.0512
  157SAPE  H11R17501   0.608   3.005   7.612  0.8757 -0.1934 -1.4645
  157SAPE  C21217502   0.499   3.155   7.714  0.3659 -1.0334 -0.1113
  157SAPE  H12R17503   0.524   3.102   7.807  3.2694  0.2121 -0.0915
  157SAPE  C21317504   0.408   3.279   7.732  0.1700  0.2580  0.4138
  157SAPE  H13R17505   0.333   3.246   7.807 -0.7855  1.2002 -0.0935
  157SAPE  H13S17506   0.344   3.284   7.641 -3.2035 -2.2062  2.3974
  157SAPE  C21417507   0.489   3.405   7.763 -0.9929 -0.0828  0.7357
  157SAPE  H14R17508   0.594   3.398   7.732 -0.7844 -2.3578  1.7236
  157SAPE  C21517509   0.446   3.507   7.833 -0.4057 -0.1307 -1.3291
  157SAPE  H15R17510   0.525   3.583   7.844  0.2589 -0.9908  0.2544
  157SAPE  C21617511   0.313   3.525   7.907  0.1585 -0.5032 -0.2536
  157SAPE  H16R17512   0.322   3.570   8.008 -3.0850 -2.0260  0.8440
  157SAPE  H16S17513   0.269   3.424   7.920  1.5579 -1.4295 -2.1691
  157SAPE  C21717514   0.209   3.598   7.828  0.1416 -0.0845  0.4226
  157SAPE  H17R17515   0.119   3.620   7.889 -1.9111 -0.6411 -2.2234
  157SAPE  H17S17516   0.173   3.536   7.744 -1.8054 -0.8493  1.7463
  157SAPE  C21817517   0.257   3.735   7.785 -0.1287  0.2546 -0.7318
  157SAPE  H18R17518   0.344   3.719   7.718 -0.4692 -0.6693 -0.9732
  157SAPE  H18S17519   0.283   3.794   7.875 -1.0314  1.5163 -1.2723
  157SAPE  C21917520   0.146   3.810   7.713  0.1335 -0.0971  0.3117
  157SAPE  H19R17521   0.065   3.838   7.784 -1.1968 -1.0887 -0.7495
  157SAPE  H19S17522   0.095   3.747   7.637  1.1495  1.4188 -1.7385
  157SAPE  C22017523   0.186   3.947   7.648 -0.2038 -0.0047 -0.5300
  157SAPE  H20R17524   0.262   3.921   7.570 -0.6358 -0.0072 -0.9536
  157SAPE  H20S17525   0.211   4.027   7.721 -0.3608  0.0756 -0.5644
  157SAPE  H20T17526   0.099   3.985   7.591 -0.7607 -1.6748 -0.8631
  157SAPE   C3317527   0.908   2.631   6.931 -0.4321  0.1779  0.4078
  157SAPE   H3X17528   0.816   2.674   6.975 -0.2741  1.4515 -0.4616
  157SAPE   H3Y17529   0.992   2.700   6.955  0.6129 -0.7981 -0.3163
  157SAPE   C3417530   0.937   2.505   7.019 -0.6382  0.1036  0.4516
  157SAPE   H4X17531   1.028   2.456   6.978 -0.7830  0.9063 -0.8907
  157SAPE   H4Y17532   0.852   2.436   7.034  0.9502 -1.9009  0.6751
  157SAPE   C3517533   0.970   2.548   7.167  0.2601  0.0197  0.2110
  157SAPE   H5X17534   0.877   2.601   7.197 -0.6109 -2.4857  2.2261
  157SAPE   H5Y17535   1.061   2.613   7.166  1.8724 -2.0225  2.3831
  157SAPE   C3617536   1.011   2.436   7.261  0.0471 -0.0933  0.9499
  157SAPE   H6X17537   1.108   2.386   7.239  0.0739 -0.2598  1.4335
  157SAPE   H6Y17538   0.931   2.362   7.241  1.2418 -1.3488  0.6429
  157SAPE   C3717539   1.002   2.474   7.406  0.4772 -0.2259 -0.0252
  157SAPE   H7X17540   0.928   2.557   7.414 -0.0763 -0.8577  1.7636
  157SAPE   H7Y17541   1.098   2.526   7.429  0.2859 -0.3739  1.1373
  157SAPE   C3817542   0.966   2.364   7.503  0.1543  0.2657  0.0380
  157SAPE   H8X17543   1.018   2.274   7.465 -2.5975  0.0633 -3.7891
  157SAPE   H8Y17544   0.857   2.343   7.508 -0.2316  2.3153  3.8728
  157SAPE   C3917545   1.019   2.393   7.645  0.4928  0.7346 -0.1299
  157SAPE   H9X17546   0.989   2.492   7.685  0.9716  0.5420  0.7096
  157SAPE   H9Y17547   1.129   2.398   7.634  0.6352  1.4433  1.4237
  157SAPE  C31017548   1.002   2.273   7.744 -0.1900 -1.0806  0.1663
  157SAPE  H10X17549   1.042   2.184   7.690  0.2007 -1.5897  1.2607
  157SAPE  H10Y17550   0.896   2.252   7.768 -1.3539  3.0746 -0.5884
  157SAPE  C31117551   1.074   2.291   7.876 -0.1164 -0.4434  0.4182
  157SAPE  H11X17552   1.030   2.377   7.931  0.6914  1.3398 -1.6080
  157SAPE  H11Y17553   1.180   2.321   7.865 -1.0738  2.2927 -3.0373
  157SAPE  C31217554   1.040   2.174   7.965 -0.6122  0.2194  0.0028
  157SAPE  H12X17555   1.086   2.080   7.927  0.8302 -0.0958  2.2843
  157SAPE  H12Y17556   0.930   2.163   7.960 -0.5124 -0.4880 -0.7875
  157SAPE  C31317557   1.088   2.202   8.109  0.1291 -1.2057 -0.1649
  157SAPE  H13X17558   1.029   2.139   8.179 -1.6487  1.1248  0.5942
  157SAPE  H13Y17559   1.058   2.301   8.149  2.4208 -0.4265 -0.2368
  157SAPE  C31417560   1.230   2.175   8.149 -0.0753 -0.0067  0.1040
  157SAPE  H14X17561   1.294   2.237   8.083 -2.7279  1.9801 -0.7711
  157SAPE  H14Y17562   1.253   2.070   8.119 -0.9907  0.4175 -2.2356
  157SAPE  C31517563   1.264   2.193   8.299 -0.1454  0.6812  0.4797
  157SAPE  H15X17564   1.359   2.142   8.325  0.3560  1.9470  1.2846
  157SAPE  H15Y17565   1.186   2.134   8.351  0.9690  0.4782  2.0245
  157SAPE  C31617566   1.265   2.331   8.365 -0.5760 -0.0186  0.1035
  157SAPE  H16X17567   1.161   2.370   8.355 -0.1386  0.7949 -1.9743
  157SAPE  H16Y17568   1.339   2.386   8.302  0.5492  2.5280  3.4067
  157SAPE  C31717569   1.314   2.318   8.506 -0.4070 -0.4585  0.3855
  157SAPE  H17X17570   1.419   2.283   8.510 -0.9406 -2.1550  0.4515
  157SAPE  H17Y17571   1.252   2.231   8.538 -0.6173 -1.3628 -2.2372
  157SAPE  C31817572   1.279   2.436   8.597 -0.2685 -0.6495 -0.9388
  157SAPE  H18X17573   1.348   2.518   8.569 -1.3123 -0.0840 -1.8950
  157SAPE  H18Y17574   1.305   2.417   8.703  0.9685  0.3072 -1.0466
  157SAPE  H18Z17575   1.179   2.484   8.590  1.0713  2.2971 -1.1975
  158SAPE     N17576   3.697   6.792   6.097 -0.0522 -0.1656 -0.8245
  158SAPE   HN117577   3.796   6.814   6.075  0.4018  0.3180  1.4118
  158SAPE   HN217578   3.647   6.725   6.035 -0.2172 -0.0042 -0.8690
  158SAPE   HN317579   3.646   6.883   6.092  3.6731  2.1447 -0.6480
  158SAPE   C1217580   3.681   6.743   6.247 -0.4843 -0.1522 -0.6038
  158SAPE  H12A17581   3.715   6.638   6.257  0.3869  0.1123 -0.7310
  158SAPE  H12B17582   3.576   6.763   6.279 -0.9148  2.7336 -3.2815
  158SAPE   C1117583   3.768   6.832   6.344 -0.6272  0.8077 -0.4627
  158SAPE  H11A17584   3.874   6.802   6.329 -1.1550 -1.1775 -0.4177
  158SAPE  H11B17585   3.751   6.807   6.451 -2.0388  0.4666 -0.7511
  158SAPE     P17586   3.851   7.072   6.370 -0.0217  0.1650  0.2918
  158SAPE   O1317587   3.971   7.059   6.280  0.0244 -0.2755  0.2936
  158SAPE   O1417588   3.794   7.210   6.369  0.3348  0.1937 -0.0174
  158SAPE   O1217589   3.749   6.968   6.317  0.0941  0.1919  0.0196
  158SAPE   O1117590   3.882   7.032   6.520 -0.4110 -0.2357  0.0361
  158SAPE    C117591   3.791   7.071   6.618 -0.1969 -0.4905 -0.3826
  158SAPE    HA17592   3.691   7.089   6.573  0.7787  0.0598 -2.4318
  158SAPE    HB17593   3.783   6.994   6.699  1.9156 -0.7469 -0.3609
  158SAPE    C217594   3.843   7.194   6.692 -0.3161 -0.2223 -0.0298
  158SAPE    HS17595   3.824   7.280   6.625 -0.5624 -0.4774 -0.2883
  158SAPE   O2117596   3.986   7.175   6.727 -0.5943 -0.5591 -0.3662
  158SAPE   C2117597   4.063   7.284   6.727  0.3517  0.2696 -0.8228
  158SAPE   O2217598   4.014   7.397   6.711 -0.5027 -0.3488  0.4753
  158SAPE   C2217599   4.207   7.258   6.750 -0.8802  0.6839  0.0322
  158SAPE   H2R17600   4.221   7.155   6.788 -0.8397 -0.6138 -3.2718
  158SAPE   H2S17601   4.256   7.244   6.651 -1.2572 -1.5368  0.1118
  158SAPE    C317602   3.769   7.231   6.827 -0.6363  0.1679  0.8420
  158SAPE    HX17603   3.804   7.333   6.851  2.1029  0.0804 -2.0815
  158SAPE    HY17604   3.795   7.158   6.906 -0.9015 -0.2567  0.5426
  158SAPE   O3117605   3.622   7.226   6.820 -0.1128  0.3072 -0.1534
  158SAPE   C3117606   3.570   7.330   6.748  0.1220 -0.7632  1.0477
  158SAPE   O3217607   3.637   7.416   6.701  0.2450 -0.7168 -0.3213
  158SAPE   C3217608   3.419   7.320   6.733 -0.0690 -0.4786 -0.0350
  158SAPE   H2X17609   3.400   7.263   6.639  0.1491 -0.4303 -0.1087
  158SAPE   H2Y17610   3.376   7.421   6.717 -1.6148 -1.0719  0.2374
  158SAPE   C2317611   4.288   7.366   6.830 -0.0435  0.5140 -0.5747
  158SAPE   H3R17612   4.288   7.467   6.784 -1.8270  0.3747 -0.9513
  158SAPE   H3S17613   4.394   7.336   6.832 -0.3417 -0.6209  1.4412
  158SAPE   C2417614   4.236   7.389   6.978  0.0017 -0.0727 -0.0339
  158SAPE   H4R17615   4.141   7.445   6.969 -0.3174 -0.8947 -2.4906
  158SAPE   H4S17616   4.303   7.464   7.025 -0.9953  1.6289 -1.2088
  158SAPE   C2517617   4.207   7.265   7.052 -0.3868  0.6188 -0.4622
  158SAPE   H5R17618   4.102   7.233   7.044  0.0852 -1.8300  1.7935
  158SAPE   C2617619   4.290   7.188   7.125  0.2002  0.6961 -0.5454
  158SAPE   H6R17620   4.254   7.091   7.163  0.4647  1.1612  0.9565
  158SAPE   C2717621   4.427   7.217   7.170 -0.1019  0.8174 -0.3346
  158SAPE   H7R17622   4.453   7.163   7.264  1.2680  2.0848  0.0605
  158SAPE   H7S17623   4.433   7.319   7.213 -0.3279 -0.0348  1.8504
  158SAPE   C2817624   4.533   7.190   7.069  0.7065  0.2065 -0.0566
  158SAPE   H8R17625   4.491   7.126   6.990  0.0355 -0.7050  0.9947
  158SAPE   C2917626   4.661   7.218   7.060 -0.1585 -0.7313  0.3582
  158SAPE   H9R17627   4.718   7.178   6.974 -2.8982  0.8864 -2.4125
  158SAPE  C21017628   4.753   7.292   7.165  0.0372 -0.1635 -0.0229
  158SAPE  H10R17629   4.692   7.315   7.255 -0.2510  1.9511 -0.6900
  158SAPE  H10S17630   4.784   7.389   7.120  0.8173  0.0714  0.9675
  158SAPE  C21117631   4.874   7.205   7.211  0.0224 -0.2010  0.2293
  158SAPE  H11R17632   4.952   7.203   7.134 -0.3343  1.7088 -0.2349
  158SAPE  C21217633   4.896   7.134   7.325  0.1304  0.6986 -0.5372
  158SAPE  H12R17634   4.992   7.083   7.338  1.2383  2.4315 -1.4097
  158SAPE  C21317635   4.816   7.128   7.449  0.1912  0.2046  0.5605
  158SAPE  H13R17636   4.827   7.025   7.489  0.3573 -0.1251 -0.3151
  158SAPE  H13S17637   4.708   7.147   7.431 -0.2828 -3.5845 -1.3796
  158SAPE  C21417638   4.869   7.225   7.550  0.6317  1.0359 -0.6101
  158SAPE  H14R17639   4.853   7.332   7.528 -0.8912  1.0589  0.3898
  158SAPE  C21517640   4.913   7.199   7.673  0.3441  0.1754 -0.8140
  158SAPE  H15R17641   4.948   7.285   7.732  1.6634  0.3187 -1.7622
  158SAPE  C21617642   4.926   7.069   7.742 -0.0240 -0.2620 -0.6846
  158SAPE  H16R17643   5.008   7.010   7.696 -0.4027 -0.0409 -1.6525
  158SAPE  H16S17644   4.837   7.009   7.714 -0.3104  0.1504 -0.6601
  158SAPE  C21717645   4.948   7.075   7.895 -0.8495 -0.0321  0.2475
  158SAPE  H17R17646   5.034   7.139   7.923  0.1551 -1.9786  1.9524
  158SAPE  H17S17647   4.976   6.974   7.932  1.6365  0.0333 -1.2379
  158SAPE  C21817648   4.828   7.118   7.975  0.3214  0.4616  0.3549
  158SAPE  H18R17649   4.747   7.042   7.959  0.2245  0.5084  0.6267
  158SAPE  H18S17650   4.794   7.212   7.927  1.6309 -0.9819 -3.8545
  158SAPE  C21917651   4.845   7.118   8.124  0.2056  0.2753 -0.0945
  158SAPE  H19R17652   4.874   7.019   8.164  1.3067 -1.1061 -3.9529
  158SAPE  H19S17653   4.739   7.134   8.154 -0.3514 -1.8824 -0.8004
  158SAPE  C22017654   4.947   7.220   8.180  0.1967 -0.3612 -0.5450
  158SAPE  H20R17655   4.932   7.316   8.126  1.4702  0.4948  0.5698
  158SAPE  H20S17656   5.051   7.192   8.152 -0.3853 -2.0932 -1.0964
  158SAPE  H20T17657   4.922   7.227   8.288  1.6583  0.5263 -0.2295
  158SAPE   C3317658   3.340   7.246   6.843 -0.3015 -0.2608 -0.4253
  158SAPE   H3X17659   3.380   7.143   6.857  0.7772  0.2768  0.6039
  158SAPE   H3Y17660   3.234   7.235   6.812 -0.8326  1.1521  0.7848
  158SAPE   C3417661   3.344   7.311   6.983 -0.4835 -0.7283 -0.1467
  158SAPE   H4X17662   3.293   7.409   6.974 -3.1533 -2.0980 -1.3159
  158SAPE   H4Y17663   3.452   7.324   7.004 -0.1493 -1.2304 -1.5105
  158SAPE   C3517664   3.288   7.237   7.106 -0.3580  0.1244 -0.0911
  158SAPE   H5X17665   3.316   7.129   7.104 -0.1221  0.1783  0.2126
  158SAPE   H5Y17666   3.177   7.239   7.102 -0.3480 -0.7793 -1.1474
  158SAPE   C3617667   3.315   7.295   7.247 -0.3873  0.4195  0.2495
  158SAPE   H6X17668   3.228   7.292   7.315  0.5247  0.3957  1.4529
  158SAPE   H6Y17669   3.338   7.403   7.233 -0.5478  0.1998 -2.2861
  158SAPE   C3717670   3.442   7.245   7.315  0.0783  0.0492 -0.8580
  158SAPE   H7X17671   3.441   7.134   7.327  1.1710 -0.0502 -1.5742
  158SAPE   H7Y17672   3.528   7.263   7.248  0.5893  1.7122  0.1884
  158SAPE   C3817673   3.468   7.326   7.451 -0.5685  0.0517  0.0921
  158SAPE   H8X17674   3.453   7.436   7.461 -0.7458 -0.0829  1.4432
  158SAPE   H8Y17675   3.575   7.303   7.474 -0.8682 -2.8649 -0.9910
  158SAPE   C3917676   3.380   7.281   7.567  0.6205  0.1988  0.1369
  158SAPE   H9X17677   3.397   7.171   7.572  0.6265  0.1549 -0.6138
  158SAPE   H9Y17678   3.277   7.309   7.536 -0.0899 -0.9368  1.3498
  158SAPE  C31017679   3.412   7.342   7.702 -0.0380  0.6779  0.3302
  158SAPE  H10X17680   3.380   7.448   7.694 -2.8372 -0.2089 -2.6730
  158SAPE  H10Y17681   3.520   7.335   7.726 -0.2844 -0.7141  1.1714
  158SAPE  C31117682   3.328   7.271   7.811  0.0901 -0.2836  0.1210
  158SAPE  H11X17683   3.366   7.168   7.828 -1.3602 -0.7366  0.7789
  158SAPE  H11Y17684   3.223   7.261   7.779  0.4185 -1.0517 -0.7593
  158SAPE  C31217685   3.357   7.340   7.946  0.3618  0.0827  0.0947
  158SAPE  H12X17686   3.314   7.443   7.948  1.0154  0.3602  2.0850
  158SAPE  H12Y17687   3.467   7.342   7.958  0.5835  0.5338 -1.6982
  158SAPE  C31317688   3.303   7.251   8.061 -0.2872 -0.3679  0.1015
  158SAPE  H13X17689   3.349   7.314   8.140  3.2140  0.6714 -2.5031
  158SAPE  H13Y17690   3.363   7.158   8.072  0.4040 -0.1383 -1.4084
  158SAPE  C31417691   3.156   7.231   8.064 -0.1889  0.8551 -0.2496
  158SAPE  H14X17692   3.126   7.166   7.979  2.2130 -1.2575  0.3957
  158SAPE  H14Y17693   3.101   7.326   8.044  0.4439  1.1733 -0.5028
  158SAPE  C31517694   3.096   7.171   8.190 -0.1167  0.9874 -0.0068
  158SAPE  H15X17695   2.985   7.167   8.188 -0.2423 -0.7422  3.1114
  158SAPE  H15Y17696   3.128   7.227   8.281  0.7791 -1.4244  1.2364
  158SAPE  C31617697   3.142   7.028   8.218 -0.8113  0.3311  0.0298
  158SAPE  H16X17698   3.253   7.033   8.210 -0.7391  0.3322  0.9150
  158SAPE  H16Y17699   3.114   6.953   8.142 -1.7777 -0.5002  1.1748
  158SAPE  C31717700   3.102   6.986   8.360  0.5259  0.6623 -0.0496
  158SAPE  H17X17701   2.992   6.973   8.371  0.7026 -1.6443 -0.5211
  158SAPE  H17Y17702   3.134   7.063   8.433 -1.4911  1.8527 -0.3291
  158SAPE  C31817703   3.165   6.852   8.406 -0.3743  0.0862  0.0113
  158SAPE  H18X17704   3.276   6.855   8.396 -0.2689 -2.1396 -0.1606
  158SAPE  H18Y17705   3.132   6.770   8.339 -0.3409 -1.0040  1.2765
  158SAPE  H18Z17706   3.131   6.814   8.505  0.4435 -3.4151 -0.8997
  159SAPE     N17707   3.453   3.230   6.242 -0.0362  0.0646  0.4363
  159SAPE   HN117708   3.473   3.251   6.342  0.7846 -0.5082  0.3994
  159SAPE   HN217709   3.545   3.218   6.196 -1.2906 -0.5260 -2.1082
  159SAPE   HN317710   3.410   3.306   6.184  1.8958 -0.4689 -1.8516
  159SAPE   C1217711   3.368   3.102   6.220 -0.0630  0.5041  0.8119
  159SAPE  H12A17712   3.336   3.097   6.114  0.7556 -0.0426  0.5834
  159SAPE  H12B17713   3.279   3.110   6.286 -0.5975 -0.9340  0.2991
  159SAPE   C1117714   3.452   2.979   6.260  0.0061  0.4624 -0.9688
  159SAPE  H11A17715   3.385   2.891   6.259  0.1401  0.2243  1.9154
  159SAPE  H11B17716   3.484   2.988   6.366 -0.7035 -1.6405 -0.5252
  159SAPE     P17717   3.709   3.008   6.201  0.0297 -0.4800 -0.0666
  159SAPE   O1317718   3.803   2.969   6.090 -0.0158  0.6633 -0.1297
  159SAPE   O1417719   3.707   3.154   6.235 -0.0295 -0.0176  0.0617
  159SAPE   O1217720   3.567   2.974   6.168  0.2646  0.1129  0.0058
  159SAPE   O1117721   3.745   2.930   6.329  0.5869 -0.5491  0.0240
  159SAPE    C117722   3.733   2.789   6.350  0.0148  0.2227  0.2606
  159SAPE    HA17723   3.711   2.767   6.456  1.8674  1.2391  0.8865
  159SAPE    HB17724   3.653   2.751   6.283  0.2975 -1.4118  0.7971
  159SAPE    C217725   3.867   2.705   6.310  0.3033 -0.0700  0.2409
  159SAPE    HS17726   3.888   2.733   6.204 -2.1643  0.6380 -0.1312
  159SAPE   O2117727   3.852   2.564   6.325 -0.7468  0.4489  0.3856
  159SAPE   C2117728   3.765   2.500   6.252 -0.2331 -0.2913  0.5084
  159SAPE   O2217729   3.705   2.542   6.156  0.2709 -0.6869 -0.1463
  159SAPE   C2217730   3.751   2.361   6.310 -1.0745  0.6218  0.6186
  159SAPE   H2R17731   3.789   2.290   6.233  1.4350  2.1404  0.3763
  159SAPE   H2S17732   3.830   2.348   6.387  0.7754 -0.0251 -1.2679
  159SAPE    C317733   3.980   2.750   6.411  0.6103  0.3491 -0.1230
  159SAPE    HX17734   3.989   2.861   6.407  0.5649  0.4194  1.1883
  159SAPE    HY17735   4.080   2.711   6.382  0.4572  0.0432 -0.2419
  159SAPE   O3117736   3.940   2.704   6.541 -0.3632  0.6331  0.5714
  159SAPE   C3117737   4.038   2.657   6.612  0.3665 -0.3121  0.3727
  159SAPE   O3217738   4.158   2.667   6.591 -0.3195  0.2757 -0.0758
  159SAPE   C3217739   3.974   2.585   6.738 -0.9092 -0.5707  0.7026
  159SAPE   H2X17740   3.866   2.566   6.717 -1.2032  0.4954  1.1657
  159SAPE   H2Y17741   3.994   2.656   6.821  1.3043 -1.0572  0.6403
  159SAPE   C2317742   3.610   2.332   6.368 -0.0677  0.2102  0.8592
  159SAPE   H3R17743   3.619   2.230   6.413 -1.0388  0.6688  2.1415
  159SAPE   H3S17744   3.526   2.324   6.294  0.7558 -2.1216  0.0611
  159SAPE   C2417745   3.580   2.424   6.485  0.4158  0.0972 -0.3216
  159SAPE   H4R17746   3.570   2.528   6.446  2.6164  0.0407 -1.2087
  159SAPE   H4S17747   3.671   2.422   6.549  1.7527  1.2623 -2.0678
  159SAPE   C2517748   3.444   2.401   6.557 -0.3840 -0.4580  0.2686
  159SAPE   H5R17749   3.351   2.385   6.500  0.1763  0.3256 -0.9011
  159SAPE   C2617750   3.430   2.397   6.689  0.2733 -0.5140  0.3375
  159SAPE   H6R17751   3.327   2.398   6.728  0.9774  1.2518  2.3689
  159SAPE   C2717752   3.526   2.423   6.801 -0.5343  0.1310 -0.4796
  159SAPE   H7R17753   3.624   2.413   6.749 -0.0570  1.9181  0.0292
  159SAPE   H7S17754   3.521   2.340   6.875 -0.1365  0.4250 -0.1209
  159SAPE   C2817755   3.538   2.561   6.855 -0.0801  0.3620 -0.8706
  159SAPE   H8R17756   3.597   2.631   6.795 -0.0821  1.9942  0.8960
  159SAPE   C2917757   3.456   2.605   6.964 -0.2226  0.6065  0.6179
  159SAPE   H9R17758   3.471   2.712   6.980  0.4550  0.8848 -1.5189
  159SAPE  C21017759   3.351   2.515   7.033  0.1581 -0.3563  0.1256
  159SAPE  H10R17760   3.414   2.448   7.094 -0.3277  0.1646  1.2201
  159SAPE  H10S17761   3.292   2.456   6.960 -0.2084  0.1188  0.0295
  159SAPE  C21117762   3.248   2.585   7.117  0.2070  0.0417  0.0868
  159SAPE  H11R17763   3.172   2.649   7.070 -0.7398 -0.5135  0.8376
  159SAPE  C21217764   3.229   2.557   7.250  0.1325 -0.3344  0.3779
  159SAPE  H12R17765   3.153   2.614   7.304  1.6636  1.6517  0.5614
  159SAPE  C21317766   3.302   2.458   7.338  0.0011 -0.2163  0.8189
  159SAPE  H13R17767   3.339   2.374   7.276 -0.2358 -0.5793  1.1688
  159SAPE  H13S17768   3.217   2.414   7.394 -1.0682 -1.0864 -1.3795
  159SAPE  C21417769   3.407   2.525   7.418 -0.0205 -0.9869 -0.0011
  159SAPE  H14R17770   3.485   2.579   7.362 -1.8073  0.7552 -0.9035
  159SAPE  C21517771   3.406   2.541   7.553  0.1919  0.6249 -0.1647
  159SAPE  H15R17772   3.499   2.574   7.600  0.2153 -0.6712  0.7671
  159SAPE  C21617773   3.305   2.491   7.657  0.6068  0.4944  0.1142
  159SAPE  H16R17774   3.201   2.487   7.620  0.0870  0.3184  1.5081
  159SAPE  H16S17775   3.290   2.553   7.748 -0.8535  0.3373 -0.0056
  159SAPE  C21717776   3.329   2.348   7.694 -0.2118  0.4634  0.0313
  159SAPE  H17R17777   3.357   2.285   7.606 -1.3212 -1.6924  1.1511
  159SAPE  H17S17778   3.238   2.294   7.728  0.7039 -2.2729 -1.4951
  159SAPE  C21817779   3.436   2.320   7.795  0.2830  0.6778 -0.2598
  159SAPE  H18R17780   3.421   2.372   7.892 -0.1353 -0.6831  0.4324
  159SAPE  H18S17781   3.542   2.336   7.768  0.1901 -0.9498 -1.7339
  159SAPE  C21917782   3.418   2.172   7.840  0.6516 -0.6698 -0.1942
  159SAPE  H19R17783   3.426   2.111   7.748  1.0653 -0.4181 -0.3313
  159SAPE  H19S17784   3.316   2.167   7.882  0.5955  1.7649  0.1099
  159SAPE  C22017785   3.524   2.130   7.945  0.5647 -0.7004  0.1676
  159SAPE  H20R17786   3.624   2.145   7.899 -0.1445 -0.4523 -1.3663
  159SAPE  H20S17787   3.515   2.020   7.954  1.6168 -0.6948  1.6769
  159SAPE  H20T17788   3.512   2.187   8.040  1.4577  0.6285 -0.4727
  159SAPE   C3317789   4.039   2.452   6.767  0.0775  0.2650 -0.4105
  159SAPE   H3X17790   4.146   2.474   6.785 -0.8743  3.2221  2.5662
  159SAPE   H3Y17791   4.022   2.385   6.679 -3.4396 -0.4392  0.6198
  159SAPE   C3417792   3.984   2.371   6.885 -0.1195  0.0127  0.1639
  159SAPE   H4X17793   4.028   2.269   6.887  1.2811  0.5660 -0.7657
  159SAPE   H4Y17794   3.874   2.367   6.875 -0.1178  1.8497 -0.8885
  159SAPE   C3517795   4.021   2.440   7.016  0.6099  0.1945 -0.0937
  159SAPE   H5X17796   3.956   2.386   7.088 -0.4898  2.7395  0.9522
  159SAPE   H5Y17797   3.995   2.548   7.015  4.0369  1.1387  0.7028
  159SAPE   C3617798   4.164   2.426   7.066 -0.2026  0.3400 -0.3714
  159SAPE   H6X17799   4.226   2.436   6.974  2.2776  2.3348  1.3777
  159SAPE   H6Y17800   4.182   2.327   7.112 -1.6662  0.4737  0.5696
  159SAPE   C3717801   4.192   2.530   7.177 -0.1738  0.0294  0.3884
  159SAPE   H7X17802   4.163   2.633   7.148 -1.7982  0.1851  2.3690
  159SAPE   H7Y17803   4.301   2.521   7.198  0.2400 -0.9392 -1.8664
  159SAPE   C3817804   4.118   2.498   7.301 -0.5198 -0.5074 -0.1171
  159SAPE   H8X17805   4.144   2.393   7.326  0.0531  0.2408  2.7212
  159SAPE   H8Y17806   4.009   2.514   7.286 -0.5904  1.0366  1.7200
  159SAPE   C3917807   4.153   2.593   7.417 -0.1044  0.0192 -0.4632
  159SAPE   H9X17808   4.083   2.569   7.499 -0.4057  1.3081 -0.3227
  159SAPE   H9Y17809   4.142   2.703   7.402  1.5827  0.7189  2.7047
  159SAPE  C31017810   4.296   2.579   7.477  0.3086  0.5827  0.0038
  159SAPE  H10X17811   4.327   2.671   7.529 -0.5977  0.4884  0.7184
  159SAPE  H10Y17812   4.372   2.560   7.397 -0.8218 -0.8603 -0.7916
  159SAPE  C31117813   4.291   2.459   7.581  0.0252  0.0597 -0.5233
  159SAPE  H11X17814   4.277   2.367   7.520 -0.7179 -0.4445  0.3827
  159SAPE  H11Y17815   4.203   2.472   7.647  0.6536 -3.1771  1.1632
  159SAPE  C31217816   4.420   2.450   7.664  0.7319  1.0106 -0.9143
  159SAPE  H12X17817   4.427   2.553   7.705  0.9895  1.1407 -1.2839
  159SAPE  H12Y17818   4.503   2.426   7.595  1.2437 -1.2685  0.4059
  159SAPE  C31317819   4.419   2.336   7.770  0.3482 -0.7259 -0.2525
  159SAPE  H13X17820   4.376   2.240   7.732  1.4493 -0.8319 -1.2942
  159SAPE  H13Y17821   4.351   2.373   7.850 -1.4245  0.3198 -2.1565
  159SAPE  C31417822   4.558   2.308   7.823 -0.4153 -0.0675 -0.4988
  159SAPE  H14X17823   4.615   2.403   7.828  1.1424 -0.9723 -0.5644
  159SAPE  H14Y17824   4.604   2.239   7.749 -1.1995 -4.0341  2.3628
  159SAPE  C31517825   4.555   2.249   7.970  0.0063 -0.0027  0.3963
  159SAPE  H15X17826   4.638   2.176   7.969 -2.0033 -2.5377 -2.4098
  159SAPE  H15Y17827   4.467   2.183   7.989 -0.6229  1.0549  1.2362
  159SAPE  C31617828   4.553   2.354   8.079  0.2292 -0.2697  0.0544
  159SAPE  H16X17829   4.476   2.433   8.067 -0.1483 -0.7164 -0.4468
  159SAPE  H16Y17830   4.655   2.394   8.099  0.1569  0.5564 -1.1290
  159SAPE  C31717831   4.514   2.292   8.215  0.1819 -0.6140  0.0205
  159SAPE  H17X17832   4.415   2.243   8.206  0.0520 -0.3966  0.2496
  159SAPE  H17Y17833   4.508   2.376   8.287  0.2920  0.8455 -1.6264
  159SAPE  C31817834   4.610   2.181   8.260 -0.8212  0.2117  0.3491
  159SAPE  H18X17835   4.607   2.085   8.205  0.0128 -0.4750  1.4597
  159SAPE  H18Y17836   4.599   2.148   8.366  2.7089 -1.8650  0.2177
  159SAPE  H18Z17837   4.712   2.222   8.245  0.1139 -2.6300 -2.0611
  160SAPE     N17838   4.503   1.290   6.423  0.6674 -0.2998  0.4722
  160SAPE   HN117839   4.450   1.317   6.338  4.8103 -0.5282 -2.4174
  160SAPE   HN217840   4.587   1.351   6.426  0.1642  0.4143  0.5411
  160SAPE   HN317841   4.537   1.192   6.421 -0.0773 -0.5515 -0.4568
  160SAPE   C1217842   4.447   1.347   6.544  0.5960 -0.2827  0.1304
  160SAPE  H12A17843   4.474   1.280   6.629  0.3462 -0.0052  0.4320
  160SAPE  H12B17844   4.338   1.339   6.530  0.5108  0.5188  0.2746
  160SAPE   C1117845   4.487   1.499   6.569  0.4470  0.2107  0.8290
  160SAPE  H11A17846   4.460   1.544   6.667 -0.9019 -0.1806  0.6439
  160SAPE  H11B17847   4.416   1.547   6.498  2.0361  1.4437  0.0026
  160SAPE     P17848   4.746   1.485   6.574  0.0797  0.1861 -0.5490
  160SAPE   O1317849   4.743   1.340   6.547 -0.2994  0.1547 -0.5054
  160SAPE   O1417850   4.860   1.550   6.507  0.7245  0.6763  0.1163
  160SAPE   O1217851   4.611   1.541   6.516 -0.2583  0.1349 -0.0527
  160SAPE   O1117852   4.753   1.517   6.728  0.4237  0.4746  0.1036
  160SAPE    C117853   4.724   1.645   6.786  0.2591 -0.1543 -1.0782
  160SAPE    HA17854   4.687   1.714   6.708 -2.7186 -1.0446 -0.6016
  160SAPE    HB17855   4.633   1.639   6.851  2.6442 -1.9297  2.4338
  160SAPE    C217856   4.845   1.700   6.870 -0.5151 -1.0469  0.5358
  160SAPE    HS17857   4.935   1.653   6.825  0.2706  1.1900 -0.3579
  160SAPE   O2117858   4.841   1.655   7.005 -0.1485  1.3227  0.1488
  160SAPE   C2117859   4.960   1.629   7.060  0.7642 -1.0595 -0.7622
  160SAPE   O2217860   5.066   1.625   7.005  0.1254 -0.4574  0.2429
  160SAPE   C2217861   4.934   1.603   7.204  0.3120  0.1189  0.5954
  160SAPE   H2R17862   4.831   1.634   7.234  0.5279 -0.2188  1.7264
  160SAPE   H2S17863   4.953   1.496   7.223 -3.1479 -0.5589  1.0316
  160SAPE    C317864   4.860   1.855   6.866 -0.5548 -0.4038  0.2373
  160SAPE    HX17865   4.766   1.892   6.912  0.4104  3.0393 -0.2879
  160SAPE    HY17866   4.852   1.892   6.762  0.5620 -1.1387 -0.1231
  160SAPE   O3117867   4.973   1.900   6.941 -0.3919  0.3566  0.2670
  160SAPE   C3117868   5.057   1.979   6.876 -0.2582 -0.7600  0.2230
  160SAPE   O3217869   5.050   2.005   6.757  0.9851  0.2270 -0.5280
  160SAPE   C3217870   5.160   2.031   6.969  0.4017 -0.0101 -0.4594
  160SAPE   H2X17871   5.260   1.994   6.940  1.4501  1.9704  0.4629
  160SAPE   H2Y17872   5.148   1.979   7.067 -0.1306  0.0993 -0.4632
  160SAPE   C2317873   5.029   1.675   7.304 -0.4668  0.1172 -0.3400
  160SAPE   H3R17874   5.057   1.771   7.257 -2.1957  1.0648  0.4675
  160SAPE   H3S17875   5.117   1.612   7.332 -1.2161  0.5285  3.5296
  160SAPE   C2417876   4.969   1.738   7.438 -1.0474  1.3696 -0.6101
  160SAPE   H4R17877   4.885   1.798   7.396 -0.1868  0.2568 -4.3200
  160SAPE   H4S17878   5.041   1.806   7.488 -0.1586  0.6770 -0.9084
  160SAPE   C2517879   4.902   1.649   7.538  0.0548  0.4934  0.0525
  160SAPE   H5R17880   4.839   1.574   7.487  0.3628 -0.0014  0.3886
  160SAPE   C2617881   4.913   1.643   7.668  0.1197 -0.5123 -0.1683
  160SAPE   H6R17882   4.849   1.572   7.722 -0.1997  0.2275  0.4368
  160SAPE   C2717883   5.009   1.722   7.750 -0.6041  0.0446  0.3746
  160SAPE   H7R17884   4.972   1.724   7.855  2.3448 -0.2268  1.5223
  160SAPE   H7S17885   5.025   1.827   7.718 -0.3410 -0.2093 -0.3352
  160SAPE   C2817886   5.140   1.658   7.747 -0.2338  0.5853 -0.3514
  160SAPE   H8R17887   5.165   1.614   7.649  0.6202  0.2231  0.0183
  160SAPE   C2917888   5.240   1.654   7.840  0.0455 -0.1049 -0.7636
  160SAPE   H9R17889   5.330   1.592   7.827 -0.6292 -1.1695 -0.5378
  160SAPE  C21017890   5.227   1.721   7.973  0.1248  0.1142  0.1680
  160SAPE  H10R17891   5.193   1.827   7.964 -0.8372 -0.3287 -1.8678
  160SAPE  H10S17892   5.333   1.730   8.007  0.4686 -3.8674  0.5979
  160SAPE  C21117893   5.149   1.667   8.094 -1.0825 -0.0454 -0.0033
  160SAPE  H11R17894   5.041   1.675   8.074 -0.9175  1.8236 -0.3010
  160SAPE  C21217895   5.205   1.627   8.215  0.5617  0.1879 -0.6309
  160SAPE  H12R17896   5.129   1.597   8.289  0.1744  0.0391 -1.0825
  160SAPE  C21317897   5.345   1.616   8.266  1.1151  0.2587  0.4251
  160SAPE  H13R17898   5.416   1.602   8.182 -0.1500  0.1075 -0.6477
  160SAPE  H13S17899   5.356   1.522   8.325 -0.0892  0.0852  0.4015
  160SAPE  C21417900   5.390   1.746   8.327  0.6404 -0.4989  0.0248
  160SAPE  H14R17901   5.388   1.838   8.267 -1.5594 -1.2233 -1.1161
  160SAPE  C21517902   5.421   1.756   8.455 -0.2095  0.3926  0.1836
  160SAPE  H15R17903   5.461   1.850   8.497 -1.5447  0.0497  2.4041
  160SAPE  C21617904   5.434   1.655   8.560  0.4593 -0.2624  0.4407
  160SAPE  H16R17905   5.423   1.549   8.527 -0.9203  0.0891 -0.3011
  160SAPE  H16S17906   5.346   1.681   8.623 -0.5163 -1.6980 -0.2666
  160SAPE  C21717907   5.563   1.681   8.637 -0.6387 -0.0832  0.4143
  160SAPE  H17R17908   5.597   1.785   8.653  1.4833 -0.6282 -0.3484
  160SAPE  H17S17909   5.641   1.618   8.590 -0.7295  0.3019 -0.2572
  160SAPE  C21817910   5.554   1.620   8.780  0.1707 -0.2877 -0.3870
  160SAPE  H18R17911   5.604   1.521   8.776 -0.3131 -0.5496 -0.0648
  160SAPE  H18S17912   5.450   1.607   8.818 -0.2365  1.6369 -0.7645
  160SAPE  C21917913   5.617   1.710   8.890  0.5441 -0.6961  0.1554
  160SAPE  H19R17914   5.548   1.797   8.893 -0.2911 -1.2919  4.5303
  160SAPE  H19S17915   5.717   1.752   8.866  0.7223 -1.7855 -1.1509
  160SAPE  C22017916   5.628   1.638   9.024 -0.2804 -0.4568  0.3855
  160SAPE  H20R17917   5.650   1.707   9.108  0.5537  0.4498 -0.5425
  160SAPE  H20S17918   5.718   1.574   9.010  1.0720  1.3517  0.3561
  160SAPE  H20T17919   5.534   1.580   9.034 -0.0174 -1.1912 -1.0591
  160SAPE   C3317920   5.155   2.185   6.985 -0.3571 -0.0164 -0.4856
  160SAPE   H3X17921   5.163   2.228   6.883  0.8624 -0.0555 -0.4255
  160SAPE   H3Y17922   5.242   2.214   7.049  0.9242 -0.9487 -1.7409
  160SAPE   C3417923   5.028   2.243   7.062  0.0653 -0.7577 -0.0602
  160SAPE   H4X17924   4.946   2.253   6.988 -0.6211 -0.2052  0.7636
  160SAPE   H4Y17925   5.050   2.347   7.093 -1.6308 -0.2891 -0.3430
  160SAPE   C3517926   4.983   2.172   7.187  0.3530 -0.2039  0.3190
  160SAPE   H5X17927   4.961   2.070   7.149 -0.6276  0.6859 -1.6291
  160SAPE   H5Y17928   4.887   2.222   7.210 -0.3078 -0.5228 -1.5533
  160SAPE   C3617929   5.082   2.174   7.311 -0.0254 -0.0709  0.0740
  160SAPE   H6X17930   5.112   2.281   7.320 -0.0570 -0.0752  0.2324
  160SAPE   H6Y17931   5.165   2.105   7.284  0.0244 -1.2240  2.8327
  160SAPE   C3717932   5.022   2.115   7.440  0.7521  0.2729  0.0245
  160SAPE   H7X17933   5.101   2.116   7.518  0.3260 -0.4782  0.4786
  160SAPE   H7Y17934   4.986   2.010   7.435 -0.4123  0.5662  1.5073
  160SAPE   C3817935   4.906   2.195   7.495  0.0365 -0.5429  0.0182
  160SAPE   H8X17936   4.820   2.184   7.425 -0.0697 -3.3878  0.4813
  160SAPE   H8Y17937   4.929   2.304   7.496 -1.1625 -0.2729 -0.6944
  160SAPE   C3917938   4.856   2.166   7.637  0.1237  0.2663 -0.0151
  160SAPE   H9X17939   4.780   2.086   7.624  0.7787 -0.5298  0.8708
  160SAPE   H9Y17940   4.802   2.254   7.678 -0.0981  0.0608  0.1357
  160SAPE  C31017941   4.958   2.122   7.734 -0.1130 -0.5462 -0.3758
  160SAPE  H10X17942   5.042   2.193   7.739  0.0528 -0.6523 -1.4027
  160SAPE  H10Y17943   5.000   2.022   7.707  1.8112  0.1422 -0.0656
  160SAPE  C31117944   4.885   2.113   7.870  0.3245 -0.2169 -0.5353
  160SAPE  H11X17945   4.806   2.038   7.848 -0.2430 -0.2905  1.5514
  160SAPE  H11Y17946   4.846   2.214   7.896  0.3149 -0.5061  0.6172
  160SAPE  C31217947   4.989   2.057   7.976 -0.1109  0.7629  0.3999
  160SAPE  H12X17948   5.073   2.130   7.980 -0.2150  0.9257 -0.3096
  160SAPE  H12Y17949   5.021   1.960   7.932 -3.1409  0.6256 -1.8335
  160SAPE  C31317950   4.929   2.048   8.116  0.1555  0.0749  0.9431
  160SAPE  H13X17951   4.844   1.977   8.112  1.2535 -1.3295  1.5527
  160SAPE  H13Y17952   4.890   2.147   8.149 -4.4913 -1.8051  1.8268
  160SAPE  C31417953   5.014   1.979   8.226 -0.0831 -0.3234  1.0561
  160SAPE  H14X17954   5.105   2.044   8.236  2.0654 -2.5389 -2.2448
  160SAPE  H14Y17955   5.050   1.881   8.188  1.2665  0.9492 -1.2252
  160SAPE  C31517956   4.941   1.962   8.358  0.1278 -0.3333 -0.9881
  160SAPE  H15X17957   4.856   1.895   8.335 -1.2785  1.3810 -0.9907
  160SAPE  H15Y17958   4.908   2.057   8.405 -2.4546 -1.6692  0.1002
  160SAPE  C31617959   5.032   1.884   8.460  0.4025 -0.7478 -0.3104
  160SAPE  H16X17960   5.120   1.940   8.497 -0.4107  0.3914 -0.0262
  160SAPE  H16Y17961   5.076   1.794   8.413 -0.2710 -0.4284 -1.6064
  160SAPE  C31717962   4.937   1.843   8.583  0.0743  0.1614  0.0794
  160SAPE  H17X17963   4.993   1.759   8.631  2.9983  2.4433  0.9346
  160SAPE  H17Y17964   4.843   1.801   8.541  1.1044 -1.7111 -0.4978
  160SAPE  C31817965   4.885   1.950   8.681 -0.1406  0.0936 -0.1793
  160SAPE  H18X17966   4.825   1.898   8.759  0.6651  0.7055  0.8820
  160SAPE  H18Y17967   4.824   2.031   8.634  0.6884  0.5918 -0.4079
  160SAPE  H18Z17968   4.966   1.999   8.739 -1.8583  3.6357 -0.4623
  161SOPE     N17969   2.866   3.022  10.684 -0.6397 -0.1772  0.2028
  161SOPE   HN117970   2.839   2.937  10.631  0.1063  0.9081 -2.0401
  161SOPE   HN217971   2.819   3.036  10.775  0.9562  1.1162  0.8672
  161SOPE   HN317972   2.826   3.099  10.626 -0.0293  0.0129  0.0225
  161SOPE   C1217973   3.014   3.029  10.692  0.0912  0.7185  0.4132
  161SOPE  H12A17974   3.051   2.936  10.739  0.7284 -0.2631 -1.8953
  161SOPE  H12B17975   3.030   3.116  10.759  0.2042  1.2605 -0.2982
  161SOPE   C1117976   3.082   3.069  10.560 -0.7478 -0.1431 -1.1520
  161SOPE  H11A17977   3.045   3.172  10.544  1.6467  0.8733 -0.6530
  161SOPE  H11B17978   3.051   3.012  10.470  2.9574  1.3643 -3.6332
  161SOPE     P17979   3.307   3.182  10.512  0.4821 -0.3253  0.0162
  161SOPE   O1317980   3.454   3.165  10.523 -0.4768  0.1615  1.3751
  161SOPE   O1417981   3.246   3.311  10.552  0.2425 -0.4237 -0.5095
  161SOPE   O1217982   3.227   3.062  10.585  0.1059 -0.1306  0.0487
  161SOPE   O1117983   3.254   3.153  10.368 -0.4859  0.3828 -0.0673
  161SOPE    C117984   3.301   3.035  10.294  0.1231 -0.2774 -1.1307
  161SOPE    HA17985   3.211   2.989  10.249 -2.8650  1.6592  2.3399
  161SOPE    HB17986   3.339   2.954  10.359 -1.9096 -0.6889 -0.3793
  161SOPE    C217987   3.417   3.071  10.195 -0.5668  0.3223 -0.0845
  161SOPE    HS17988   3.476   3.142  10.257 -2.4956  0.6910  1.4244
  161SOPE   O2117989   3.359   3.147  10.093  0.1309 -0.3009  0.2814
  161SOPE   C2117990   3.424   3.244  10.038  0.2437  0.5517  0.5372
  161SOPE   O2217991   3.542   3.269  10.064  0.4499  0.1431  0.2675
  161SOPE   C2217992   3.339   3.317   9.939 -0.5240  0.0213 -0.2653
  161SOPE   H2R17993   3.368   3.422   9.917 -0.7730  0.1331 -0.0630
  161SOPE   H2S17994   3.237   3.321   9.983  0.2345  0.5525  1.5669
  161SOPE    C317995   3.500   2.952  10.138  0.1073  0.2306 -0.9573
  161SOPE    HX17996   3.434   2.888  10.077 -1.0409  0.4232  0.0400
  161SOPE    HY17997   3.536   2.901  10.230  2.3158  0.2626 -1.7344
  161SOPE   O3117998   3.602   2.994  10.040 -0.2747  0.5435  0.4657
  161SOPE   C3117999   3.721   2.984  10.088 -0.6883 -0.3433  0.5352
  161SOPE   O3218000   3.754   2.958  10.206  0.3630  0.8250  0.2443
  161SOPE   C3218001   3.822   3.002   9.970 -0.2016 -0.0678  0.1878
  161SOPE   H2X18002   3.795   2.920   9.901 -0.5568 -0.9006  1.2842
  161SOPE   H2Y18003   3.923   2.986  10.015  1.3698  1.6332 -2.4524
  161SOPE   C2318004   3.328   3.236   9.809 -0.0265  0.3362  0.1391
  161SOPE   H3R18005   3.225   3.247   9.767 -0.2636 -1.3491  0.1943
  161SOPE   H3S18006   3.343   3.128   9.829 -0.6013 -0.2372 -2.1869
  161SOPE   C2418007   3.424   3.290   9.699  0.1157  0.1387  0.6115
  161SOPE   H4R18008   3.405   3.399   9.706  0.5017  0.1855  0.9599
  161SOPE   H4S18009   3.526   3.255   9.723 -0.1591 -1.3925 -0.2859
  161SOPE   C2518010   3.403   3.256   9.546  0.4780  0.0410  0.8131
  161SOPE   H5R18011   3.407   3.146   9.533  0.4624  0.0267  0.9318
  161SOPE   H5S18012   3.301   3.298   9.530  0.5921  1.9841  4.3241
  161SOPE   C2618013   3.506   3.326   9.453 -0.4299 -0.3162 -0.7069
  161SOPE   H6R18014   3.503   3.430   9.491  1.1776 -0.7715  0.8091
  161SOPE   H6S18015   3.608   3.289   9.477 -0.5391  0.3153  0.8391
  161SOPE   C2718016   3.473   3.315   9.306 -0.7981 -0.4486 -0.4918
  161SOPE   H7R18017   3.362   3.316   9.294 -1.1773  3.4802  1.7018
  161SOPE   H7S18018   3.494   3.416   9.265 -3.2773  0.8432  1.1664
  161SOPE   C2818019   3.552   3.204   9.242  0.0467 -0.2082  0.0547
  161SOPE   H8R18020   3.650   3.247   9.212  0.8774 -1.6859  0.5382
  161SOPE   H8S18021   3.581   3.120   9.309  0.4902  1.9039  2.6804
  161SOPE   C2918022   3.482   3.138   9.122 -0.4689 -1.0193  0.2917
  161SOPE   H9118023   3.403   3.074   9.164 -0.7967 -0.4428  0.5778
  161SOPE  C21018024   3.506   3.161   8.990 -0.1378 -1.0078 -0.4295
  161SOPE  H10118025   3.457   3.094   8.918 -0.2576  1.1204 -2.4316
  161SOPE  C21118026   3.617   3.240   8.926 -0.6263  0.2008 -0.0587
  161SOPE  H11R18027   3.705   3.175   8.909  0.2188  1.0448  0.9376
  161SOPE  H11S18028   3.645   3.323   8.994 -1.7277  1.2748 -0.8587
  161SOPE  C21218029   3.582   3.310   8.784 -0.2460  0.3359 -0.6683
  161SOPE  H12R18030   3.567   3.233   8.706  2.1380 -0.9265  0.0123
  161SOPE  H12S18031   3.666   3.374   8.749 -0.3693  1.0993  0.3895
  161SOPE  C21318032   3.463   3.408   8.798  0.5466  0.0970  0.9188
  161SOPE  H13R18033   3.483   3.485   8.875 -0.2525 -1.5704  2.9131
  161SOPE  H13S18034   3.366   3.360   8.822 -0.1095  0.8976 -0.0457
  161SOPE  C21418035   3.421   3.480   8.663 -0.0480  0.0532  0.1899
  161SOPE  H14R18036   3.382   3.402   8.594 -0.4818  1.3338 -1.0659
  161SOPE  H14S18037   3.510   3.517   8.608  0.2141 -3.3007 -1.9630
  161SOPE  C21518038   3.321   3.593   8.670  0.3610 -0.2612 -0.2854
  161SOPE  H15R18039   3.362   3.681   8.723 -0.8333 -0.1814  0.5352
  161SOPE  H15S18040   3.226   3.559   8.715 -0.1232  0.3962 -0.7900
  161SOPE  C21618041   3.280   3.616   8.525 -0.2101 -0.9912  0.5031
  161SOPE  H16R18042   3.228   3.523   8.496  0.0240 -1.3378  1.1600
  161SOPE  H16S18043   3.369   3.627   8.460 -0.0851 -0.3630  0.7664
  161SOPE  C21718044   3.193   3.737   8.493  0.2111 -0.1040  0.2443
  161SOPE  H17R18045   3.213   3.771   8.389  0.7989 -0.2301  0.3103
  161SOPE  H17S18046   3.213   3.825   8.557 -0.2506  3.5526 -4.1566
  161SOPE  C21818047   3.043   3.704   8.495  0.9233 -0.5780  0.0611
  161SOPE  H18R18048   3.007   3.699   8.601 -1.0367 -1.4814 -0.5925
  161SOPE  H18S18049   3.014   3.615   8.435  1.0804  0.2705 -1.2998
  161SOPE  H18T18050   3.001   3.799   8.456  2.9861  0.1871 -0.3970
  161SOPE   C3318051   3.813   3.139   9.913  0.0589 -0.6385  0.0084
  161SOPE   H3X18052   3.827   3.212   9.995  0.5501  1.2835 -1.6751
  161SOPE   H3Y18053   3.712   3.156   9.869  1.0731  0.5129 -2.0319
  161SOPE   C3418054   3.935   3.170   9.820  0.1279 -0.3527  0.6223
  161SOPE   H4X18055   4.034   3.155   9.869  1.2419 -2.4899 -2.0534
  161SOPE   H4Y18056   3.923   3.277   9.793 -0.8047 -0.6007  0.0197
  161SOPE   C3518057   3.934   3.074   9.697 -0.5834  0.4190  0.3445
  161SOPE   H5X18058   3.833   3.056   9.654 -0.0999 -0.3343 -0.5115
  161SOPE   H5Y18059   3.972   2.975   9.732  0.0640  1.1908  1.9211
  161SOPE   C3618060   4.026   3.132   9.580  0.4464  0.2059  0.3824
  161SOPE   H6X18061   4.060   3.046   9.519 -2.9051 -0.5735 -0.5799
  161SOPE   H6Y18062   4.117   3.187   9.611  1.6814 -1.2930 -0.4785
  161SOPE   C3718063   3.941   3.238   9.515  0.8772  0.0651 -0.1894
  161SOPE   H7X18064   3.951   3.330   9.576 -0.3428  0.5090 -0.6408
  161SOPE   H7Y18065   3.834   3.209   9.511  0.7862  0.5047 -2.4425
  161SOPE   C3818066   3.978   3.252   9.369  0.2511  0.0745 -0.3211
  161SOPE   H8X18067   4.081   3.286   9.347  0.6983  0.5270  2.1652
  161SOPE   H8Y18068   3.898   3.315   9.323 -0.1543 -0.3721 -0.2407
  161SOPE   C3918069   3.963   3.126   9.289  0.6477  0.6189  0.1285
  161SOPE   H9X18070   3.862   3.080   9.296  1.0796 -1.3454 -3.5375
  161SOPE   H9Y18071   4.033   3.045   9.320 -3.0890 -1.4544  4.2150
  161SOPE  C31018072   3.986   3.155   9.136 -0.0553  0.2966 -0.0593
  161SOPE  H10X18073   4.091   3.188   9.124 -0.0788 -0.0713 -1.4230
  161SOPE  H10Y18074   3.914   3.234   9.105 -0.7145 -0.6699 -1.0736
  161SOPE  C31118075   3.958   3.045   9.030 -0.2628  0.5181  0.5699
  161SOPE  H11X18076   3.849   3.047   9.014 -0.0335  2.3333 -1.1434
  161SOPE  H11Y18077   3.985   2.944   9.069 -2.1372  0.0906  0.8236
  161SOPE  C31218078   4.037   3.081   8.904 -0.6355  0.6552 -0.2110
  161SOPE  H12X18079   4.145   3.071   8.924 -1.1138 -1.3593  1.7473
  161SOPE  H12Y18080   4.022   3.190   8.888 -1.7512  0.2531 -2.3693
  161SOPE  C31318081   4.010   3.016   8.765 -0.3842 -0.6425  0.5451
  161SOPE  H13X18082   3.901   3.030   8.747  0.1099  0.7213 -1.9142
  161SOPE  H13Y18083   4.037   2.909   8.763 -0.1340 -0.6109  1.7934
  161SOPE  C31418084   4.076   3.088   8.644  0.0901  0.1690 -0.8477
  161SOPE  H14X18085   4.186   3.082   8.651  0.0088 -3.0849 -1.0276
  161SOPE  H14Y18086   4.034   3.192   8.640 -1.1184 -0.3191 -3.6253
  161SOPE  C31518087   4.026   3.048   8.504 -0.7093  0.2851  0.6020
  161SOPE  H15X18088   3.915   3.044   8.498 -0.6034 -1.8246 -2.8716
  161SOPE  H15Y18089   4.056   2.944   8.479  2.7448  1.4408 -0.6205
  161SOPE  C31618090   4.077   3.138   8.395 -0.1768  0.4971  0.2776
  161SOPE  H16X18091   4.184   3.117   8.373  0.7435  3.4081  1.5357
  161SOPE  H16Y18092   4.075   3.244   8.425  0.3042  1.1645 -1.8633
  161SOPE  C31718093   3.996   3.113   8.261  0.1526  0.0043 -0.1505
  161SOPE  H17X18094   4.036   3.185   8.187  0.1719  1.7483  1.4770
  161SOPE  H17Y18095   3.897   3.161   8.275 -0.7479 -1.9551  0.6844
  161SOPE  C31818096   4.000   2.973   8.200 -0.1182 -0.0462 -0.4412
  161SOPE  H18X18097   4.099   2.955   8.153 -0.1730 -1.0368 -0.1901
  161SOPE  H18Y18098   3.916   2.959   8.129  0.2680 -0.8918 -0.7402
  161SOPE  H18Z18099   3.972   2.892   8.271 -1.1329 -0.9989 -1.8807
  162SOPE     N18100   0.460   1.452  11.050  0.2483 -0.1673  0.3485
  162SOPE   HN118101   0.535   1.381  11.038  1.1795  0.6390  1.2477
  162SOPE   HN218102   0.498   1.540  11.010 -0.7861 -0.4711 -1.4178
  162SOPE   HN318103   0.445   1.463  11.153 -1.3503 -0.4118  0.1746
  162SOPE   C1218104   0.333   1.390  10.986  0.2307  1.2722  0.5305
  162SOPE  H12A18105   0.294   1.311  11.055 -1.2751 -0.4651 -2.1355
  162SOPE  H12B18106   0.372   1.347  10.891 -1.0060 -0.4234  0.7428
  162SOPE   C1118107   0.222   1.497  10.956 -0.6716 -0.3597  0.2581
  162SOPE  H11A18108   0.200   1.564  11.041 -0.2451  0.2573 -0.1122
  162SOPE  H11B18109   0.129   1.446  10.922  1.3850 -2.7891 -2.2823
  162SOPE     P18110   0.185   1.691  10.772  0.3718  0.2816 -0.1684
  162SOPE   O1318111   0.256   1.742  10.653 -0.9059 -0.4316  0.1396
  162SOPE   O1418112   0.149   1.794  10.870  0.2470 -0.2167  0.3975
  162SOPE   O1218113   0.272   1.581  10.849 -0.0064  0.2267  0.0348
  162SOPE   O1118114   0.052   1.621  10.719  0.1388 -0.0760 -0.0865
  162SOPE    C118115   0.050   1.546  10.595  0.2005  0.5207 -0.0039
  162SOPE    HA18116   0.019   1.442  10.621  3.6667 -0.3472  1.1787
  162SOPE    HB18117   0.146   1.546  10.540 -0.6134  1.0137 -1.4656
  162SOPE    C218118  -0.060   1.613  10.507  0.5957  0.2808 -0.5703
  162SOPE    HS18119  -0.086   1.536  10.431  1.7272 -0.2868 -0.4086
  162SOPE   O2118120  -0.000   1.737  10.453  0.0350  0.0309 -0.5647
  162SOPE   C2118121   0.088   1.724  10.357  0.0068  0.6258 -0.4785
  162SOPE   O2218122   0.121   1.619  10.304 -0.0444  0.0294  0.0412
  162SOPE   C2218123   0.151   1.855  10.331 -0.1716 -0.0203  0.7532
  162SOPE   H2R18124   0.233   1.868  10.404  0.4308  0.1262  0.0529
  162SOPE   H2S18125   0.072   1.933  10.344  1.0292  1.5548 -0.9301
  162SOPE    C318126  -0.197   1.648  10.579 -0.8149 -0.4426 -0.6431
  162SOPE    HX18127  -0.178   1.742  10.635 -1.7345  1.3854 -3.1877
  162SOPE    HY18128  -0.224   1.569  10.652 -1.3105  1.3817  1.2232
  162SOPE   O3118129  -0.297   1.662  10.472  0.0463  0.2169  0.5824
  162SOPE   C3118130  -0.346   1.552  10.427  0.2372 -0.6800 -0.0827
  162SOPE   O3218131  -0.326   1.439  10.458  0.6837  0.1851 -0.7740
  162SOPE   C3218132  -0.433   1.574  10.307 -0.1549 -0.1168  0.3000
  162SOPE   H2X18133  -0.482   1.674  10.299 -0.5588 -0.4614 -3.4148
  162SOPE   H2Y18134  -0.517   1.502  10.319 -0.1791 -0.2671 -0.6336
  162SOPE   C2318135   0.171   1.864  10.173 -0.6147  0.8133  0.3108
  162SOPE   H3R18136   0.251   1.801  10.131 -0.8920 -0.1280  1.1584
  162SOPE   H3S18137   0.189   1.971  10.150  2.5490 -0.0915 -1.9198
  162SOPE   C2418138   0.035   1.839  10.097 -0.0566 -0.2662 -0.7908
  162SOPE   H4R18139   0.010   1.731  10.097 -2.0756  0.0878  1.9631
  162SOPE   H4S18140  -0.051   1.879  10.156  0.4408 -2.5281  1.6583
  162SOPE   C2518141   0.046   1.886   9.957 -0.0322 -0.8638  1.2980
  162SOPE   H5R18142   0.081   1.991   9.954 -2.7756  0.1220 -1.3167
  162SOPE   H5S18143   0.120   1.822   9.904 -0.1855 -0.6157  0.7820
  162SOPE   C2618144  -0.087   1.887   9.884 -0.0056  0.4423  0.2119
  162SOPE   H6R18145  -0.147   1.799   9.916  1.4083 -1.0670 -1.1377
  162SOPE   H6S18146  -0.150   1.970   9.922  0.5909  0.3550  1.4422
  162SOPE   C2718147  -0.060   1.902   9.736 -0.1497 -0.5980 -0.2761
  162SOPE   H7R18148  -0.060   2.010   9.709  0.5873 -1.0590 -2.3011
  162SOPE   H7S18149   0.043   1.871   9.711 -0.3256 -0.4992 -1.1884
  162SOPE   C2818150  -0.175   1.843   9.647  0.3065  0.5164  0.4528
  162SOPE   H8R18151  -0.184   1.734   9.668  1.3442 -0.1980 -2.3127
  162SOPE   H8S18152  -0.276   1.882   9.673 -0.1210 -0.1934 -0.0892
  162SOPE   C2918153  -0.134   1.851   9.497  0.0103  0.5181  0.0951
  162SOPE   H9118154  -0.028   1.825   9.482  0.0337  1.1082 -0.8779
  162SOPE  C21018155  -0.206   1.876   9.390 -0.1603 -0.5954  0.0329
  162SOPE  H10118156  -0.156   1.879   9.293  0.4483  0.8429  0.3606
  162SOPE  C21118157  -0.355   1.907   9.374 -0.4370  0.3233  0.2249
  162SOPE  H11R18158  -0.411   1.879   9.466 -0.5115 -2.8615 -0.6723
  162SOPE  H11S18159  -0.386   1.835   9.295  1.9683 -1.0497  0.4337
  162SOPE  C21218160  -0.387   2.050   9.331  0.0850  0.3280  0.2966
  162SOPE  H12R18161  -0.371   2.120   9.416 -0.5252  1.1556 -0.2471
  162SOPE  H12S18162  -0.492   2.057   9.294  0.8360  3.8784 -1.7258
  162SOPE  C21318163  -0.307   2.097   9.210 -0.0019 -0.4764  0.7915
  162SOPE  H13R18164  -0.197   2.085   9.222  0.2964 -0.8013 -1.6231
  162SOPE  H13S18165  -0.329   2.203   9.184 -0.4721 -0.3704  1.5895
  162SOPE  C21418166  -0.354   2.023   9.085 -0.4191  0.3820  0.3063
  162SOPE  H14R18167  -0.461   1.995   9.081 -0.2845 -0.5519  2.1079
  162SOPE  H14S18168  -0.301   1.925   9.087 -1.3419 -0.1258  1.3016
  162SOPE  C21518169  -0.314   2.088   8.950  0.7508  0.4814 -0.5552
  162SOPE  H15R18170  -0.210   2.125   8.957  0.5738  0.8751  0.0913
  162SOPE  H15S18171  -0.383   2.172   8.926  0.0734 -0.0041 -0.3475
  162SOPE  C21618172  -0.319   1.980   8.831 -0.2354 -0.6163  0.0383
  162SOPE  H16R18173  -0.424   1.946   8.819 -0.6575  0.8220 -0.6029
  162SOPE  H16S18174  -0.269   1.886   8.860 -0.3143 -0.4467  0.7568
  162SOPE  C21718175  -0.277   2.042   8.691  0.2441  0.2757 -0.3423
  162SOPE  H17R18176  -0.166   2.040   8.678  0.3016  0.0735  0.1615
  162SOPE  H17S18177  -0.310   2.148   8.690 -1.2738 -0.1725 -0.9705
  162SOPE  C21818178  -0.340   1.980   8.571 -0.2086 -0.1561 -0.2678
  162SOPE  H18R18179  -0.285   1.888   8.543  0.0929  0.2548 -1.0646
  162SOPE  H18S18180  -0.349   2.059   8.493 -2.5049  0.6180  0.6842
  162SOPE  H18T18181  -0.446   1.958   8.594 -0.2593 -0.9840 -1.2065
  162SOPE   C3318182  -0.350   1.553  10.179  0.3911 -0.1723 -0.5553
  162SOPE   H3X18183  -0.311   1.449  10.178 -0.2652 -0.4586  1.1197
  162SOPE   H3Y18184  -0.276   1.635  10.166 -2.8555  2.6522 -2.8733
  162SOPE   C3418185  -0.444   1.568  10.061  0.2865  0.2523 -0.0711
  162SOPE   H4X18186  -0.471   1.675  10.050 -1.1768  0.0548  1.2920
  162SOPE   H4Y18187  -0.541   1.514  10.069  0.6184 -0.1103  2.4293
  162SOPE   C3518188  -0.384   1.525   9.922 -0.1748 -0.0929  0.2717
  162SOPE   H5X18189  -0.370   1.416   9.914 -0.3915  0.0075 -2.8522
  162SOPE   H5Y18190  -0.284   1.573   9.932  0.1105 -0.3036 -1.2865
  162SOPE   C3618191  -0.472   1.551   9.802  0.3005  0.6495  0.3054
  162SOPE   H6X18192  -0.500   1.659   9.796  1.2887  0.8709 -0.5693
  162SOPE   H6Y18193  -0.573   1.506   9.815  0.3017 -0.1783 -2.1188
  162SOPE   C3718194  -0.412   1.499   9.672  0.2734 -0.6025  0.3604
  162SOPE   H7X18195  -0.400   1.389   9.667 -0.4617 -0.6669 -0.1701
  162SOPE   H7Y18196  -0.311   1.544   9.659  0.7900 -1.6436  0.7216
  162SOPE   C3818197  -0.487   1.556   9.544 -0.9166  0.6949 -0.3924
  162SOPE   H8X18198  -0.501   1.666   9.552 -0.7991  0.7065 -0.3401
  162SOPE   H8Y18199  -0.590   1.514   9.551 -0.5918  0.0290  0.5015
  162SOPE   C3918200  -0.411   1.528   9.416  0.4848  0.0594  0.8140
  162SOPE   H9X18201  -0.380   1.422   9.403  2.6246  0.7875 -0.5637
  162SOPE   H9Y18202  -0.325   1.599   9.414  1.3301 -0.9644 -0.4790
  162SOPE  C31018203  -0.490   1.573   9.286 -0.0410  0.1357  0.3000
  162SOPE  H10X18204  -0.543   1.669   9.305 -1.6384 -0.4012 -1.1566
  162SOPE  H10Y18205  -0.568   1.499   9.258  0.6261 -0.8418  0.9593
  162SOPE  C31118206  -0.399   1.589   9.170 -0.2019 -0.3205  1.1453
  162SOPE  H11X18207  -0.374   1.484   9.144 -3.4309 -1.1951  1.0647
  162SOPE  H11Y18208  -0.308   1.638   9.210 -0.7750 -0.0648  2.1770
  162SOPE  C31218209  -0.466   1.654   9.055  0.1353  0.1730 -0.0000
  162SOPE  H12X18210  -0.469   1.764   9.066  1.3424  0.2631 -0.3551
  162SOPE  H12Y18211  -0.573   1.626   9.055 -0.0404  0.8328  0.1742
  162SOPE  C31318212  -0.408   1.597   8.921 -0.6150 -0.4510  0.3257
  162SOPE  H13X18213  -0.396   1.487   8.927  1.9943 -0.2397  0.1490
  162SOPE  H13Y18214  -0.309   1.646   8.906 -0.6922 -0.3921 -0.0165
  162SOPE  C31418215  -0.488   1.641   8.796 -0.0026  0.0686  0.7649
  162SOPE  H14X18216  -0.490   1.752   8.801  0.4333  0.0633  1.0785
  162SOPE  H14Y18217  -0.594   1.606   8.791  0.1915 -0.3673 -2.5171
  162SOPE  C31518218  -0.431   1.592   8.671  0.1652  0.4672  0.0955
  162SOPE  H15X18219  -0.429   1.482   8.676 -1.8842  0.4182  0.5624
  162SOPE  H15Y18220  -0.325   1.623   8.662  1.0172 -1.9811  1.0552
  162SOPE  C31618221  -0.515   1.636   8.549 -0.3747 -0.4440 -0.3048
  162SOPE  H16X18222  -0.561   1.736   8.563  1.6552  0.6297 -1.0597
  162SOPE  H16Y18223  -0.593   1.556   8.541 -1.2189  0.3272  0.0056
  162SOPE  C31718224  -0.437   1.622   8.410  0.2584  0.2809  0.1545
  162SOPE  H17X18225  -0.421   1.514   8.392 -3.6719 -0.4938  0.3020
  162SOPE  H17Y18226  -0.348   1.687   8.416  1.0937 -0.9587  2.1277
  162SOPE  C31818227  -0.528   1.674   8.298 -0.0994  0.0315  0.4036
  162SOPE  H18X18228  -0.477   1.692   8.201 -1.2215  1.5871  0.0680
  162SOPE  H18Y18229  -0.574   1.768   8.337 -2.1143 -1.2543  1.2845
  162SOPE  H18Z18230  -0.611   1.599   8.293 -0.6562  0.6609 -0.0524
  163SOPE     N18231   2.924   0.469  10.742 -0.3176 -0.4774  0.4203
  163SOPE   HN118232   2.931   0.567  10.709  2.8711 -0.4489  0.8026
  163SOPE   HN218233   2.833   0.449  10.788 -1.2169  1.0024 -0.6344
  163SOPE   HN318234   2.997   0.472  10.817 -3.0655 -0.3384  3.2932
  163SOPE   C1218235   2.967   0.377  10.631 -0.5879  0.3492 -0.5965
  163SOPE  H12A18236   3.057   0.327  10.671 -1.5486 -1.5610 -0.7245
  163SOPE  H12B18237   2.999   0.444  10.548 -0.3246  2.4301  1.1012
  163SOPE   C1118238   2.862   0.262  10.595 -0.1117 -0.6564 -0.2878
  163SOPE  H11A18239   2.915   0.213  10.511 -0.2901 -0.2164 -0.6622
  163SOPE  H11B18240   2.769   0.307  10.553  0.3716 -0.5700 -1.2853
  163SOPE     P18241   2.896   0.047  10.738 -0.5836 -0.1623  0.2496
  163SOPE   O1318242   2.829  -0.012  10.855  0.8406  0.0541  0.3849
  163SOPE   O1418243   3.044   0.058  10.730  0.1311  0.5376  0.1271
  163SOPE   O1218244   2.827   0.185  10.712 -0.2385 -0.5267  0.9006
  163SOPE   O1118245   2.851  -0.042  10.620  0.3611 -0.2809  0.4258
  163SOPE    C118246   2.715  -0.088  10.620 -0.6401 -0.2670  0.0451
  163SOPE    HA18247   2.652  -0.029  10.690 -1.1728 -1.0046  0.2131
  163SOPE    HB18248   2.718  -0.191  10.663 -0.0801 -1.5405 -2.8191
  163SOPE    C218249   2.652  -0.094  10.477 -0.1171 -0.0336 -0.2735
  163SOPE    HS18250   2.543  -0.106  10.494 -0.2532 -0.1593 -1.1978
  163SOPE   O2118251   2.719  -0.207  10.408 -0.1402  0.1627 -0.3089
  163SOPE   C2118252   2.632  -0.291  10.342  0.1969 -0.0150 -0.1257
  163SOPE   O2218253   2.509  -0.271  10.347  0.2295  0.2119 -0.1712
  163SOPE   C2218254   2.701  -0.394  10.272  0.2691 -0.0627  0.7943
  163SOPE   H2R18255   2.620  -0.464  10.246  1.2905 -1.8164  2.0876
  163SOPE   H2S18256   2.774  -0.436  10.345 -0.4325 -0.3723  1.3293
  163SOPE    C318257   2.673   0.038  10.398 -0.5744  0.0688  0.0081
  163SOPE    HX18258   2.782   0.054  10.381 -0.5232  0.3893  0.6138
  163SOPE    HY18259   2.643   0.120  10.466 -0.5589  0.4102 -0.3941
  163SOPE   O3118260   2.605   0.037  10.269  0.3547 -0.1739 -0.0292
  163SOPE   C3118261   2.481   0.075  10.277 -0.3553 -0.4162 -0.6295
  163SOPE   O3218262   2.421   0.134  10.367 -0.3141 -0.0874 -0.5490
  163SOPE   C3218263   2.400   0.027  10.164  0.8463  0.0073  0.1577
  163SOPE   H2X18264   2.323  -0.039  10.209 -0.7953  2.0628  0.5087
  163SOPE   H2Y18265   2.461  -0.040  10.098  0.6023 -0.5968  0.5319
  163SOPE   C2318266   2.780  -0.335  10.153 -0.3057 -0.2503  0.3695
  163SOPE   H3R18267   2.837  -0.410  10.093  1.3076  2.0576 -1.1452
  163SOPE   H3S18268   2.860  -0.266  10.187 -0.2573 -1.5794  3.2079
  163SOPE   C2418269   2.676  -0.268  10.051 -0.3306 -0.5757 -0.2966
  163SOPE   H4R18270   2.590  -0.337  10.038 -0.0628 -0.8406 -0.6785
  163SOPE   H4S18271   2.642  -0.172  10.096  0.6550 -0.8814  1.1741
  163SOPE   C2518272   2.736  -0.245   9.907  0.1158 -0.0250 -0.5813
  163SOPE   H5R18273   2.833  -0.194   9.927 -0.6076  0.7192  1.1793
  163SOPE   H5S18274   2.767  -0.344   9.867  1.7606 -0.1237  0.8048
  163SOPE   C2618275   2.652  -0.155   9.808  0.1444  0.2944 -0.1589
  163SOPE   H6R18276   2.574  -0.219   9.763  0.4185  0.3957 -0.7848
  163SOPE   H6S18277   2.602  -0.075   9.867 -0.7196  1.1363 -1.9619
  163SOPE   C2718278   2.741  -0.111   9.700  0.9369  0.0142  0.0569
  163SOPE   H7R18279   2.831  -0.058   9.737  0.9222  1.1099 -1.4077
  163SOPE   H7S18280   2.778  -0.197   9.640  0.0488 -1.4843  1.5636
  163SOPE   C2818281   2.660  -0.020   9.594 -0.7513  0.3049  0.2671
  163SOPE   H8R18282   2.633   0.068   9.656  0.7431 -0.5245  2.2335
  163SOPE   H8S18283   2.737   0.004   9.518 -1.5474 -1.3859 -1.1485
  163SOPE   C2918284   2.537  -0.089   9.531 -0.1690  0.2520 -0.3767
  163SOPE   H9118285   2.513  -0.194   9.553 -3.7020  1.4782  2.7382
  163SOPE  C21018286   2.442  -0.032   9.463  0.1939 -0.5820  0.2612
  163SOPE  H10118287   2.357  -0.090   9.424 -1.7808  0.9452  2.0185
  163SOPE  C21118288   2.443   0.119   9.421  1.2801 -0.0723 -0.0367
  163SOPE  H11R18289   2.479   0.187   9.501  0.3246  1.3017 -0.7251
  163SOPE  H11S18290   2.345   0.170   9.407  2.3621  1.9714 -0.6312
  163SOPE  C21218291   2.538   0.135   9.304 -0.3697 -0.9743  0.0651
  163SOPE  H12R18292   2.633   0.078   9.314 -0.2961 -0.7171  0.9165
  163SOPE  H12S18293   2.563   0.243   9.307  1.3582 -1.3715  1.7610
  163SOPE  C21318294   2.484   0.096   9.162  0.4053 -0.8826 -0.2560
  163SOPE  H13R18295   2.395   0.161   9.154  2.3360  1.9041 -0.5334
  163SOPE  H13S18296   2.465  -0.013   9.168 -0.1263 -0.8512 -1.1660
  163SOPE  C21418297   2.575   0.137   9.041  0.2727  0.0319  0.7964
  163SOPE  H14R18298   2.664   0.070   9.046  1.4840  1.2457 -1.9661
  163SOPE  H14S18299   2.616   0.240   9.052 -0.6697  0.5169 -0.1013
  163SOPE  C21518300   2.508   0.122   8.909 -0.2461  0.3557 -0.0052
  163SOPE  H15R18301   2.456   0.215   8.876  0.1534  0.9316  0.9153
  163SOPE  H15S18302   2.443   0.032   8.905 -0.5116  0.5251  0.3794
  163SOPE  C21618303   2.612   0.101   8.798 -1.1721  0.0299  0.1491
  163SOPE  H16R18304   2.677   0.012   8.811 -0.2589  0.4944 -1.0569
  163SOPE  H16S18305   2.676   0.191   8.808  1.9819 -2.1065  0.7463
  163SOPE  C21718306   2.558   0.084   8.655  1.0789 -0.5827  0.8365
  163SOPE  H17R18307   2.509   0.181   8.630  0.6546 -0.6384  1.4140
  163SOPE  H17S18308   2.473   0.013   8.651 -0.0061  0.7272 -1.4252
  163SOPE  C21818309   2.653   0.050   8.534 -0.9297  0.5135  0.2259
  163SOPE  H18R18310   2.745   0.019   8.589 -0.5621 -1.2798 -1.2772
  163SOPE  H18S18311   2.676   0.143   8.477  0.2493 -0.9135 -1.7619
  163SOPE  H18T18312   2.619  -0.031   8.466  1.3945  0.3545 -0.8625
  163SOPE   C3318313   2.334   0.144  10.092  0.9810 -0.6523 -0.2559
  163SOPE   H3X18314   2.405   0.223  10.060  0.0502  0.4312  0.2619
  163SOPE   H3Y18315   2.254   0.189  10.155  1.2996  1.0157 -1.0137
  163SOPE   C3418316   2.264   0.095   9.964  0.1162  0.4820  0.4215
  163SOPE   H4X18317   2.181   0.024   9.985 -0.7444  1.0530 -0.9060
  163SOPE   H4Y18318   2.337   0.038   9.904  0.2156  1.0674 -0.0259
  163SOPE   C3518319   2.207   0.208   9.879 -0.0490  0.6771  0.3262
  163SOPE   H5X18320   2.287   0.265   9.828  0.2683 -2.4864 -3.1486
  163SOPE   H5Y18321   2.161   0.287   9.943  0.5025  1.6131 -0.4179
  163SOPE   C3618322   2.104   0.153   9.774 -0.0710  0.3977 -0.6580
  163SOPE   H6X18323   2.085   0.230   9.696 -1.6962 -1.1846 -1.9069
  163SOPE   H6Y18324   2.019   0.149   9.846  2.7423  2.7754  3.1789
  163SOPE   C3718325   2.138   0.019   9.704 -0.2863 -0.0446  0.2721
  163SOPE   H7X18326   2.189  -0.055   9.769  1.3306 -0.1756 -1.0936
  163SOPE   H7Y18327   2.211   0.039   9.623 -0.3591 -0.7775  0.0208
  163SOPE   C3818328   2.017  -0.052   9.637 -0.1359 -0.1716 -0.7421
  163SOPE   H8X18329   1.927  -0.046   9.702  1.7774 -0.6843  2.1544
  163SOPE   H8Y18330   2.032  -0.160   9.619 -0.0740 -0.4588  0.8465
  163SOPE   C3918331   1.972   0.012   9.505 -0.1864 -0.3440  0.2772
  163SOPE   H9X18332   1.965   0.121   9.525 -2.3591 -0.5930  1.1149
  163SOPE   H9Y18333   1.866  -0.015   9.488  0.2550 -0.6731 -2.4395
  163SOPE  C31018334   2.063  -0.022   9.388 -0.4541 -0.4529 -0.4030
  163SOPE  H10X18335   2.099  -0.125   9.411 -3.7827 -1.8488 -0.7092
  163SOPE  H10Y18336   2.142   0.055   9.379  1.4053 -2.3933 -1.5264
  163SOPE  C31118337   1.990  -0.013   9.256  0.4025  0.1951 -0.0071
  163SOPE  H11X18338   1.977   0.093   9.225 -0.0552 -0.8399 -3.8837
  163SOPE  H11Y18339   1.888  -0.056   9.264  0.3336  0.1986 -0.7861
  163SOPE  C31218340   2.060  -0.094   9.152  0.0040 -0.2491  0.2165
  163SOPE  H12X18341   2.056  -0.203   9.173  1.0456 -0.5724 -1.0789
  163SOPE  H12Y18342   2.164  -0.053   9.150 -0.8785  2.1478 -0.7696
  163SOPE  C31318343   2.001  -0.069   9.009  0.0114  0.1143 -0.3169
  163SOPE  H13X18344   1.891  -0.070   9.002 -0.0094  0.5040 -0.0557
  163SOPE  H13Y18345   2.030  -0.154   8.943  0.4065 -0.1941  0.2349
  163SOPE  C31418346   2.050   0.061   8.941 -0.4405  1.2141 -0.1333
  163SOPE  H14X18347   2.161   0.070   8.942  0.1468 -3.4486 -0.7372
  163SOPE  H14Y18348   2.021   0.150   9.000  0.4904  1.8968 -0.6763
  163SOPE  C31518349   2.016   0.068   8.795  0.0297 -0.1467  0.4671
  163SOPE  H15X18350   1.909   0.079   8.768  0.4399 -0.5925 -1.5693
  163SOPE  H15Y18351   2.048  -0.031   8.754 -2.2577 -1.0792  0.7973
  163SOPE  C31618352   2.096   0.192   8.750  0.3585  0.7090 -0.3208
  163SOPE  H16X18353   2.203   0.187   8.780  0.1349  0.2074  0.4432
  163SOPE  H16Y18354   2.057   0.282   8.802 -1.6908 -0.2346 -0.1153
  163SOPE  C31718355   2.087   0.219   8.599  0.5865  0.5759  0.4622
  163SOPE  H17X18356   1.981   0.215   8.566  0.1544 -0.6205  1.8947
  163SOPE  H17Y18357   2.136   0.138   8.541 -2.0041 -2.2912  1.9944
  163SOPE  C31818358   2.143   0.359   8.575 -0.4841 -0.0815 -0.1232
  163SOPE  H18X18359   2.147   0.392   8.469 -1.3914  0.3803 -0.0268
  163SOPE  H18Y18360   2.242   0.355   8.624 -0.7025  1.0082  0.4532
  163SOPE  H18Z18361   2.082   0.436   8.627  1.8606  1.8314 -0.0554
  164SOPE     N18362   4.736   4.497  11.066  0.2783  0.5601 -0.5260
  164SOPE   HN118363   4.699   4.403  11.041 -1.3823  0.3425  2.3607
  164SOPE   HN218364   4.838   4.504  11.048  0.1699  1.3408 -0.8773
  164SOPE   HN318365   4.736   4.487  11.169 -0.3886  0.4750 -0.5291
  164SOPE   C1218366   4.663   4.609  11.005  0.1718 -0.1711  0.4533
  164SOPE  H12A18367   4.725   4.699  11.025  0.4050 -0.3005  0.3149
  164SOPE  H12B18368   4.566   4.626  11.058  0.4071 -1.0066  1.1735
  164SOPE   C1118369   4.645   4.593  10.852 -0.5448  0.6298  0.3677
  164SOPE  H11A18370   4.732   4.559  10.791 -2.3692 -2.1397 -0.8673
  164SOPE  H11B18371   4.618   4.697  10.824 -0.2832  0.2177 -1.5260
  164SOPE     P18372   4.400   4.550  10.792 -0.5446 -0.1058  0.0869
  164SOPE   O1318373   4.334   4.599  10.918 -0.6461 -0.0840  0.0770
  164SOPE   O1418374   4.340   4.435  10.724  0.0136 -0.6390  0.5145
  164SOPE   O1218375   4.542   4.500  10.836 -0.0545  0.4344  0.1802
  164SOPE   O1118376   4.423   4.667  10.683  0.2219  0.3820  0.0200
  164SOPE    C118377   4.475   4.625  10.553 -0.9891 -0.7606  0.3341
  164SOPE    HA18378   4.424   4.538  10.505  1.6064 -2.4457  0.4112
  164SOPE    HB18379   4.579   4.587  10.562 -1.5358 -2.3967  0.1362
  164SOPE    C218380   4.449   4.729  10.440  0.4530 -0.4095 -0.5451
  164SOPE    HS18381   4.494   4.698  10.342 -2.0895 -1.7453 -1.3693
  164SOPE   O2118382   4.507   4.858  10.468 -0.8131 -0.2302 -0.5179
  164SOPE   C2118383   4.644   4.863  10.479 -0.2849  0.9028  0.0199
  164SOPE   O2218384   4.719   4.768  10.457 -0.0734  0.1204 -0.1822
  164SOPE   C2218385   4.694   5.004  10.512 -0.7508  0.0615 -0.0808
  164SOPE   H2R18386   4.764   4.997  10.598  0.3065  0.0377 -0.9245
  164SOPE   H2S18387   4.611   5.073  10.542 -0.6748  0.4085 -0.6427
  164SOPE    C318388   4.296   4.757  10.420  0.0186 -0.5438  0.0090
  164SOPE    HX18389   4.268   4.818  10.508  2.7553 -1.2452  1.4896
  164SOPE    HY18390   4.241   4.661  10.435 -0.6629  0.0106  1.2173
  164SOPE   O3118391   4.259   4.829  10.297  0.0303 -0.1673  0.2896
  164SOPE   C3118392   4.225   4.753  10.196  0.0414 -0.4328 -0.1646
  164SOPE   O3218393   4.211   4.631  10.199 -0.7423  0.0078  0.0939
  164SOPE   C3218394   4.209   4.837  10.065 -0.2943 -0.4174 -0.2432
  164SOPE   H2X18395   4.307   4.889  10.063 -0.1255 -0.7323 -0.1889
  164SOPE   H2Y18396   4.125   4.907  10.084 -0.4005  0.0830 -2.2871
  164SOPE   C2318397   4.768   5.059  10.386  0.1071 -0.3934  0.7027
  164SOPE   H3R18398   4.844   4.982  10.358 -0.1122 -0.6649  0.8412
  164SOPE   H3S18399   4.806   5.160  10.410  2.8017 -1.2920  0.5499
  164SOPE   C2418400   4.677   5.090  10.260  0.4266  0.3790 -0.8709
  164SOPE   H4R18401   4.614   5.003  10.230 -1.0175  0.1801  2.2895
  164SOPE   H4S18402   4.606   5.173  10.280 -0.5658 -0.7404  0.4773
  164SOPE   C2518403   4.760   5.134  10.139  0.2176 -0.1346  0.9053
  164SOPE   H5R18404   4.788   5.238  10.165  1.1281  0.0144 -0.5520
  164SOPE   H5S18405   4.850   5.073  10.114  0.0569  0.4386 -1.2188
  164SOPE   C2618406   4.673   5.152  10.007 -0.1155  0.3498 -0.1560
  164SOPE   H6R18407   4.604   5.234  10.037 -3.4742 -2.2155 -0.2484
  164SOPE   H6S18408   4.740   5.194   9.929  1.1952 -1.2949  0.0233
  164SOPE   C2718409   4.593   5.026   9.958 -0.1002 -0.3512 -0.1280
  164SOPE   H7R18410   4.628   4.930  10.001 -2.6465 -1.2741  0.0570
  164SOPE   H7S18411   4.487   5.036   9.990  0.0562 -1.3611  0.7513
  164SOPE   C2818412   4.606   5.006   9.806 -0.5907  0.5070 -0.4300
  164SOPE   H8R18413   4.711   5.006   9.769 -0.2905 -4.2317 -0.1883
  164SOPE   H8S18414   4.567   4.905   9.782 -2.9112  0.7824  1.7432
  164SOPE   C2918415   4.535   5.115   9.731  0.8698  0.2069  0.3343
  164SOPE   H9118416   4.512   5.210   9.782  0.4802  0.5462 -0.4555
  164SOPE  C21018417   4.502   5.122   9.598  0.4208  0.1220  0.0113
  164SOPE  H10118418   4.443   5.207   9.562 -0.3519 -0.0432  0.8498
  164SOPE  C21118419   4.527   5.017   9.487  0.0749  0.3975  0.7988
  164SOPE  H11R18420   4.432   4.981   9.443 -0.8739  0.7917  2.4409
  164SOPE  H11S18421   4.579   4.930   9.533  2.3984  1.6121  0.6101
  164SOPE  C21218422   4.617   5.080   9.380 -0.1468 -0.2839 -0.4010
  164SOPE  H12R18423   4.707   5.111   9.438 -0.5174  0.2797 -0.1074
  164SOPE  H12S18424   4.572   5.170   9.333  1.0813  0.5053 -0.1337
  164SOPE  C21318425   4.648   4.974   9.277  0.5160 -0.3250  0.1196
  164SOPE  H13R18426   4.685   4.877   9.315 -1.5833 -1.0305  0.4693
  164SOPE  H13S18427   4.730   5.014   9.214  0.6663 -2.7625 -1.3509
  164SOPE  C21418428   4.538   4.954   9.169  0.1699  0.3481 -0.2224
  164SOPE  H14R18429   4.505   5.053   9.129 -1.8200 -0.9522 -2.0004
  164SOPE  H14S18430   4.448   4.904   9.211  1.4840 -0.5492  1.7130
  164SOPE  C21518431   4.597   4.888   9.046  0.5381 -0.2131  0.2932
  164SOPE  H15R18432   4.576   4.778   9.048 -0.8938 -0.0374 -1.5098
  164SOPE  H15S18433   4.707   4.898   9.037  0.4300  0.4170 -0.4718
  164SOPE  C21618434   4.517   4.932   8.917 -0.4270  0.1359  0.5143
  164SOPE  H16R18435   4.529   5.041   8.904  0.1362 -0.0544 -0.7071
  164SOPE  H16S18436   4.410   4.923   8.945 -0.7790  2.5713  0.1660
  164SOPE  C21718437   4.550   4.847   8.791  0.9954 -0.1900 -0.6986
  164SOPE  H17R18438   4.523   4.745   8.826 -0.8900  1.4590  3.3917
  164SOPE  H17S18439   4.660   4.857   8.775  0.6601  0.1463 -3.1691
  164SOPE  C21818440   4.476   4.897   8.664 -0.0672 -0.0703 -0.5580
  164SOPE  H18R18441   4.503   4.825   8.584  0.4930 -0.9991  0.4448
  164SOPE  H18S18442   4.527   4.992   8.636  0.0435  0.5095  1.4672
  164SOPE  H18T18443   4.365   4.902   8.675 -0.1742 -2.2967 -0.0423
  164SOPE   C3318444   4.196   4.757   9.935 -0.5207 -0.8961 -0.1404
  164SOPE   H3X18445   4.148   4.660   9.958  0.9119 -2.1641 -2.1094
  164SOPE   H3Y18446   4.301   4.728   9.911 -0.2539 -0.3715  0.3830
  164SOPE   C3418447   4.138   4.836   9.820  0.0263 -0.4519 -0.1068
  164SOPE   H4X18448   4.173   4.942   9.813 -0.1056 -0.4510 -0.8122
  164SOPE   H4Y18449   4.029   4.838   9.840  0.2373 -0.8522  1.1597
  164SOPE   C3518450   4.169   4.777   9.680  0.7008  0.1607 -0.0747
  164SOPE   H5X18451   4.123   4.677   9.665 -0.2494  0.5476  0.1303
  164SOPE   H5Y18452   4.278   4.767   9.665  0.7868  2.1650 -1.2331
  164SOPE   C3618453   4.124   4.882   9.584 -0.4601  0.3318  1.3843
  164SOPE   H6X18454   4.200   4.964   9.586 -1.4725  1.3374 -0.1079
  164SOPE   H6Y18455   4.028   4.932   9.607  0.7880  3.0884  1.0230
  164SOPE   C3718456   4.131   4.831   9.439  0.3283 -0.2077  0.5048
  164SOPE   H7X18457   4.041   4.766   9.434  0.0109  0.2780 -0.3862
  164SOPE   H7Y18458   4.223   4.769   9.431 -0.8191 -1.9137 -0.0083
  164SOPE   C3818459   4.140   4.950   9.342  0.1742  0.8090  0.2968
  164SOPE   H8X18460   4.239   4.998   9.360 -0.1224  0.9612  1.6461
  164SOPE   H8Y18461   4.061   5.028   9.352 -0.7604  0.1517 -1.4563
  164SOPE   C3918462   4.140   4.895   9.201 -0.2063 -0.0979  0.3332
  164SOPE   H9X18463   4.046   4.837   9.186 -0.0672  0.1729 -1.9247
  164SOPE   H9Y18464   4.229   4.828   9.195  1.2887  1.8938 -0.9109
  164SOPE  C31018465   4.152   5.003   9.096 -0.6218  1.1967 -0.1331
  164SOPE  H10X18466   4.258   5.035   9.106  0.0774 -1.4267  1.8274
  164SOPE  H10Y18467   4.091   5.088   9.133 -1.7258 -0.1542  1.2879
  164SOPE  C31118468   4.125   4.949   8.955 -0.0258  0.2970  0.1284
  164SOPE  H11X18469   4.189   4.861   8.932  1.1085  0.9392  0.7632
  164SOPE  H11Y18470   4.156   5.018   8.873  1.2419 -1.1069 -0.6276
  164SOPE  C31218471   3.978   4.905   8.941 -0.5968  0.2850  0.1775
  164SOPE  H12X18472   3.956   4.831   9.020 -0.3426 -1.2970 -1.1813
  164SOPE  H12Y18473   3.965   4.855   8.843 -2.1268  0.3805  0.3131
  164SOPE  C31318474   3.868   5.016   8.954 -0.2628 -0.2231  0.0766
  164SOPE  H13X18475   3.859   5.035   9.063  0.6719 -1.5255  0.4145
  164SOPE  H13Y18476   3.775   4.962   8.927 -2.9692  3.2933  1.6885
  164SOPE  C31418477   3.897   5.134   8.863 -0.5498 -0.1228  0.2582
  164SOPE  H14X18478   3.925   5.087   8.766  0.7856 -0.4519  0.7813
  164SOPE  H14Y18479   3.989   5.188   8.892  0.3036  1.5845 -4.7600
  164SOPE  C31518480   3.785   5.231   8.841 -0.7248  0.1250 -0.0644
  164SOPE  H15X18481   3.769   5.280   8.939 -2.1037 -0.8959  0.2634
  164SOPE  H15Y18482   3.692   5.178   8.810 -0.6224  2.2137 -4.8249
  164SOPE  C31618483   3.808   5.342   8.731 -0.2064  0.0408  0.0684
  164SOPE  H16X18484   3.849   5.292   8.641 -3.5453 -0.5944 -1.2070
  164SOPE  H16Y18485   3.877   5.419   8.773 -2.3565  2.3792 -0.4323
  164SOPE  C31718486   3.678   5.405   8.697 -0.4772 -0.3927  0.0234
  164SOPE  H17X18487   3.672   5.508   8.656  3.4427  0.2223  0.6923
  164SOPE  H17Y18488   3.635   5.428   8.797 -0.8108 -0.0460 -0.1959
  164SOPE  C31818489   3.577   5.323   8.625  0.3990 -0.0432  0.4300
  164SOPE  H18X18490   3.550   5.235   8.687  2.0335 -0.5811  0.4294
  164SOPE  H18Y18491   3.614   5.290   8.526  1.4985  0.0223  0.8046
  164SOPE  H18Z18492   3.480   5.378   8.620  0.6692  0.5871  1.6586
  165SOPE     N18493   5.642   6.322  10.804 -0.3726  0.0346  0.2592
  165SOPE   HN118494   5.608   6.243  10.862 -0.9869 -0.0668 -0.2210
  165SOPE   HN218495   5.744   6.325  10.820 -0.0208 -0.1251 -1.7023
  165SOPE   HN318496   5.594   6.399  10.854  0.3505  0.3114  0.5288
  165SOPE   C1218497   5.598   6.312  10.655 -1.2472 -0.1097 -0.4376
  165SOPE  H12A18498   5.696   6.285  10.611  0.4413  2.6458  1.3447
  165SOPE  H12B18499   5.582   6.418  10.625  3.0285  0.9065  0.2476
  165SOPE   C1118500   5.485   6.211  10.647 -0.4066 -0.5215 -0.7049
  165SOPE  H11A18501   5.535   6.115  10.672  4.6973  2.4055  1.9376
  165SOPE  H11B18502   5.448   6.207  10.542 -2.0726 -0.4328 -0.1624
  165SOPE     P18503   5.231   6.183  10.718  0.1212 -0.0657  0.2411
  165SOPE   O1318504   5.133   6.289  10.732 -0.1737 -0.3131  0.0718
  165SOPE   O1418505   5.217   6.067  10.805  0.1247  0.0259 -0.3932
  165SOPE   O1218506   5.380   6.246  10.734  0.3558 -0.0596 -0.3379
  165SOPE   O1118507   5.215   6.139  10.564  0.0844  0.7692 -0.0452
  165SOPE    C118508   5.102   6.077  10.516  0.5789  0.5047 -0.5067
  165SOPE    HA18509   5.006   6.129  10.538 -0.8658 -1.6260 -1.3903
  165SOPE    HB18510   5.095   5.970  10.546 -0.7710  0.6721 -0.1552
  165SOPE    C218511   5.100   6.073  10.352  0.0498 -0.1628  0.1043
  165SOPE    HS18512   4.997   6.054  10.318 -0.1690  2.9867 -1.3285
  165SOPE   O2118513   5.199   5.972  10.297  0.5805 -0.5506 -0.1980
  165SOPE   C2118514   5.132   5.867  10.269 -0.8809  0.6726 -0.1719
  165SOPE   O2218515   5.015   5.839  10.298 -0.8129 -0.7088  0.4887
  165SOPE   C2218516   5.216   5.766  10.196 -0.5399  0.5852 -0.3554
  165SOPE   H2R18517   5.232   5.692  10.277 -1.2037  0.6359 -0.1670
  165SOPE   H2S18518   5.312   5.812  10.165 -0.3176  0.8156  0.6461
  165SOPE    C318519   5.121   6.213  10.286  0.2146 -0.2013 -0.1606
  165SOPE    HX18520   5.229   6.239  10.297  0.1050 -0.6382  2.6861
  165SOPE    HY18521   5.049   6.288  10.324 -1.7047 -0.5576 -2.8040
  165SOPE   O3118522   5.093   6.190  10.144 -0.2191  0.5111 -0.1255
  165SOPE   C3118523   5.128   6.284  10.065 -0.0541  0.3285  1.0141
  165SOPE   O3218524   5.177   6.394  10.089 -0.3342  0.0762 -0.7829
  165SOPE   C3218525   5.114   6.232   9.916 -0.1611 -0.2025 -0.4688
  165SOPE   H2X18526   5.006   6.208   9.905 -0.2459  0.3291 -0.8462
  165SOPE   H2Y18527   5.172   6.138   9.901 -1.5504 -1.1816  0.0208
  165SOPE   C2318528   5.143   5.708  10.071 -1.6295  0.5081 -0.4035
  165SOPE   H3R18529   5.046   5.661  10.098 -2.1629  0.9164 -1.5592
  165SOPE   H3S18530   5.210   5.631  10.029  0.3568  1.7161  0.3948
  165SOPE   C2418531   5.130   5.825   9.982 -0.0782 -0.0168  1.3762
  165SOPE   H4R18532   5.067   5.903  10.028 -0.1320 -0.8737  2.8060
  165SOPE   H4S18533   5.231   5.869   9.973 -0.0453 -0.2095  0.6824
  165SOPE   C2518534   5.067   5.794   9.843  0.0331 -0.2109  0.5641
  165SOPE   H5R18535   5.018   5.695   9.853  0.0830 -0.2001  0.9454
  165SOPE   H5S18536   4.989   5.872   9.827  0.3993 -0.0448 -0.4387
  165SOPE   C2618537   5.156   5.807   9.721  0.1684  0.0585 -0.4733
  165SOPE   H6R18538   5.186   5.914   9.717  0.7398 -0.0427  0.6369
  165SOPE   H6S18539   5.258   5.764   9.734  0.1537  0.1295 -0.1147
  165SOPE   C2718540   5.080   5.773   9.589  0.1161 -0.1682 -0.2819
  165SOPE   H7R18541   5.029   5.677   9.614  0.6522  0.2026  2.6515
  165SOPE   H7S18542   5.004   5.851   9.565  0.0937 -1.0497 -3.5529
  165SOPE   C2818543   5.172   5.761   9.460 -0.1457  0.8155  0.1177
  165SOPE   H8R18544   5.236   5.674   9.485 -2.2232 -0.6191  0.7687
  165SOPE   H8S18545   5.100   5.710   9.393 -2.5550 -0.8557  3.6556
  165SOPE   C2918546   5.245   5.877   9.409 -0.1263  0.1843 -0.1978
  165SOPE   H9118547   5.265   5.950   9.489 -0.7689 -0.0797  0.2124
  165SOPE  C21018548   5.311   5.901   9.297  0.3595  0.0047 -0.4713
  165SOPE  H10118549   5.338   6.006   9.279  2.0976 -0.3637 -0.2097
  165SOPE  C21118550   5.304   5.803   9.183 -0.4213  0.5422 -0.1484
  165SOPE  H11R18551   5.241   5.714   9.203 -0.1231  0.1742 -0.8159
  165SOPE  H11S18552   5.400   5.754   9.154  0.1989  1.2877  0.6002
  165SOPE  C21218553   5.248   5.854   9.044  0.3351 -0.3886 -0.8330
  165SOPE  H12R18554   5.141   5.864   9.070  0.9605  0.1720  1.7424
  165SOPE  H12S18555   5.260   5.773   8.969  1.1059 -0.6904 -0.3910
  165SOPE  C21318556   5.323   5.978   8.977 -0.7093  0.5890  1.0447
  165SOPE  H13R18557   5.335   6.054   9.057  2.6381  0.4265  0.8091
  165SOPE  H13S18558   5.266   6.024   8.893 -1.1495 -2.2005 -0.3233
  165SOPE  C21418559   5.464   5.950   8.921  0.2975 -0.2944 -0.8339
  165SOPE  H14R18560   5.508   5.900   9.010  1.7291 -0.2202 -1.4668
  165SOPE  H14S18561   5.509   6.048   8.893  0.4671  0.7006  2.4610
  165SOPE  C21518562   5.442   5.859   8.797 -0.0646 -0.2865 -0.0644
  165SOPE  H15R18563   5.374   5.908   8.724  0.8378  0.7094 -0.2744
  165SOPE  H15S18564   5.395   5.763   8.828  0.1750 -0.6010 -0.6762
  165SOPE  C21618565   5.569   5.813   8.730 -0.0783 -0.1420  0.8191
  165SOPE  H16R18566   5.550   5.735   8.654 -0.5965  1.1122 -0.3814
  165SOPE  H16S18567   5.643   5.767   8.799  1.6418  2.1632  0.6373
  165SOPE  C21718568   5.653   5.922   8.658  0.0913  0.2059 -0.2609
  165SOPE  H17R18569   5.692   5.989   8.738 -0.3473 -1.9253  1.8290
  165SOPE  H17S18570   5.582   5.964   8.583 -0.0725 -2.3695 -1.6457
  165SOPE  C21818571   5.774   5.865   8.591 -0.4845 -0.2374 -0.4029
  165SOPE  H18R18572   5.817   5.946   8.529  1.5644 -0.5754  0.5149
  165SOPE  H18S18573   5.763   5.773   8.529 -1.1447 -1.0749  0.8999
  165SOPE  H18T18574   5.855   5.840   8.663 -0.1211 -1.6511 -1.2443
  165SOPE   C3318575   5.145   6.338   9.813  0.9644  0.3330 -0.2489
  165SOPE   H3X18576   5.250   6.371   9.829  0.4621  2.0496 -0.3031
  165SOPE   H3Y18577   5.070   6.418   9.827 -0.8126 -0.9081 -2.0282
  165SOPE   C3418578   5.118   6.288   9.665  0.2663 -0.3630 -0.4250
  165SOPE   H4X18579   5.009   6.265   9.657  0.1345 -0.0422  0.3615
  165SOPE   H4Y18580   5.170   6.192   9.644 -0.3471 -0.4016 -1.9509
  165SOPE   C3518581   5.157   6.389   9.560  0.0724 -0.3816  0.4803
  165SOPE   H5X18582   5.266   6.411   9.567  0.0309  0.1079 -0.2816
  165SOPE   H5Y18583   5.103   6.484   9.579  1.0528 -0.2960  3.2793
  165SOPE   C3618584   5.120   6.336   9.420 -0.2754 -0.0386 -1.1414
  165SOPE   H6X18585   5.010   6.345   9.427 -0.1519  1.5634  4.9739
  165SOPE   H6Y18586   5.149   6.230   9.404 -1.4407 -0.1967 -2.3601
  165SOPE   C3718587   5.162   6.434   9.309  0.2493  0.0792 -0.4195
  165SOPE   H7X18588   5.173   6.541   9.336  0.0174 -0.4325  1.9168
  165SOPE   H7Y18589   5.079   6.443   9.236 -1.4313 -2.4605  0.9963
  165SOPE   C3818590   5.295   6.393   9.247  0.1821  0.0344 -0.1631
  165SOPE   H8X18591   5.268   6.296   9.200  1.3872 -0.6489  0.5186
  165SOPE   H8Y18592   5.378   6.390   9.320  1.4268  1.6390 -1.4353
  165SOPE   C3918593   5.333   6.486   9.135  0.3974  0.0131 -0.0931
  165SOPE   H9X18594   5.356   6.582   9.186 -0.9907  0.5300 -0.4027
  165SOPE   H9Y18595   5.243   6.496   9.070 -0.0892  1.4933  0.7525
  165SOPE  C31018596   5.469   6.459   9.072 -0.8977 -0.2226  0.4819
  165SOPE  H10X18597   5.459   6.356   9.030 -0.1808  1.0119 -3.0646
  165SOPE  H10Y18598   5.549   6.465   9.148  0.1297  1.1127 -0.6389
  165SOPE  C31118599   5.501   6.544   8.952 -0.5541 -0.1755 -0.4814
  165SOPE  H11X18600   5.550   6.633   8.998 -2.5837  1.2350 -0.8779
  165SOPE  H11Y18601   5.411   6.582   8.899 -0.4911  1.5363  0.5376
  165SOPE  C31218602   5.579   6.473   8.842 -0.5170 -0.4819 -0.7231
  165SOPE  H12X18603   5.518   6.385   8.813 -3.3735  0.5356  1.6676
  165SOPE  H12Y18604   5.672   6.444   8.896 -0.8443 -0.1300  0.0524
  165SOPE  C31318605   5.615   6.551   8.717 -0.3968  0.2437 -0.1416
  165SOPE  H13X18606   5.524   6.591   8.668 -0.4321 -0.2025 -0.4508
  165SOPE  H13Y18607   5.678   6.495   8.645 -0.1842  0.5829 -0.2220
  165SOPE  C31418608   5.693   6.678   8.744  0.1936  0.2462 -0.3477
  165SOPE  H14X18609   5.789   6.664   8.798 -0.1826 -0.6774  0.0971
  165SOPE  H14Y18610   5.627   6.745   8.804 -3.6902 -1.8282 -1.9653
  165SOPE  C31518611   5.731   6.759   8.612  0.4453  0.0221 -0.6039
  165SOPE  H15X18612   5.643   6.748   8.545  0.1047 -0.2078 -0.1187
  165SOPE  H15Y18613   5.815   6.711   8.557  0.6972  1.3629 -1.4347
  165SOPE  C31618614   5.778   6.898   8.642  0.1406  0.5786  0.3863
  165SOPE  H16X18615   5.863   6.885   8.712 -0.4787 -1.5909  0.7740
  165SOPE  H16Y18616   5.704   6.959   8.698 -0.4801  0.3415 -0.1681
  165SOPE  C31718617   5.826   6.960   8.518 -0.0155 -0.3087  0.9062
  165SOPE  H17X18618   5.733   6.974   8.459  0.8117  0.1274 -0.3345
  165SOPE  H17Y18619   5.899   6.891   8.469 -1.2256 -1.3001  0.4313
  165SOPE  C31818620   5.892   7.093   8.545  0.1878  0.7489  0.0825
  165SOPE  H18X18621   5.828   7.173   8.588 -0.6918 -0.7031  1.5697
  165SOPE  H18Y18622   5.923   7.130   8.445 -0.2828  0.3195 -0.2311
  165SOPE  H18Z18623   5.984   7.079   8.606  0.3046 -0.3844 -0.3268
  166SOPE     N18624   1.226   5.901  10.630 -0.1140  0.0829 -0.1661
  166SOPE   HN118625   1.224   5.883  10.528  2.9580 -1.2641 -0.0909
  166SOPE   HN218626   1.315   5.944  10.660 -0.0914  0.1074 -0.2696
  166SOPE   HN318627   1.209   5.818  10.690  0.3449  1.8814  2.6413
  166SOPE   C1218628   1.112   5.991  10.662 -0.0698 -0.6671 -0.6012
  166SOPE  H12A18629   1.033   5.982  10.585 -1.5810 -1.1470  0.9362
  166SOPE  H12B18630   1.143   6.097  10.676  1.5976 -1.1700 -0.2137
  166SOPE   C1118631   1.046   5.952  10.798 -0.6912 -0.4435  0.1718
  166SOPE  H11A18632   0.961   6.023  10.809 -0.9211 -0.7629  0.4781
  166SOPE  H11B18633   1.107   5.970  10.890 -2.5125 -1.7077  1.7068
  166SOPE     P18634   0.864   5.756  10.736 -0.2371  0.0204 -0.2777
  166SOPE   O1318635   0.749   5.832  10.781 -0.1324 -0.0321  0.0904
  166SOPE   O1418636   0.862   5.607  10.763  0.0830 -0.8169 -0.5715
  166SOPE   O1218637   1.003   5.814  10.796  0.1575  0.4346 -0.2795
  166SOPE   O1118638   0.875   5.785  10.587 -0.2110 -0.2769 -0.1542
  166SOPE    C118639   0.795   5.748  10.478  0.1570  0.2968  1.0856
  166SOPE    HA18640   0.688   5.768  10.498  0.1124 -0.9813  2.1950
  166SOPE    HB18641   0.809   5.640  10.456 -2.5837 -0.2527  1.6663
  166SOPE    C218642   0.818   5.836  10.351 -0.4191  0.3405  0.5479
  166SOPE    HS18643   0.917   5.801  10.317 -1.6271 -1.0837 -1.7448
  166SOPE   O2118644   0.825   5.975  10.395  0.9067  0.3390 -0.2442
  166SOPE   C2118645   0.898   6.057  10.321 -0.2060 -0.5484  0.0110
  166SOPE   O2218646   0.961   6.029  10.225  0.3375  0.2394 -0.5513
  166SOPE   C2218647   0.855   6.197  10.370  0.0913 -0.0683  0.6523
  166SOPE   H2R18648   0.931   6.266  10.326 -0.3672  0.0152 -0.0240
  166SOPE   H2S18649   0.833   6.203  10.479  0.1307  1.5191  0.5873
  166SOPE    C318650   0.713   5.818  10.244  0.7728 -0.3568  0.6198
  166SOPE    HX18651   0.615   5.857  10.281  0.5584 -0.8074  0.5351
  166SOPE    HY18652   0.690   5.711  10.224 -3.4235  0.0550  2.2438
  166SOPE   O3118653   0.739   5.888  10.121 -0.5676 -0.8203  0.9525
  166SOPE   C3118654   0.788   5.816  10.026  0.3859 -0.2177  0.2422
  166SOPE   O3218655   0.823   5.699  10.023 -0.2345  0.0694  0.1369
  166SOPE   C3218656   0.794   5.909   9.899 -0.1481 -0.0922  0.0200
  166SOPE   H2X18657   0.845   5.999   9.941 -1.6450  0.7551  0.0874
  166SOPE   H2Y18658   0.691   5.940   9.871 -0.6521 -0.3310  1.5008
  166SOPE   C2318659   0.725   6.249  10.309  1.0356 -0.0616  0.0745
  166SOPE   H3R18660   0.702   6.353  10.343 -0.9290 -0.6644  0.7061
  166SOPE   H3S18661   0.648   6.179  10.348  0.6498 -0.2398 -0.9942
  166SOPE   C2418662   0.714   6.245  10.161 -1.0654 -0.2410  1.1191
  166SOPE   H4R18663   0.797   6.309  10.123 -3.7284  2.2472 -0.8927
  166SOPE   H4S18664   0.736   6.142  10.126  0.8948  0.9951 -1.6240
  166SOPE   C2518665   0.581   6.291  10.100  0.0769 -0.3866  0.7112
  166SOPE   H5R18666   0.497   6.259  10.166 -1.1705 -1.1317 -1.1475
  166SOPE   H5S18667   0.575   6.401  10.096  0.3577 -0.3715  0.6995
  166SOPE   C2618668   0.558   6.231   9.960  0.4607  0.6042  0.3063
  166SOPE   H6R18669   0.583   6.124   9.973  3.0620  0.9057 -1.5690
  166SOPE   H6S18670   0.449   6.243   9.940  0.0026 -2.3900  0.5762
  166SOPE   C2718671   0.651   6.278   9.850  0.3873 -0.2865  0.2655
  166SOPE   H7R18672   0.643   6.389   9.854  3.2884  0.0302 -0.0669
  166SOPE   H7S18673   0.757   6.266   9.880 -0.3915 -0.9662  3.0130
  166SOPE   C2818674   0.630   6.225   9.711 -0.3367 -0.1205  0.3216
  166SOPE   H8R18675   0.651   6.116   9.721  1.2317  0.2117  0.9535
  166SOPE   H8S18676   0.523   6.226   9.683 -0.4439  1.3699  0.6952
  166SOPE   C2918677   0.721   6.279   9.598 -0.1513  0.3065  0.2785
  166SOPE   H9118678   0.825   6.246   9.612 -0.4726 -1.5126 -1.2131
  166SOPE  C21018679   0.687   6.338   9.480 -0.8832  0.4515  0.5270
  166SOPE  H10118680   0.764   6.357   9.404 -0.1121 -3.6308  0.0670
  166SOPE  C21118681   0.549   6.383   9.436  0.0946  0.1612  0.2608
  166SOPE  H11R18682   0.542   6.491   9.412  1.0897  0.0248 -0.7505
  166SOPE  H11S18683   0.482   6.374   9.524 -0.0296 -1.6989  0.0323
  166SOPE  C21218684   0.489   6.322   9.305 -0.1651 -0.0768  0.1293
  166SOPE  H12R18685   0.472   6.213   9.318 -0.5150  0.2293  2.7184
  166SOPE  H12S18686   0.566   6.327   9.225 -0.5611 -0.0709 -0.2553
  166SOPE  C21318687   0.349   6.384   9.270  1.3666  0.4185  0.6284
  166SOPE  H13R18688   0.309   6.461   9.339  0.0985  1.5558 -1.2961
  166SOPE  H13S18689   0.280   6.299   9.286  1.6717 -0.1147 -0.7650
  166SOPE  C21418690   0.345   6.435   9.126 -0.5400 -0.0266 -0.1143
  166SOPE  H14R18691   0.441   6.490   9.112  0.9839 -2.4100  0.2289
  166SOPE  H14S18692   0.252   6.494   9.123  0.0776  0.9907  0.2347
  166SOPE  C21518693   0.330   6.330   9.016  0.1945  0.2403  0.2607
  166SOPE  H15R18694   0.343   6.230   9.063 -0.9787 -0.0253  0.0466
  166SOPE  H15S18695   0.410   6.336   8.939  0.5738 -0.1631  0.6217
  166SOPE  C21618696   0.187   6.335   8.950  0.5665  0.2645 -0.1762
  166SOPE  H16R18697   0.170   6.430   8.896 -2.2232 -0.0692 -0.0441
  166SOPE  H16S18698   0.118   6.321   9.035  1.1360  1.1356  0.4429
  166SOPE  C21718699   0.164   6.216   8.848  0.2725 -0.2217 -0.8963
  166SOPE  H17R18700   0.215   6.128   8.893 -1.7468 -1.0037 -0.0094
  166SOPE  H17S18701   0.204   6.236   8.747  0.4649 -1.3933 -1.0647
  166SOPE  C21818702   0.016   6.172   8.850 -0.1451 -0.0237 -0.2395
  166SOPE  H18R18703   0.008   6.090   8.776 -0.1607 -0.2453  0.0039
  166SOPE  H18S18704  -0.044   6.255   8.808  2.0716  1.4206 -0.7172
  166SOPE  H18T18705  -0.013   6.131   8.949  1.6468  1.0325  0.7883
  166SOPE   C3318706   0.887   5.846   9.787 -0.2718 -0.2082  0.0442
  166SOPE   H3X18707   0.855   5.742   9.760  1.7448 -1.1295  1.0128
  166SOPE   H3Y18708   0.988   5.841   9.832  0.4888  2.6758 -1.1369
  166SOPE   C3418709   0.904   5.945   9.670 -0.2194 -0.1223  0.5086
  166SOPE   H4X18710   0.912   6.051   9.701  0.7868 -0.1817  0.4867
  166SOPE   H4Y18711   0.808   5.938   9.615  0.4893 -3.9147 -0.5296
  166SOPE   C3518712   1.030   5.927   9.590  0.1425  0.1550  0.4738
  166SOPE   H5X18713   1.026   5.835   9.528  1.0156 -0.2488  1.0072
  166SOPE   H5Y18714   1.115   5.931   9.661  1.6550  3.0149 -1.2980
  166SOPE   C3618715   1.039   6.038   9.484  0.1476  0.8205 -0.0832
  166SOPE   H6X18716   1.144   6.053   9.451  1.8722 -2.0033  3.3814
  166SOPE   H6Y18717   1.014   6.133   9.536  1.7213  0.9408  0.5046
  166SOPE   C3718718   0.935   6.020   9.364 -0.0000 -0.2784 -0.5423
  166SOPE   H7X18719   0.832   5.999   9.402 -1.1202  3.2515 -1.2091
  166SOPE   H7Y18720   0.966   5.927   9.311 -3.3628 -0.0167 -3.3570
  166SOPE   C3818721   0.929   6.132   9.263 -0.2331 -0.1505  0.4336
  166SOPE   H8X18722   1.025   6.136   9.208 -0.3854  0.6957  0.2139
  166SOPE   H8Y18723   0.910   6.223   9.324  1.8061  1.5475 -1.3088
  166SOPE   C3918724   0.818   6.104   9.162 -0.2129 -0.8186 -0.1120
  166SOPE   H9X18725   0.726   6.105   9.224  0.3438 -2.0614  0.7875
  166SOPE   H9Y18726   0.825   6.004   9.114 -1.4257 -0.8337 -0.2942
  166SOPE  C31018727   0.809   6.218   9.060  0.1454  0.2912 -0.0713
  166SOPE  H10X18728   0.802   6.314   9.117 -1.6994 -0.0519  0.3476
  166SOPE  H10Y18729   0.709   6.206   9.012  0.6470 -1.6315 -0.7221
  166SOPE  C31118730   0.925   6.238   8.965 -0.0889  0.0572  0.3335
  166SOPE  H11X18731   0.935   6.145   8.904 -0.7597 -0.2564  0.6820
  166SOPE  H11Y18732   1.025   6.242   9.013  0.8200 -0.8345 -1.3873
  166SOPE  C31218733   0.910   6.360   8.870  0.4081  0.2785  0.2616
  166SOPE  H12X18734   1.013   6.400   8.861 -0.4676  2.4280 -0.9780
  166SOPE  H12Y18735   0.853   6.433   8.931 -2.3678 -1.0902 -0.5474
  166SOPE  C31318736   0.833   6.341   8.737  0.2317 -0.0159  0.3646
  166SOPE  H13X18737   0.723   6.352   8.750  0.2145  0.7273 -0.3450
  166SOPE  H13Y18738   0.841   6.235   8.704  0.1489  0.4065 -1.1125
  166SOPE  C31418739   0.895   6.420   8.617  0.2724  0.3222  0.1027
  166SOPE  H14X18740   0.900   6.521   8.663  0.7462 -0.4385  1.7985
  166SOPE  H14Y18741   0.826   6.397   8.533  0.0797  0.8448  0.1109
  166SOPE  C31518742   1.038   6.376   8.572  0.0106 -0.8889 -0.2597
  166SOPE  H15X18743   1.113   6.403   8.649  0.2385  1.6640 -1.3000
  166SOPE  H15Y18744   1.068   6.443   8.489  2.0307  3.7476  3.7301
  166SOPE  C31618745   1.041   6.234   8.514 -0.3215 -0.4679 -0.0906
  166SOPE  H16X18746   0.947   6.199   8.466 -0.2153 -0.8049 -0.0526
  166SOPE  H16Y18747   1.079   6.170   8.597  1.2398  1.4663  0.7621
  166SOPE  C31718748   1.159   6.221   8.419 -0.5345  0.0912  0.6449
  166SOPE  H17X18749   1.190   6.114   8.415 -2.5353 -0.5240  0.4829
  166SOPE  H17Y18750   1.247   6.276   8.459  1.0025 -0.5530 -1.6452
  166SOPE  C31818751   1.144   6.276   8.277  0.5157  0.1340  0.8348
  166SOPE  H18X18752   1.046   6.250   8.230  0.0757  0.3850  1.5881
  166SOPE  H18Y18753   1.230   6.245   8.214 -0.7150 -0.9900 -0.3655
  166SOPE  H18Z18754   1.139   6.387   8.280 -1.0324  0.0723  3.1858
  167SOPE     N18755   2.731   4.679   5.796  0.2576  0.3166 -0.6386
  167SOPE   HN118756   2.784   4.629   5.870  1.2630  2.4074  0.1233
  167SOPE   HN218757   2.755   4.638   5.703  1.5835  0.1660 -0.2455
  167SOPE   HN318758   2.769   4.776   5.801  0.0239  0.3498  1.2310
  167SOPE   C1218759   2.572   4.675   5.815 -0.4332  0.2074  0.1530
  167SOPE  H12A18760   2.538   4.570   5.802  0.8311 -0.3847  1.4442
  167SOPE  H12B18761   2.524   4.730   5.731 -1.9497 -0.6637  0.4165
  167SOPE   C1118762   2.528   4.720   5.954 -0.4310  0.0444  0.9040
  167SOPE  H11A18763   2.554   4.656   6.041 -0.9967 -0.6143  0.6029
  167SOPE  H11B18764   2.417   4.725   5.946 -0.5265 -0.3723  1.8031
  167SOPE     P18765   2.501   4.961   6.060  0.2116  0.4096 -0.0577
  167SOPE   O1318766   2.376   4.981   5.987  0.1978  0.0065 -0.3910
  167SOPE   O1418767   2.590   5.078   6.077  0.0645 -0.2282  0.2617
  167SOPE   O1218768   2.583   4.847   5.983  0.8705 -0.4798  0.2497
  167SOPE   O1118769   2.466   4.900   6.205  0.4566 -0.5820 -0.1130
  167SOPE    C118770   2.525   4.793   6.273  0.3354  0.1654 -0.3955
  167SOPE    HA18771   2.615   4.762   6.216 -0.0651 -2.6095  0.3366
  167SOPE    HB18772   2.460   4.704   6.276 -0.2701  0.5860 -0.7473
  167SOPE    C218773   2.569   4.831   6.412  0.5100 -0.5935 -0.5296
  167SOPE    HS18774   2.619   4.736   6.441  2.0641  0.1315 -0.7564
  167SOPE   O2118775   2.463   4.867   6.510 -0.3541  0.2861  0.1798
  167SOPE   C2118776   2.391   4.757   6.559 -0.3399 -0.1589 -0.0715
  167SOPE   O2218777   2.408   4.648   6.518 -0.0661  0.6015  0.2017
  167SOPE   C2218778   2.318   4.797   6.687  0.1074 -0.5951 -0.0403
  167SOPE   H2R18779   2.239   4.722   6.707  0.1168 -0.8014 -0.7330
  167SOPE   H2S18780   2.268   4.894   6.668  1.9657  0.4998  0.3864
  167SOPE    C318781   2.663   4.952   6.394  0.1776 -0.0104  0.4596
  167SOPE    HX18782   2.597   5.034   6.359  1.6471 -0.0686 -2.7431
  167SOPE    HY18783   2.727   4.924   6.307 -1.2676  0.8322 -0.9110
  167SOPE   O3118784   2.742   5.001   6.501 -0.1930  0.2065  0.5330
  167SOPE   C3118785   2.839   4.916   6.546 -0.4245  0.3059 -0.6580
  167SOPE   O3218786   2.886   4.823   6.479 -0.0555 -0.4175  0.2707
  167SOPE   C3218787   2.887   4.971   6.676 -0.8598  0.3235 -0.4008
  167SOPE   H2X18788   2.800   5.008   6.735  0.4260  0.1683  1.7004
  167SOPE   H2Y18789   2.958   5.052   6.652 -0.6770  0.5580  0.8732
  167SOPE   C2318790   2.424   4.815   6.793 -0.1147  0.2510 -0.8240
  167SOPE   H3R18791   2.502   4.888   6.762 -0.1474  0.8494  0.4297
  167SOPE   H3S18792   2.472   4.718   6.819 -1.9892 -0.2315  1.1173
  167SOPE   C2418793   2.359   4.898   6.914  0.2872  0.2802  0.3415
  167SOPE   H4R18794   2.346   5.005   6.886 -1.0064 -0.5138 -2.4665
  167SOPE   H4S18795   2.260   4.851   6.927 -0.4327  1.4122 -0.7486
  167SOPE   C2518796   2.456   4.884   7.030 -0.0520 -0.0419 -0.2630
  167SOPE   H5R18797   2.489   4.779   7.044 -0.5009 -0.3135 -1.1569
  167SOPE   H5S18798   2.547   4.939   6.997 -0.4984  0.7721 -0.1517
  167SOPE   C2618799   2.407   4.960   7.150  0.6669  0.2379 -0.7331
  167SOPE   H6R18800   2.378   5.061   7.114 -2.4729 -1.3935 -3.3268
  167SOPE   H6S18801   2.316   4.911   7.191  0.3424  1.0508 -0.4744
  167SOPE   C2718802   2.511   4.968   7.260 -0.2261  0.6216 -0.1347
  167SOPE   H7R18803   2.569   4.878   7.291 -0.6031  0.6616  0.7210
  167SOPE   H7S18804   2.582   5.046   7.224  0.0210  0.4957  0.0733
  167SOPE   C2818805   2.461   5.025   7.398  0.3736  0.3239 -0.0513
  167SOPE   H8R18806   2.394   5.106   7.364 -0.4328 -0.5118 -0.5126
  167SOPE   H8S18807   2.398   4.943   7.438  0.5596  0.3980  0.3999
  167SOPE   C2918808   2.575   5.072   7.487 -0.2693  0.2906  0.0171
  167SOPE   H9118809   2.632   5.155   7.445 -1.1821  0.1015 -1.6725
  167SOPE  C21018810   2.602   5.030   7.612  0.6307  0.2506 -0.0944
  167SOPE  H10118811   2.684   5.072   7.673 -0.1136  3.1271 -0.9229
  167SOPE  C21118812   2.516   4.927   7.686 -0.2701 -0.1412  0.1819
  167SOPE  H11R18813   2.587   4.841   7.694  3.6130  2.6116 -1.6721
  167SOPE  H11S18814   2.448   4.874   7.616  2.6939 -2.1287 -1.3879
  167SOPE  C21218815   2.469   4.969   7.827 -0.7889 -0.2995  0.1258
  167SOPE  H12R18816   2.386   5.044   7.828  1.5266  2.4422  1.6741
  167SOPE  H12S18817   2.551   5.025   7.876 -0.6779  0.5867 -1.0097
  167SOPE  C21318818   2.435   4.851   7.916 -0.1670  0.0597  0.0717
  167SOPE  H13R18819   2.513   4.775   7.937  0.0944  0.5850  1.0933
  167SOPE  H13S18820   2.358   4.803   7.852  0.6221  0.4784 -1.2068
  167SOPE  C21418821   2.380   4.889   8.049  0.1107  0.1055  0.0108
  167SOPE  H14R18822   2.291   4.953   8.030  0.6478  0.5618 -1.0695
  167SOPE  H14S18823   2.457   4.948   8.104  1.0623  1.7502 -2.8547
  167SOPE  C21518824   2.319   4.763   8.130  0.5747  0.1689  0.3126
  167SOPE  H15R18825   2.251   4.711   8.060  0.5109  1.0660 -0.3200
  167SOPE  H15S18826   2.245   4.804   8.202 -0.3627  1.3937 -1.2826
  167SOPE  C21618827   2.425   4.680   8.205  0.1096  0.2569  0.3431
  167SOPE  H16R18828   2.505   4.652   8.133  1.9009  2.4784  1.3676
  167SOPE  H16S18829   2.381   4.585   8.242  0.6165 -0.6037 -1.1586
  167SOPE  C21718830   2.500   4.740   8.322  0.6542  0.8340 -0.3917
  167SOPE  H17R18831   2.426   4.780   8.394  1.6918  2.1173 -0.0071
  167SOPE  H17S18832   2.548   4.837   8.298 -1.3198  1.3148 -2.7698
  167SOPE  C21818833   2.596   4.644   8.382  0.0145  0.4336 -0.5213
  167SOPE  H18R18834   2.558   4.543   8.408  1.6275  0.0443  0.4808
  167SOPE  H18S18835   2.652   4.684   8.470  0.6615  0.7757 -1.0823
  167SOPE  H18T18836   2.681   4.628   8.314  0.7431 -4.6142  1.1901
  167SOPE   C3318837   2.956   4.861   6.768  0.0643 -0.1908  0.0222
  167SOPE   H3X18838   3.032   4.808   6.706  1.4992  0.3191  1.2683
  167SOPE   H3Y18839   2.880   4.786   6.797 -0.0614 -0.2546 -0.4660
  167SOPE   C3418840   3.025   4.926   6.889  0.3693 -0.4588 -0.0436
  167SOPE   H4X18841   3.069   5.024   6.862 -1.1117  0.5512  1.0068
  167SOPE   H4Y18842   3.102   4.851   6.918  1.2193  0.1730 -0.6038
  167SOPE   C3518843   2.936   4.945   7.008 -0.6440 -0.2704 -0.0060
  167SOPE   H5X18844   2.884   4.848   7.022  0.9138 -1.1463 -0.0999
  167SOPE   H5Y18845   2.864   5.030   7.005 -1.9950 -1.4135 -2.1925
  167SOPE   C3618846   3.033   4.968   7.132 -0.2926 -0.7383 -0.0310
  167SOPE   H6X18847   3.092   5.062   7.128  1.7901 -1.7581  2.8253
  167SOPE   H6Y18848   3.103   4.882   7.139  0.8526  0.1882  0.2888
  167SOPE   C3718849   2.945   4.994   7.255  0.1590 -0.0461 -0.3757
  167SOPE   H7X18850   2.872   4.911   7.264 -1.7372  1.6648  1.1544
  167SOPE   H7Y18851   2.880   5.083   7.238  0.1399  0.2460  1.0567
  167SOPE   C3818852   3.040   5.006   7.376  0.1748  0.4241 -0.4536
  167SOPE   H8X18853   3.072   5.112   7.388 -1.4877  1.0635 -1.2323
  167SOPE   H8Y18854   3.131   4.948   7.352  0.1123  0.3139 -0.4243
  167SOPE   C3918855   2.967   4.949   7.499  0.2265 -0.4182  0.6917
  167SOPE   H9X18856   2.861   4.976   7.479  0.7783  3.6610  2.3229
  167SOPE   H9Y18857   2.990   5.005   7.593 -4.0568 -1.2687  2.4901
  167SOPE  C31018858   2.993   4.797   7.524 -1.0288 -0.5575 -0.3027
  167SOPE  H10X18859   3.100   4.796   7.554 -0.7515 -0.4415 -1.2546
  167SOPE  H10Y18860   2.976   4.755   7.422  1.4247  0.2890 -1.1302
  167SOPE  C31118861   2.900   4.728   7.631 -0.0486 -0.5845  0.0912
  167SOPE  H11X18862   2.903   4.617   7.625 -3.4784 -0.8017  0.6449
  167SOPE  H11Y18863   2.797   4.761   7.604  0.3569 -1.2545 -2.6498
  167SOPE  C31218864   2.921   4.783   7.765 -0.6386 -0.3186 -0.3456
  167SOPE  H12X18865   2.891   4.890   7.768  1.1743  0.2171  0.3112
  167SOPE  H12Y18866   3.030   4.780   7.791 -0.6672  1.0164  0.0601
  167SOPE  C31318867   2.824   4.710   7.862 -0.2654  0.1935  0.0149
  167SOPE  H13X18868   2.867   4.609   7.879  2.0573  1.0773 -0.2013
  167SOPE  H13Y18869   2.719   4.705   7.828 -0.1784 -0.7682 -0.1228
  167SOPE  C31418870   2.832   4.779   7.998 -0.6950  0.5186 -0.1145
  167SOPE  H14X18871   2.749   4.737   8.059 -1.0096  0.7889 -0.3565
  167SOPE  H14Y18872   2.816   4.887   7.980  1.3052  0.9149  0.2686
  167SOPE  C31518873   2.962   4.772   8.075 -0.2559  0.3800  0.0712
  167SOPE  H15X18874   2.954   4.855   8.148  1.3805 -0.6458  1.4736
  167SOPE  H15Y18875   3.043   4.799   8.004  1.0797 -0.9926  1.0191
  167SOPE  C31618876   2.994   4.639   8.138 -0.1748  0.2356 -0.1364
  167SOPE  H16X18877   3.022   4.570   8.055  0.6125 -1.7582  1.6910
  167SOPE  H16Y18878   2.900   4.590   8.172  0.7048 -0.0909  1.9742
  167SOPE  C31718879   3.098   4.642   8.254 -0.1475  0.4347 -0.0270
  167SOPE  H17X18880   3.076   4.742   8.297  2.1149  0.1304  2.0378
  167SOPE  H17Y18881   3.205   4.642   8.225 -0.2080 -2.2232 -0.4465
  167SOPE  C31818882   3.075   4.541   8.371  0.4664  0.1817  0.7670
  167SOPE  H18X18883   2.974   4.559   8.415 -0.1066  3.3370 -1.4597
  167SOPE  H18Y18884   3.158   4.554   8.443  0.1819 -1.8344  1.5323
  167SOPE  H18Z18885   3.093   4.438   8.333  0.6265  0.8837 -1.1975
  168SOPE     N18886   1.542   2.788   6.329  0.5748  0.3355 -0.0435
  168SOPE   HN118887   1.567   2.886   6.305 -2.0452  0.5996 -2.2225
  168SOPE   HN218888   1.536   2.727   6.245  1.0690 -0.4436  0.4675
  168SOPE   HN318889   1.440   2.792   6.351  0.4903  1.7379 -0.5999
  168SOPE   C1218890   1.621   2.732   6.440  0.6103  0.2929 -0.4966
  168SOPE  H12A18891   1.612   2.792   6.533  0.9762 -0.0959 -0.2016
  168SOPE  H12B18892   1.727   2.744   6.408  1.1616  4.2064  2.1004
  168SOPE   C1118893   1.567   2.590   6.476  0.3440  0.1306 -0.5677
  168SOPE  H11A18894   1.460   2.608   6.500  0.2305 -1.9191  0.6493
  168SOPE  H11B18895   1.612   2.546   6.566  0.8494 -0.8305 -1.2766
  168SOPE     P18896   1.509   2.367   6.340  0.2801 -0.1038  0.0354
  168SOPE   O1318897   1.602   2.252   6.349 -0.5297 -0.6376  0.4512
  168SOPE   O1418898   1.434   2.390   6.217  0.2653 -0.7240  0.2409
  168SOPE   O1218899   1.580   2.503   6.364 -0.1393  0.5031 -1.0923
  168SOPE   O1118900   1.405   2.366   6.456  0.5988 -0.2550 -0.7869
  168SOPE    C118901   1.268   2.408   6.433 -0.3442 -0.3953 -1.0071
  168SOPE    HA18902   1.219   2.381   6.337  0.2202 -0.9230 -1.1510
  168SOPE    HB18903   1.264   2.519   6.437  2.5909 -0.2402 -0.4193
  168SOPE    C218904   1.183   2.354   6.554 -0.0782  0.5907  0.2105
  168SOPE    HS18905   1.082   2.401   6.544 -0.9656 -1.6028 -2.8905
  168SOPE   O2118906   1.242   2.376   6.686 -0.1112 -0.3603  0.2275
  168SOPE   C2118907   1.262   2.507   6.714  1.0843  0.3678 -0.0663
  168SOPE   O2218908   1.218   2.600   6.647  0.6548  0.5640 -0.8388
  168SOPE   C2218909   1.346   2.526   6.841 -0.2210 -0.1498 -0.4651
  168SOPE   H2R18910   1.453   2.506   6.818  0.3113 -0.5895  2.0829
  168SOPE   H2S18911   1.329   2.445   6.916  2.1713  0.5404  0.9550
  168SOPE    C318912   1.145   2.199   6.548 -0.2768  1.1894  0.7464
  168SOPE    HX18913   1.240   2.147   6.574 -0.6695  0.9365  1.7149
  168SOPE    HY18914   1.120   2.171   6.443  2.3219  0.6621  0.1844
  168SOPE   O3118915   1.043   2.164   6.649 -0.8874  0.6741 -0.1314
  168SOPE   C3118916   1.020   2.032   6.657 -0.3448  0.2860  0.0557
  168SOPE   O3218917   1.091   1.947   6.605 -0.2323 -0.3580  0.3977
  168SOPE   C3218918   0.907   2.004   6.755  0.4304  0.2099 -0.4188
  168SOPE   H2X18919   0.813   1.978   6.702 -0.1392 -1.6979  1.3957
  168SOPE   H2Y18920   0.890   2.098   6.812 -0.0403  0.2581 -0.6295
  168SOPE   C2318921   1.331   2.671   6.896 -0.3057  0.3095  0.2388
  168SOPE   H3R18922   1.238   2.718   6.858 -0.7919  0.2263  1.2732
  168SOPE   H3S18923   1.414   2.735   6.859 -0.5228  0.1000 -0.6286
  168SOPE   C2418924   1.319   2.666   7.048 -0.1359 -0.3096  0.2761
  168SOPE   H4R18925   1.288   2.761   7.096  1.8262 -0.2918  1.6150
  168SOPE   H4S18926   1.242   2.593   7.080 -0.6639  0.1387  0.0616
  168SOPE   C2518927   1.451   2.628   7.113 -0.1122  0.1688 -0.2311
  168SOPE   H5R18928   1.504   2.547   7.059 -0.2464 -1.7159  2.2902
  168SOPE   H5S18929   1.522   2.714   7.121  2.3610 -1.8012  0.5268
  168SOPE   C2618930   1.444   2.570   7.257  0.3818  0.3629 -0.0284
  168SOPE   H6R18931   1.362   2.495   7.251  0.0230  0.7355  0.1680
  168SOPE   H6S18932   1.535   2.516   7.290  0.6277  0.4465 -0.5564
  168SOPE   C2718933   1.399   2.671   7.366  0.5146 -0.4622 -0.3178
  168SOPE   H7R18934   1.485   2.741   7.363 -0.7311  1.1032 -1.2179
  168SOPE   H7S18935   1.309   2.722   7.326 -0.3876 -0.2157  1.8845
  168SOPE   C2818936   1.387   2.606   7.503  0.1282 -0.5241 -0.7496
  168SOPE   H8R18937   1.297   2.541   7.506  1.5057 -2.4703 -0.0634
  168SOPE   H8S18938   1.477   2.548   7.531 -0.5924 -2.2440 -1.8572
  168SOPE   C2918939   1.375   2.723   7.596  0.1095 -0.1670 -1.1537
  168SOPE   H9118940   1.395   2.826   7.564  2.3578 -0.1863 -0.0208
  168SOPE  C21018941   1.352   2.704   7.729 -0.1181 -0.5506  0.2611
  168SOPE  H10118942   1.360   2.796   7.789 -0.3617 -1.3640  1.5804
  168SOPE  C21118943   1.333   2.573   7.803 -0.2979 -0.1815 -0.2864
  168SOPE  H11R18944   1.406   2.499   7.764  0.9952  0.4207  0.8946
  168SOPE  H11S18945   1.228   2.545   7.781 -0.4148  0.6487 -0.8339
  168SOPE  C21218946   1.342   2.587   7.954 -0.4645  0.0869 -0.2147
  168SOPE  H12R18947   1.446   2.601   7.991 -0.0629 -2.1053 -0.3669
  168SOPE  H12S18948   1.308   2.485   7.983 -2.1993  0.4817 -0.7414
  168SOPE  C21318949   1.240   2.680   8.024  0.0346  0.1135  0.4006
  168SOPE  H13R18950   1.141   2.686   7.973 -1.5644  0.5095  3.3268
  168SOPE  H13S18951   1.273   2.785   8.012 -0.0329  0.2085  1.0197
  168SOPE  C21418952   1.221   2.640   8.170 -0.7618  0.2121 -0.2509
  168SOPE  H14R18953   1.318   2.655   8.223 -0.9641 -0.5460  0.3577
  168SOPE  H14S18954   1.205   2.531   8.186  2.8240 -0.5315 -0.7982
  168SOPE  C21518955   1.117   2.726   8.249  0.6209  0.3383  0.2609
  168SOPE  H15R18956   1.014   2.707   8.212  0.3517 -0.3118  1.3093
  168SOPE  H15S18957   1.130   2.836   8.235 -2.6048  0.8902  0.7171
  168SOPE  C21618958   1.124   2.704   8.399 -0.2989  0.5469 -0.1631
  168SOPE  H16R18959   1.233   2.715   8.420 -0.1729 -1.2060  0.2022
  168SOPE  H16S18960   1.090   2.601   8.421  1.5046 -0.1478 -0.4764
  168SOPE  C21718961   1.029   2.795   8.478 -0.8411 -0.1444  0.1650
  168SOPE  H17R18962   0.924   2.770   8.453 -0.5291 -2.1269  0.6390
  168SOPE  H17S18963   1.051   2.901   8.453  0.9139 -0.0643  1.7410
  168SOPE  C21818964   1.054   2.769   8.626  0.5764 -0.2621  0.0116
  168SOPE  H18R18965   1.160   2.793   8.650  0.3458  1.0697 -0.2518
  168SOPE  H18S18966   1.028   2.662   8.643 -0.3908  0.1411  1.2327
  168SOPE  H18T18967   0.977   2.823   8.685  1.1107 -0.3030  0.7618
  168SOPE   C3318968   0.928   1.880   6.850  0.2347 -0.5488  0.0097
  168SOPE   H3X18969   0.958   1.791   6.791 -1.3226  0.3416 -2.2401
  168SOPE   H3Y18970   0.827   1.863   6.892  0.2348 -0.7903 -0.0896
  168SOPE   C3418971   1.035   1.914   6.961  0.2369 -0.3161 -0.1576
  168SOPE   H4X18972   0.989   1.992   7.025  1.3476 -0.0501  0.3454
  168SOPE   H4Y18973   1.130   1.955   6.920 -0.6126  0.1349 -1.7438
  168SOPE   C3518974   1.058   1.797   7.057  0.8426  0.7017 -1.0069
  168SOPE   H5X18975   1.100   1.705   7.010  0.6380 -1.0486  1.9971
  168SOPE   H5Y18976   0.957   1.760   7.084 -0.1112  1.9730 -2.6415
  168SOPE   C3618977   1.126   1.836   7.192 -0.9278 -0.3869  0.4034
  168SOPE   H6X18978   1.064   1.924   7.222 -0.7146  0.3242 -1.1358
  168SOPE   H6Y18979   1.230   1.874   7.179 -1.6567  2.9179  2.7355
  168SOPE   C3718980   1.123   1.719   7.289  0.4162 -0.0808  0.6209
  168SOPE   H7X18981   1.171   1.631   7.242 -1.4806 -1.4343  1.1212
  168SOPE   H7Y18982   1.020   1.696   7.321  0.5069  0.6087  1.4583
  168SOPE   C3818983   1.204   1.764   7.416 -0.0845  0.6243  0.3420
  168SOPE   H8X18984   1.175   1.865   7.450 -0.8809  0.1086  1.2481
  168SOPE   H8Y18985   1.309   1.771   7.383  0.0745 -2.7558 -0.3108
  168SOPE   C3918986   1.181   1.658   7.532 -0.2587 -0.4017 -0.2343
  168SOPE   H9X18987   1.235   1.563   7.511 -2.2025 -1.2187 -1.7880
  168SOPE   H9Y18988   1.074   1.643   7.555 -0.4068  1.0041  0.0595
  168SOPE  C31018989   1.248   1.707   7.659 -0.1672 -0.1789  0.2394
  168SOPE  H10X18990   1.262   1.817   7.653  2.4210 -0.3994  0.7816
  168SOPE  H10Y18991   1.348   1.658   7.665  0.2342  0.5090 -0.5290
  168SOPE  C31118992   1.165   1.685   7.781 -0.1545  0.0719  0.5134
  168SOPE  H11X18993   1.099   1.596   7.781 -1.4945  1.0445  1.0900
  168SOPE  H11Y18994   1.096   1.771   7.782  0.9902  1.0974 -1.7487
  168SOPE  C31218995   1.253   1.685   7.904 -0.0400 -0.3081 -0.3997
  168SOPE  H12X18996   1.330   1.764   7.889 -2.8915  2.6419 -0.6424
  168SOPE  H12Y18997   1.287   1.580   7.913 -2.0349 -1.0395 -0.8847
  168SOPE  C31318998   1.191   1.721   8.036  0.2480  0.3092 -0.1610
  168SOPE  H13X18999   1.121   1.636   8.054  2.8446 -1.7620  0.8453
  168SOPE  H13Y19000   1.129   1.813   8.032  0.4389  0.4244 -0.4773
  168SOPE  C31419001   1.292   1.736   8.155  0.1564  0.6788 -0.3970
  168SOPE  H14X19002   1.340   1.836   8.158 -0.9490  1.2100  1.4985
  168SOPE  H14Y19003   1.368   1.655   8.149 -0.6652  0.0178 -2.9093
  168SOPE  C31519004   1.225   1.714   8.297 -0.2575  0.3776 -0.1807
  168SOPE  H15X19005   1.162   1.622   8.307  1.0463 -0.4442  0.8522
  168SOPE  H15Y19006   1.161   1.805   8.301 -0.8893  0.1517 -3.0542
  168SOPE  C31619007   1.330   1.721   8.411  0.4941  0.4301  0.0801
  168SOPE  H16X19008   1.409   1.790   8.378  0.1118  0.3783 -0.9603
  168SOPE  H16Y19009   1.381   1.622   8.407 -0.2082 -0.0337  1.5568
  168SOPE  C31719010   1.264   1.733   8.552  0.4150  0.2358  0.7820
  168SOPE  H17X19011   1.182   1.659   8.562  0.0799  0.4476 -0.2945
  168SOPE  H17Y19012   1.221   1.835   8.565 -2.0849 -0.7758  1.1755
  168SOPE  C31819013   1.349   1.704   8.672 -0.4799 -0.2733  0.1115
  168SOPE  H18X19014   1.393   1.602   8.663 -1.2617 -0.6478  0.4803
  168SOPE  H18Y19015   1.288   1.713   8.764 -0.9910  1.5224 -0.3648
  168SOPE  H18Z19016   1.422   1.788   8.679 -0.1688 -0.4042 -1.2301
  169SOPE     N19017   3.918   3.314   6.372  0.4665 -0.0122  0.6546
  169SOPE   HN119018   3.918   3.398   6.311  2.3030 -1.2765 -1.2190
  169SOPE   HN219019   4.012   3.269   6.367 -0.2187 -1.3357 -2.7684
  169SOPE   HN319020   3.842   3.251   6.337  0.6266  0.6136 -0.8720
  169SOPE   C1219021   3.892   3.352   6.518 -0.4614  0.1571  0.5000
  169SOPE  H12A19022   3.905   3.267   6.589 -2.0388 -1.5065 -1.0912
  169SOPE  H12B19023   3.784   3.371   6.533 -0.5522 -0.9006  1.3606
  169SOPE   C1119024   3.956   3.484   6.563 -0.2896 -0.2074  0.9229
  169SOPE  H11A19025   4.064   3.466   6.545 -0.2453  2.1010 -1.6572
  169SOPE  H11B19026   3.934   3.501   6.671 -0.2627  1.7399  0.6504
  169SOPE     P19027   3.817   3.705   6.521  0.4112 -0.2338 -0.7797
  169SOPE   O1319028   3.721   3.731   6.416  0.4166 -0.2980 -0.0885
  169SOPE   O1419029   3.908   3.812   6.560  0.2659 -0.1987  0.3282
  169SOPE   O1219030   3.916   3.591   6.481 -0.1860  0.1164  0.6840
  169SOPE   O1119031   3.741   3.649   6.654  0.9715  0.3364 -0.0050
  169SOPE    C119032   3.662   3.727   6.745  0.1427  0.4994  0.2560
  169SOPE    HA19033   3.587   3.660   6.792  0.4587  0.4756  0.7391
  169SOPE    HB19034   3.608   3.801   6.682 -1.2797 -0.1106  0.7269
  169SOPE    C219035   3.767   3.799   6.839  0.8149 -0.1287  0.0145
  169SOPE    HS19036   3.870   3.788   6.800  0.6703 -0.8388 -0.1678
  169SOPE   O2119037   3.756   3.744   6.968  0.4058 -0.2935  0.3109
  169SOPE   C2119038   3.841   3.651   7.009 -0.5960 -0.3120 -0.0450
  169SOPE   O2219039   3.944   3.607   6.953  0.3290 -0.4252  0.4699
  169SOPE   C2219040   3.802   3.608   7.150  0.5687  0.2499  0.4405
  169SOPE   H2R19041   3.834   3.502   7.161  0.9017  0.0930 -1.6642
  169SOPE   H2S19042   3.695   3.617   7.178  0.5300  0.9388  0.0979
  169SOPE    C319043   3.736   3.950   6.862 -1.0698  0.5773  0.5191
  169SOPE    HX19044   3.763   3.994   6.764  0.8428  1.2225  1.2814
  169SOPE    HY19045   3.811   3.992   6.933  0.6319  0.4572 -1.1239
  169SOPE   O3119046   3.592   3.957   6.887  0.4287  0.3339  0.3357
  169SOPE   C3119047   3.564   4.000   7.000 -0.2269 -0.6720  0.0396
  169SOPE   O3219048   3.644   4.046   7.078 -0.9040  0.0563  0.0995
  169SOPE   C3219049   3.412   3.993   7.020  0.2606  0.0406  0.1751
  169SOPE   H2X19050   3.367   3.911   6.961 -3.5587  0.5692  2.0123
  169SOPE   H2Y19051   3.372   4.091   6.987  0.3676  0.0854  0.1786
  169SOPE   C2319052   3.870   3.699   7.251  0.4878  0.0710  0.3145
  169SOPE   H3R19053   3.963   3.735   7.202  0.4420 -0.1019  0.0981
  169SOPE   H3S19054   3.907   3.642   7.339 -0.1466 -1.9434 -0.6484
  169SOPE   C2419055   3.776   3.810   7.282  0.0358 -0.5698 -1.2028
  169SOPE   H4R19056   3.746   3.850   7.183  0.7257  0.0646 -1.1627
  169SOPE   H4S19057   3.688   3.769   7.336  0.7438 -0.0770  0.3855
  169SOPE   C2519058   3.824   3.932   7.362  0.4669 -0.4357 -0.0147
  169SOPE   H5R19059   3.919   3.970   7.320 -0.6610  1.6497 -0.7975
  169SOPE   H5S19060   3.757   4.014   7.329  0.7522 -0.0736  0.3063
  169SOPE   C2619061   3.806   3.911   7.507  0.3847 -0.6461  0.0607
  169SOPE   H6R19062   3.696   3.902   7.520  0.5772 -1.7508  1.1206
  169SOPE   H6S19063   3.857   3.819   7.543  1.9263  0.1382 -0.0580
  169SOPE   C2719064   3.861   4.019   7.596  0.4843 -0.3413  0.5211
  169SOPE   H7R19065   3.967   4.046   7.574  0.2428  0.4425  0.3064
  169SOPE   H7S19066   3.801   4.109   7.572  1.4649 -0.0324 -0.9300
  169SOPE   C2819067   3.849   3.997   7.749 -0.4377 -0.2049  0.1542
  169SOPE   H8R19068   3.904   3.906   7.780  2.4892  0.9020 -1.4605
  169SOPE   H8S19069   3.898   4.075   7.811 -1.6901 -0.8912  2.1322
  169SOPE   C2919070   3.704   3.992   7.787 -0.0092  0.0985 -0.0235
  169SOPE   H9119071   3.636   4.066   7.742  0.0211  0.4405  0.4797
  169SOPE  C21019072   3.640   3.917   7.879 -0.0011  0.2770 -0.3266
  169SOPE  H10119073   3.530   3.914   7.888 -0.1542 -0.5598 -2.0240
  169SOPE  C21119074   3.715   3.814   7.958  0.0354  1.0661  0.0929
  169SOPE  H11R19075   3.814   3.843   7.998  0.4136 -0.2517  0.1826
  169SOPE  H11S19076   3.727   3.721   7.898  0.4986  0.9295  0.3990
  169SOPE  C21219077   3.636   3.776   8.092  0.2932  0.3723 -0.0528
  169SOPE  H12R19078   3.533   3.746   8.062  0.2046 -0.5508  1.1012
  169SOPE  H12S19079   3.619   3.872   8.146  0.6761  0.3396  0.1281
  169SOPE  C21319080   3.719   3.698   8.183  0.3770  0.7414 -0.5045
  169SOPE  H13R19081   3.821   3.740   8.182  0.3066  0.9955  0.7562
  169SOPE  H13S19082   3.737   3.593   8.152  2.0381 -0.0680  2.7288
  169SOPE  C21419083   3.675   3.701   8.330  0.2909  0.1434 -0.6894
  169SOPE  H14R19084   3.569   3.673   8.345  0.9240 -1.1634  1.7495
  169SOPE  H14S19085   3.692   3.803   8.369  1.4017  0.4741 -1.9380
  169SOPE  C21519086   3.751   3.591   8.410 -0.4904  0.1670  0.4025
  169SOPE  H15R19087   3.742   3.491   8.362 -1.3109  0.7926 -0.7793
  169SOPE  H15S19088   3.715   3.588   8.515  1.9628  1.2870  1.3495
  169SOPE  C21619089   3.904   3.629   8.434  0.2039 -0.3774 -0.1699
  169SOPE  H16R19090   3.911   3.729   8.482 -1.0784  0.8903 -2.4442
  169SOPE  H16S19091   3.956   3.654   8.338  0.9836 -0.1277  0.3100
  169SOPE  C21719092   3.992   3.527   8.502  0.2958  0.0632  0.3541
  169SOPE  H17R19093   4.086   3.582   8.524  0.4876  0.0637 -0.4420
  169SOPE  H17S19094   4.016   3.448   8.428 -1.0683  0.9241 -1.0905
  169SOPE  C21819095   3.936   3.466   8.626 -0.5565 -0.2837  0.2387
  169SOPE  H18R19096   3.923   3.542   8.706  0.9789  1.1635 -0.8139
  169SOPE  H18S19097   4.003   3.393   8.676 -0.3240 -0.4004 -0.2349
  169SOPE  H18T19098   3.836   3.421   8.607 -1.8194  2.0372  0.9375
  169SOPE   C3319099   3.369   3.974   7.169  0.4145 -0.2150  0.6210
  169SOPE   H3X19100   3.425   3.884   7.204 -1.9239 -1.6676  0.8449
  169SOPE   H3Y19101   3.261   3.953   7.176 -0.2517  1.0848 -3.4557
  169SOPE   C3419102   3.378   4.100   7.256  0.3794  0.8265  0.3154
  169SOPE   H4X19103   3.281   4.152   7.249  0.2726  0.4056 -3.4308
  169SOPE   H4Y19104   3.451   4.173   7.215  0.1879  0.6821 -0.2986
  169SOPE   C3519105   3.411   4.069   7.403 -0.1535 -0.0213  0.8387
  169SOPE   H5X19106   3.436   4.168   7.448  1.6889  0.4565 -1.0787
  169SOPE   H5Y19107   3.506   4.011   7.407  1.4151  2.3735  0.9159
  169SOPE   C3619108   3.301   4.004   7.479  0.3212  0.3832  0.0640
  169SOPE   H6X19109   3.284   3.905   7.432  2.1607 -0.9158  2.0047
  169SOPE   H6Y19110   3.211   4.068   7.466 -1.1224 -1.2322  1.6058
  169SOPE   C3719111   3.329   3.992   7.622  0.3370  0.6539 -0.2526
  169SOPE   H7X19112   3.357   4.088   7.671 -1.1922  0.4981  1.0287
  169SOPE   H7Y19113   3.407   3.914   7.635  1.7683  1.5463 -2.8345
  169SOPE   C3819114   3.212   3.931   7.702 -0.0557  0.2837 -0.1184
  169SOPE   H8X19115   3.141   4.012   7.727  1.5538  1.4446  0.8864
  169SOPE   H8Y19116   3.161   3.853   7.642 -0.0463  1.2573 -1.4408
  169SOPE   C3919117   3.256   3.903   7.842 -0.7289 -0.6977 -0.3718
  169SOPE   H9X19118   3.305   3.991   7.888  0.0872 -0.6907 -1.2127
  169SOPE   H9Y19119   3.328   3.817   7.836  2.7184  1.8883  0.6416
  169SOPE  C31019120   3.143   3.840   7.928 -0.6391 -0.2356  0.3438
  169SOPE  H10X19121   3.093   3.758   7.871  1.3692 -0.7482 -0.7705
  169SOPE  H10Y19122   3.064   3.916   7.944 -0.6333  0.1634 -1.3540
  169SOPE  C31119123   3.203   3.784   8.064  0.6992 -0.7754  0.0782
  169SOPE  H11X19124   3.112   3.776   8.127  2.1071  1.4124  2.5901
  169SOPE  H11Y19125   3.269   3.863   8.105  0.5411 -1.6153  2.0672
  169SOPE  C31219126   3.264   3.653   8.047 -0.2769 -0.6523  0.3346
  169SOPE  H12X19127   3.356   3.660   7.984  0.1940  1.2908  1.1784
  169SOPE  H12Y19128   3.195   3.581   7.998 -1.6461  0.3739  0.7058
  169SOPE  C31319129   3.298   3.583   8.175  0.1929 -0.6505 -0.1989
  169SOPE  H13X19130   3.206   3.556   8.231  0.6238 -2.3706 -0.2574
  169SOPE  H13Y19131   3.350   3.650   8.246 -0.0882  0.7825 -1.3092
  169SOPE  C31419132   3.402   3.472   8.161  0.1022 -0.2985 -0.9689
  169SOPE  H14X19133   3.483   3.511   8.225 -0.5481  0.3459 -0.5187
  169SOPE  H14Y19134   3.430   3.459   8.054 -2.1212 -2.0127 -1.4192
  169SOPE  C31519135   3.338   3.340   8.204 -0.0676  0.0496 -0.6238
  169SOPE  H15X19136   3.233   3.337   8.168 -0.4610  0.4550  0.4380
  169SOPE  H15Y19137   3.345   3.330   8.315 -0.0196  1.7202 -0.4430
  169SOPE  C31619138   3.411   3.214   8.152  0.0230 -0.3585  0.0692
  169SOPE  H16X19139   3.442   3.226   8.046  0.7261  0.5155  0.3581
  169SOPE  H16Y19140   3.348   3.125   8.170 -0.6354  0.2684  0.9645
  169SOPE  C31719141   3.549   3.182   8.218 -0.4213  0.2271  0.4276
  169SOPE  H17X19142   3.554   3.160   8.327  0.3467 -0.2180  0.3112
  169SOPE  H17Y19143   3.616   3.269   8.199 -1.0184  0.7650  0.7749
  169SOPE  C31819144   3.614   3.054   8.167 -0.2904  0.1899 -0.1897
  169SOPE  H18X19145   3.632   3.060   8.057 -0.6346  0.2513 -0.2428
  169SOPE  H18Y19146   3.541   2.971   8.180  0.0895 -0.2287 -0.6957
  169SOPE  H18Z19147   3.715   3.029   8.208 -0.6980 -1.8613 -0.2985
  170SOPE     N19148   4.692   1.676   6.268 -0.4930 -0.2030 -0.3009
  170SOPE   HN119149   4.683   1.772   6.308  0.4563  1.4296 -3.6215
  170SOPE   HN219150   4.670   1.601   6.337  1.1559  0.4275  0.9776
  170SOPE   HN319151   4.791   1.658   6.243 -0.7797 -0.8213 -1.0219
  170SOPE   C1219152   4.610   1.665   6.147 -0.1885 -0.2561 -0.4489
  170SOPE  H12A19153   4.581   1.559   6.129  0.7818 -0.8129  1.0188
  170SOPE  H12B19154   4.669   1.700   6.060 -0.5022  2.0354  0.1945
  170SOPE   C1119155   4.476   1.738   6.187  0.6023 -0.4628 -0.3954
  170SOPE  H11A19156   4.407   1.763   6.103  0.0493 -1.5313 -0.2758
  170SOPE  H11B19157   4.491   1.842   6.223 -0.1466 -0.3164 -0.4775
  170SOPE     P19158   4.310   1.549   6.238  0.4501  0.4876 -0.0106
  170SOPE   O1319159   4.398   1.431   6.228  0.1160  0.0762 -0.0242
  170SOPE   O1419160   4.236   1.590   6.118 -0.1392  0.7187 -0.5055
  170SOPE   O1219161   4.405   1.666   6.286 -0.4386 -0.0946  0.1081
  170SOPE   O1119162   4.209   1.534   6.352 -0.0309 -0.3121 -0.1493
  170SOPE    C119163   4.143   1.651   6.404  0.0786  0.5051 -0.1447
  170SOPE    HA19164   4.035   1.649   6.380  0.2293  0.5770 -0.8403
  170SOPE    HB19165   4.169   1.749   6.358 -1.0820  1.3775  0.9939
  170SOPE    C219166   4.135   1.650   6.558 -0.1638  0.5780 -0.5162
  170SOPE    HS19167   4.060   1.728   6.581 -0.7425 -0.1497  0.1322
  170SOPE   O2119168   4.264   1.684   6.620 -0.2805 -0.4616 -0.0657
  170SOPE   C2119169   4.292   1.811   6.613  0.5667 -0.2179 -0.4186
  170SOPE   O2219170   4.218   1.896   6.564 -0.4388 -0.0830 -0.2296
  170SOPE   C2219171   4.428   1.831   6.680 -0.0963  0.4117  0.0823
  170SOPE   H2R19172   4.501   1.809   6.599  0.6578  1.0769  0.5610
  170SOPE   H2S19173   4.439   1.763   6.768 -0.4850 -0.1146 -0.2700
  170SOPE    C319174   4.085   1.519   6.621  0.0336  0.6178  0.1264
  170SOPE    HX19175   4.157   1.438   6.599  1.5051  1.8027  0.4203
  170SOPE    HY19176   3.986   1.483   6.585  1.1191 -0.0794 -2.3299
  170SOPE   O3119177   4.071   1.545   6.761  1.1223 -0.1316 -0.4948
  170SOPE   C3119178   3.950   1.594   6.798 -0.1346  0.9973  0.4265
  170SOPE   O3219179   3.863   1.624   6.715  0.0678 -0.0810 -0.1556
  170SOPE   C3219180   3.951   1.624   6.954 -0.6068 -0.0106 -0.6009
  170SOPE   H2X19181   4.006   1.538   6.998  1.3494  1.5617  0.1893
  170SOPE   H2Y19182   3.843   1.633   6.976 -0.3238  0.5600  0.7037
  170SOPE   C2319183   4.449   1.985   6.726 -0.2468  0.7197  0.7572
  170SOPE   H3R19184   4.433   2.056   6.642 -0.2492 -0.4182 -0.2188
  170SOPE   H3S19185   4.556   1.993   6.755 -0.2539 -1.8886  1.7411
  170SOPE   C2419186   4.351   2.031   6.840 -0.2484  0.1367  0.1159
  170SOPE   H4R19187   4.384   2.134   6.865  0.2435 -0.2520  1.1646
  170SOPE   H4S19188   4.246   2.022   6.808 -0.1583 -1.8239  0.2587
  170SOPE   C2519189   4.356   1.964   6.978 -0.0743 -0.2181  0.5042
  170SOPE   H5R19190   4.276   2.013   7.037  1.3341  1.9317  0.7305
  170SOPE   H5S19191   4.334   1.856   6.961 -0.4649  0.1088 -1.3820
  170SOPE   C2619192   4.487   1.989   7.055 -0.0196 -0.2842 -0.2574
  170SOPE   H6R19193   4.571   1.994   6.983 -1.1385  0.3700 -1.5714
  170SOPE   H6S19194   4.481   2.085   7.109  0.6323 -0.6021  0.3904
  170SOPE   C2719195   4.512   1.873   7.162 -0.6613  0.0606  0.6458
  170SOPE   H7R19196   4.413   1.839   7.200 -1.8174  2.1090 -0.3238
  170SOPE   H7S19197   4.549   1.790   7.099 -1.5277 -0.4426  0.7772
  170SOPE   C2819198   4.617   1.910   7.269  0.4394  0.2979  0.5349
  170SOPE   H8R19199   4.644   1.815   7.320  0.5659  0.6236  1.0843
  170SOPE   H8S19200   4.707   1.929   7.208  0.8170  0.7889  1.2343
  170SOPE   C2919201   4.587   2.024   7.364  0.0611 -0.1831  0.4088
  170SOPE   H9119202   4.609   2.123   7.320 -1.9281  0.2783  0.3577
  170SOPE  C21019203   4.543   2.011   7.488  0.0016  0.5039 -0.0839
  170SOPE  H10119204   4.510   2.103   7.537 -1.5255 -0.1467  0.1645
  170SOPE  C21119205   4.508   1.877   7.559 -0.0904 -0.2819 -0.4982
  170SOPE  H11R19206   4.522   1.790   7.492  2.2013  1.2810 -2.2056
  170SOPE  H11S19207   4.401   1.876   7.591  0.0109 -0.2467 -0.1490
  170SOPE  C21219208   4.603   1.850   7.683 -0.1534 -0.1906 -0.7864
  170SOPE  H12R19209   4.711   1.875   7.681  0.1026 -1.0453  1.1603
  170SOPE  H12S19210   4.612   1.740   7.693  0.1926 -0.3607 -2.6242
  170SOPE  C21319211   4.539   1.897   7.807  0.3240 -0.2341 -0.8751
  170SOPE  H13R19212   4.432   1.867   7.802  0.7809 -2.3128  0.5878
  170SOPE  H13S19213   4.549   2.005   7.830 -0.5433 -0.7602  2.5633
  170SOPE  C21419214   4.602   1.828   7.929  0.7644 -1.0074 -0.2839
  170SOPE  H14R19215   4.702   1.872   7.950 -0.1865  0.5079  1.3007
  170SOPE  H14S19216   4.607   1.718   7.912 -1.6690 -1.4928  1.5690
  170SOPE  C21519217   4.509   1.843   8.051  1.0126  0.4286  0.4251
  170SOPE  H15R19218   4.422   1.781   8.021  0.3203  0.2884  2.5174
  170SOPE  H15S19219   4.471   1.948   8.058  0.0077  0.0936  0.1195
  170SOPE  C21619220   4.570   1.787   8.181  0.0321 -0.2422 -0.8509
  170SOPE  H16R19221   4.504   1.818   8.265 -0.2230 -0.8171 -0.8352
  170SOPE  H16S19222   4.674   1.826   8.191  0.1363 -0.4168 -1.2403
  170SOPE  C21719223   4.597   1.636   8.191 -0.0993  0.1770  1.0426
  170SOPE  H17R19224   4.676   1.607   8.119 -0.4454  1.9285 -0.1344
  170SOPE  H17S19225   4.514   1.576   8.147 -0.7020  0.4226  1.8169
  170SOPE  C21819226   4.631   1.576   8.328 -0.0977  0.2625  0.3441
  170SOPE  H18R19227   4.682   1.478   8.324  0.4615  0.5539  0.1341
  170SOPE  H18S19228   4.543   1.558   8.393  1.8659 -2.1743  2.5783
  170SOPE  H18T19229   4.698   1.640   8.390 -0.5801  2.1088 -0.9458
  170SOPE   C3319230   4.023   1.749   7.010  0.2026 -0.7186  0.1457
  170SOPE   H3X19231   3.972   1.838   6.966  0.2790 -1.3351 -1.2505
  170SOPE   H3Y19232   4.129   1.748   6.976 -0.2227 -0.6916 -1.2408
  170SOPE   C3419233   4.003   1.769   7.159 -0.6421  0.4181  0.5256
  170SOPE   H4X19234   4.050   1.693   7.225  2.9176  2.8725  1.1465
  170SOPE   H4Y19235   3.896   1.782   7.185 -0.9467 -0.4775 -0.2270
  170SOPE   C3519236   4.077   1.891   7.208  0.0220 -0.8964 -0.0484
  170SOPE   H5X19237   4.053   1.978   7.144  1.1414 -0.7793 -0.3432
  170SOPE   H5Y19238   4.188   1.883   7.213  0.3273  2.5754  2.3237
  170SOPE   C3619239   4.036   1.926   7.362 -0.9506 -0.3946 -0.3349
  170SOPE   H6X19240   3.930   1.903   7.384 -0.6669 -0.4075  1.1039
  170SOPE   H6Y19241   4.051   2.036   7.364  0.9283 -0.5970 -1.4311
  170SOPE   C3719242   4.117   1.846   7.462 -0.3078  0.1823 -0.1818
  170SOPE   H7X19243   4.188   1.922   7.502 -0.0706  0.3276 -0.8621
  170SOPE   H7Y19244   4.171   1.770   7.402 -1.3315  0.5377 -1.6028
  170SOPE   C3819245   4.037   1.766   7.566  1.0343 -1.4316  0.2207
  170SOPE   H8X19246   3.996   1.674   7.521  2.5766 -1.6986 -0.7096
  170SOPE   H8Y19247   3.954   1.827   7.609  0.6490 -0.8806 -1.2439
  170SOPE   C3919248   4.118   1.727   7.689 -0.1093  0.5322  0.3621
  170SOPE   H9X19249   4.156   1.823   7.730  1.7544  0.4487 -1.0731
  170SOPE   H9Y19250   4.202   1.660   7.663 -0.0288  1.0033 -0.5982
  170SOPE  C31019251   4.048   1.666   7.808 -0.2028  0.2317  0.7972
  170SOPE  H10X19252   4.028   1.559   7.784  2.9021  0.4803 -4.6811
  170SOPE  H10Y19253   3.957   1.718   7.844 -0.5746 -0.1334  0.4020
  170SOPE  C31119254   4.137   1.671   7.941 -0.5621 -0.0326  1.0397
  170SOPE  H11X19255   4.157   1.779   7.959  0.7209  0.3500 -2.0613
  170SOPE  H11Y19256   4.232   1.615   7.929 -0.0581  1.0777 -0.3677
  170SOPE  C31219257   4.071   1.620   8.065 -0.3608 -0.1107  0.0387
  170SOPE  H12X19258   4.021   1.522   8.048  1.7337 -1.1559 -0.4632
  170SOPE  H12Y19259   3.990   1.690   8.094  0.6928  1.4174 -0.5605
  170SOPE  C31319260   4.166   1.606   8.183  0.6991 -0.2393  0.0053
  170SOPE  H13X19261   4.221   1.703   8.188  0.0199  0.1490 -0.0510
  170SOPE  H13Y19262   4.238   1.527   8.152  0.8853  0.4168 -1.2951
  170SOPE  C31419263   4.102   1.559   8.320 -0.1260  0.1436 -0.2655
  170SOPE  H14X19264   4.174   1.489   8.368 -0.6451 -0.5802 -0.5282
  170SOPE  H14Y19265   4.013   1.494   8.304  0.3716 -0.5500 -0.2613
  170SOPE  C31519266   4.064   1.666   8.433  0.8635 -0.3058 -0.2575
  170SOPE  H15X19267   4.014   1.610   8.515  1.6156  0.6684  0.9149
  170SOPE  H15Y19268   3.991   1.742   8.399  1.4533  0.0420 -0.7616
  170SOPE  C31619269   4.185   1.747   8.488  0.2538 -0.1577 -0.1793
  170SOPE  H16X19270   4.148   1.822   8.561  0.4348 -0.0296 -0.2170
  170SOPE  H16Y19271   4.234   1.811   8.411 -0.6114  1.9354  0.9344
  170SOPE  C31719272   4.287   1.664   8.569 -0.6651  0.1940  0.6718
  170SOPE  H17X19273   4.328   1.578   8.512  1.3341  1.7626 -0.3666
  170SOPE  H17Y19274   4.243   1.623   8.663  0.7157 -3.2214 -0.0091
  170SOPE  C31819275   4.408   1.741   8.606 -0.0436  0.4238 -0.2585
  170SOPE  H18X19276   4.366   1.833   8.653 -1.2572 -0.8200  1.1697
  170SOPE  H18Y19277   4.460   1.776   8.514  0.7600 -1.7068 -0.6771
  170SOPE  H18Z19278   4.485   1.686   8.665  0.9371  2.0650  0.0622
  171SOPE     N19279   4.278   6.433   6.461 -0.5527  0.0539 -0.0635
  171SOPE   HN119280   4.259   6.521   6.512  1.7657  0.5191  0.0936
  171SOPE   HN219281   4.378   6.434   6.433 -0.1806  1.9570  1.2121
  171SOPE   HN319282   4.217   6.431   6.377  0.8565 -3.8409 -1.2056
  171SOPE   C1219283   4.251   6.319   6.552  0.3199 -0.6794 -0.0186
  171SOPE  H12A19284   4.293   6.347   6.651 -0.6190  2.6906 -0.4556
  171SOPE  H12B19285   4.299   6.226   6.516  1.4317 -0.2316  0.2610
  171SOPE   C1119286   4.101   6.307   6.572 -0.7230  0.5659  0.0888
  171SOPE  H11A19287   4.077   6.402   6.624  1.5501  1.0129  0.3981
  171SOPE  H11B19288   4.090   6.217   6.637 -0.4672 -0.4740 -1.2546
  171SOPE     P19289   3.950   6.400   6.373 -0.2717 -0.1266 -0.4060
  171SOPE   O1319290   3.875   6.346   6.258 -0.2827 -0.7855  0.1611
  171SOPE   O1419291   4.049   6.505   6.332 -0.0811  0.0949 -0.8343
  171SOPE   O1219292   4.022   6.284   6.453  0.4872 -0.0745  0.5004
  171SOPE   O1119293   3.855   6.460   6.478  0.3597  0.3793  0.8266
  171SOPE    C119294   3.715   6.422   6.487  0.1545  0.4981 -0.2870
  171SOPE    HA19295   3.698   6.325   6.436 -1.7597  1.4229 -1.5462
  171SOPE    HB19296   3.653   6.503   6.442 -1.4809 -1.7049 -2.2388
  171SOPE    C219297   3.674   6.395   6.631 -0.1516  0.0282 -1.2212
  171SOPE    HS19298   3.732   6.472   6.686  0.9289 -0.2664 -1.9181
  171SOPE   O2119299   3.724   6.264   6.666 -0.1668  0.1516 -0.1427
  171SOPE   C2119300   3.799   6.245   6.772 -0.6754 -0.8449 -0.2747
  171SOPE   O2219301   3.862   6.339   6.826 -0.0722  0.1127  0.2085
  171SOPE   C2219302   3.786   6.108   6.830  0.0879  0.1139  0.4427
  171SOPE   H2R19303   3.750   6.045   6.746  0.0683  0.7106 -0.0033
  171SOPE   H2S19304   3.698   6.110   6.898 -1.3604 -0.8599 -1.3332
  171SOPE    C319305   3.516   6.420   6.652 -0.1593  0.1200 -0.8118
  171SOPE    HX19306   3.455   6.343   6.599 -1.0876 -0.5580  1.1215
  171SOPE    HY19307   3.494   6.516   6.601 -2.6035  0.1830  0.1875
  171SOPE   O3119308   3.486   6.431   6.796  0.2699  0.0769  0.0227
  171SOPE   C3119309   3.458   6.322   6.849  0.2887  0.0694 -0.1429
  171SOPE   O3219310   3.437   6.214   6.798 -0.0779  0.3836  0.0338
  171SOPE   C3219311   3.470   6.348   6.997  0.1029 -0.2226  0.2252
  171SOPE   H2X19312   3.441   6.247   7.033  0.4957 -0.7190 -0.8049
  171SOPE   H2Y19313   3.398   6.426   7.028  1.1741  0.2902  1.5535
  171SOPE   C2319314   3.916   6.056   6.895  0.4086 -0.9015 -0.3526
  171SOPE   H3R19315   3.968   6.135   6.954  0.9928 -0.7549 -1.0403
  171SOPE   H3S19316   3.978   6.047   6.803 -0.2024  1.0258 -0.9980
  171SOPE   C2419317   3.909   5.929   6.974 -0.1322  0.0142 -0.1008
  171SOPE   H4R19318   3.884   5.855   6.895  1.0379 -0.0203 -0.4576
  171SOPE   H4S19319   4.011   5.897   7.006 -0.4455 -1.4840 -0.4965
  171SOPE   C2519320   3.813   5.918   7.090 -0.1799 -0.1752 -0.5880
  171SOPE   H5R19321   3.730   5.986   7.060  0.4712  0.7522 -0.3489
  171SOPE   H5S19322   3.793   5.810   7.105 -0.2093  0.0630  1.3469
  171SOPE   C2619323   3.870   5.963   7.233  0.4473 -0.0349  0.7866
  171SOPE   H6R19324   3.969   5.911   7.239 -0.0685 -1.2954 -0.7031
  171SOPE   H6S19325   3.865   6.074   7.236 -2.1328 -0.1309  2.1829
  171SOPE   C2719326   3.787   5.904   7.348 -1.0570 -0.2202 -0.3823
  171SOPE   H7R19327   3.682   5.923   7.317 -0.7094  0.3728 -1.2280
  171SOPE   H7S19328   3.792   5.797   7.378 -0.6273  0.2177  1.2385
  171SOPE   C2819329   3.815   5.986   7.469 -0.1268 -0.5971 -0.1906
  171SOPE   H8R19330   3.831   6.090   7.434  1.9067 -0.2472  1.5619
  171SOPE   H8S19331   3.731   5.984   7.542  1.5472  2.1534  1.9768
  171SOPE   C2919332   3.949   5.933   7.532  0.5865  0.4618 -0.0636
  171SOPE   H9119333   4.041   5.950   7.474 -0.6490  1.0119 -1.9390
  171SOPE  C21019334   3.960   5.854   7.639 -0.1023  0.6992 -0.8091
  171SOPE  H10119335   4.059   5.825   7.676 -0.4436  0.4768 -0.0249
  171SOPE  C21119336   3.843   5.805   7.725  0.3075  0.1853  0.4421
  171SOPE  H11R19337   3.845   5.694   7.733 -0.9370  0.1962  1.0893
  171SOPE  H11S19338   3.743   5.824   7.681 -0.8542 -1.5553  2.1026
  171SOPE  C21219339   3.836   5.864   7.868 -0.6916 -0.5197 -0.1248
  171SOPE  H12R19340   3.932   5.883   7.919 -0.4874 -0.4857 -0.5188
  171SOPE  H12S19341   3.783   5.790   7.932 -0.6988 -1.8003 -1.5371
  171SOPE  C21319342   3.750   5.985   7.892  0.2268 -0.8681  0.0582
  171SOPE  H13R19343   3.648   5.948   7.867 -0.7240  1.4815  0.2142
  171SOPE  H13S19344   3.773   6.075   7.832  0.1783 -1.3139 -0.6510
  171SOPE  C21419345   3.761   6.030   8.036 -0.5377  0.2577  0.5803
  171SOPE  H14R19346   3.867   6.053   8.057 -0.3172 -0.9468  0.8666
  171SOPE  H14S19347   3.730   5.946   8.103  1.2202  0.0017  1.1171
  171SOPE  C21519348   3.677   6.152   8.057 -0.0820  0.6440  0.3424
  171SOPE  H15R19349   3.569   6.137   8.040 -0.2020 -0.4166  1.8931
  171SOPE  H15S19350   3.704   6.225   7.977 -0.3757  2.4309  1.7980
  171SOPE  C21619351   3.707   6.224   8.189 -0.6425  0.4173  0.0284
  171SOPE  H16R19352   3.816   6.209   8.201 -0.8617 -0.0559  1.6394
  171SOPE  H16S19353   3.665   6.167   8.275 -0.7888 -0.8303 -0.8434
  171SOPE  C21719354   3.673   6.370   8.178  0.3623 -0.3011 -0.3183
  171SOPE  H17R19355   3.588   6.382   8.108 -0.2280  0.2529  0.4803
  171SOPE  H17S19356   3.758   6.428   8.137  0.4087  0.0694  0.2897
  171SOPE  C21819357   3.643   6.431   8.311  0.0966 -0.1955 -0.3662
  171SOPE  H18R19358   3.730   6.438   8.379  0.5241  0.5429 -0.9723
  171SOPE  H18S19359   3.563   6.379   8.367 -0.0517  2.5218  2.2091
  171SOPE  H18T19360   3.611   6.536   8.294 -0.0064 -0.4450 -1.8233
  171SOPE   C3319361   3.609   6.380   7.051 -0.1275  0.9872 -0.2883
  171SOPE   H3X19362   3.622   6.487   7.026 -1.8367  0.3997 -4.5054
  171SOPE   H3Y19363   3.684   6.317   7.001 -0.2827  0.5531  0.0156
  171SOPE   C3419364   3.636   6.373   7.205  0.6024  0.2107  0.1934
  171SOPE   H4X19365   3.583   6.455   7.259  0.5859  0.1267  0.3041
  171SOPE   H4Y19366   3.745   6.386   7.220  0.7042 -2.4187  2.5846
  171SOPE   C3519367   3.605   6.241   7.269 -0.0835 -0.1675  0.3330
  171SOPE   H5X19368   3.674   6.163   7.230  0.3265  0.0433  0.6393
  171SOPE   H5Y19369   3.505   6.207   7.233  0.5591 -1.3126 -0.4561
  171SOPE   C3619370   3.597   6.243   7.423 -1.3466 -0.0058  0.8750
  171SOPE   H6X19371   3.699   6.255   7.467 -0.8982 -0.6996  0.0579
  171SOPE   H6Y19372   3.559   6.143   7.452  2.2333 -1.1103  2.3615
  171SOPE   C3719373   3.512   6.355   7.493 -0.3440  0.9626  0.4744
  171SOPE   H7X19374   3.414   6.332   7.446 -0.1861 -1.5807  1.2219
  171SOPE   H7Y19375   3.539   6.459   7.465 -3.4055  1.4412 -1.0987
  171SOPE   C3819376   3.497   6.355   7.643 -0.5120 -0.4178  0.3543
  171SOPE   H8X19377   3.437   6.444   7.674  1.0498  0.8015  0.0248
  171SOPE   H8Y19378   3.596   6.386   7.681 -0.2469  0.0012 -0.6425
  171SOPE   C3919379   3.458   6.218   7.701  0.7806  0.5704 -0.4558
  171SOPE   H9X19380   3.537   6.149   7.735 -1.2113 -1.3468  0.5602
  171SOPE   H9Y19381   3.390   6.162   7.633 -0.4380  0.1657  1.0259
  171SOPE  C31019382   3.358   6.234   7.825  0.0370 -0.7995  0.0324
  171SOPE  H10X19383   3.280   6.307   7.795  0.4713 -0.2735  0.1624
  171SOPE  H10Y19384   3.401   6.275   7.919 -1.9886 -1.1992  1.1918
  171SOPE  C31119385   3.299   6.100   7.859 -0.7130 -0.5218 -0.3711
  171SOPE  H11X19386   3.380   6.025   7.869 -0.2134  0.1396  0.7785
  171SOPE  H11Y19387   3.237   6.072   7.772 -1.6265 -0.3589  0.2107
  171SOPE  C31219388   3.212   6.087   7.988 -0.2597  0.1819 -0.5553
  171SOPE  H12X19389   3.108   6.126   7.979 -0.0040  1.5314  1.5767
  171SOPE  H12Y19390   3.261   6.145   8.069  1.6771 -2.3260  0.2271
  171SOPE  C31319391   3.201   5.940   8.034 -0.2979  0.4089 -0.3266
  171SOPE  H13X19392   3.295   5.907   8.083 -0.3156  1.4025  0.3894
  171SOPE  H13Y19393   3.192   5.872   7.946  2.7270  1.0647 -1.2378
  171SOPE  C31419394   3.092   5.913   8.143 -0.6733  0.4463 -0.0229
  171SOPE  H14X19395   3.086   5.803   8.127 -2.1945  0.6279 -1.0106
  171SOPE  H14Y19396   2.997   5.966   8.118  1.0636  4.3165  0.8939
  171SOPE  C31519397   3.146   5.942   8.283 -0.5989 -0.6774 -0.5229
  171SOPE  H15X19398   3.178   6.048   8.289 -0.3521 -0.7694 -0.1907
  171SOPE  H15Y19399   3.237   5.881   8.293  0.4876  0.9963  0.2338
  171SOPE  C31619400   3.051   5.898   8.402  0.3470 -0.0459 -0.2369
  171SOPE  H16X19401   3.096   5.922   8.500  0.1532 -1.7589  0.3044
  171SOPE  H16Y19402   3.028   5.789   8.409  1.8193 -0.2853  1.3404
  171SOPE  C31719403   2.910   5.968   8.401 -0.1699 -0.0852  0.8184
  171SOPE  H17X19404   2.867   5.912   8.315  2.6952  0.1945 -0.9321
  171SOPE  H17Y19405   2.919   6.073   8.365 -0.5757 -0.5954 -0.8381
  171SOPE  C31819406   2.825   5.957   8.524  0.2470  0.0140 -0.2215
  171SOPE  H18X19407   2.814   5.850   8.551  0.1302 -0.4170 -1.8725
  171SOPE  H18Y19408   2.732   6.015   8.505 -0.0122 -0.4852 -0.4833
  171SOPE  H18Z19409   2.871   6.010   8.611 -0.0493  1.4762 -0.9223
  172SOPE     N19410   4.692   0.299   6.498  0.1943 -0.2208  0.2870
  172SOPE   HN119411   4.706   0.396   6.464 -1.7391 -0.4332 -1.2841
  172SOPE   HN219412   4.724   0.238   6.420  0.3880  2.4675 -1.8609
  172SOPE   HN319413   4.588   0.290   6.504  0.0573  1.2075  0.2733
  172SOPE   C1219414   4.768   0.270   6.626 -0.2228 -0.1481  0.2093
  172SOPE  H12A19415   4.746   0.357   6.691  1.0178 -0.7748  1.5254
  172SOPE  H12B19416   4.876   0.272   6.599 -0.1233 -1.0320  0.5141
  172SOPE   C1119417   4.728   0.128   6.674 -0.7228 -0.3478  0.1295
  172SOPE  H11A19418   4.622   0.137   6.706 -0.2102 -0.8070  2.1095
  172SOPE  H11B19419   4.777   0.107   6.772  0.0062  0.8724  0.0403
  172SOPE     P19420   4.842  -0.063   6.537 -0.0174 -0.1462  0.2042
  172SOPE   O1319421   4.941   0.016   6.459 -0.6494  0.3205 -0.3679
  172SOPE   O1419422   4.780  -0.185   6.469 -0.0891 -0.5655  0.3271
  172SOPE   O1219423   4.722   0.025   6.581 -0.0797 -0.1107  0.5884
  172SOPE   O1119424   4.905  -0.096   6.675 -0.1177 -0.1796 -0.1500
  172SOPE    C119425   4.864  -0.220   6.729  0.8980  0.4590 -0.0885
  172SOPE    HA19426   4.932  -0.249   6.812  1.3981  2.8483  0.3998
  172SOPE    HB19427   4.868  -0.306   6.659 -3.4452  1.0478 -1.3101
  172SOPE    C219428   4.725  -0.214   6.804 -0.5665 -0.2666  0.4804
  172SOPE    HS19429   4.647  -0.176   6.734 -1.9704  1.2316  2.7134
  172SOPE   O2119430   4.754  -0.129   6.915 -0.1470 -0.0546  0.0113
  172SOPE   C2119431   4.641  -0.078   6.975 -0.1438  0.5937  0.3184
  172SOPE   O2219432   4.532  -0.083   6.924  0.6348 -0.6830  0.1837
  172SOPE   C2219433   4.688  -0.012   7.106 -0.5241 -0.4086 -0.3745
  172SOPE   H2R19434   4.738   0.085   7.083  0.0304 -0.2646  1.3179
  172SOPE   H2S19435   4.771  -0.075   7.145  0.8181  1.4369 -0.1359
  172SOPE    C319436   4.699  -0.361   6.837  0.3143  0.8536 -0.1208
  172SOPE    HX19437   4.668  -0.395   6.736 -0.8290 -1.4496  0.9352
  172SOPE    HY19438   4.611  -0.367   6.904 -0.2694 -2.7777 -0.9590
  172SOPE   O3119439   4.822  -0.429   6.891  0.6938 -0.3710 -0.9672
  172SOPE   C3119440   4.809  -0.450   7.022  0.5725  0.1912  0.4021
  172SOPE   O3219441   4.727  -0.396   7.098 -0.1058  0.3022 -0.1376
  172SOPE   C3219442   4.928  -0.537   7.058 -0.0943  0.4878 -0.2668
  172SOPE   H2X19443   4.999  -0.462   7.100  0.7165 -0.3777 -0.0717
  172SOPE   H2Y19444   4.971  -0.582   6.966  0.9962  0.2798  0.3316
  172SOPE   C2319445   4.570  -0.010   7.201  0.1281  0.9777  0.1504
  172SOPE   H3R19446   4.536  -0.115   7.215 -1.3302  1.6067  1.6269
  172SOPE   H3S19447   4.491   0.056   7.159 -0.1443 -0.0249 -0.9834
  172SOPE   C2419448   4.613   0.057   7.335 -0.3741 -0.3617  0.3633
  172SOPE   H4R19449   4.715   0.027   7.366  1.3971  0.9883 -3.4900
  172SOPE   H4S19450   4.620   0.166   7.318  1.2178 -0.8792 -3.4958
  172SOPE   C2519451   4.521   0.019   7.447 -1.1568 -0.0625 -0.5221
  172SOPE   H5R19452   4.422   0.055   7.412 -1.2669 -1.1586 -1.4015
  172SOPE   H5S19453   4.507  -0.090   7.462 -1.4901  0.2567  1.9679
  172SOPE   C2619454   4.564   0.073   7.591  0.1496  0.4778  0.2577
  172SOPE   H6R19455   4.635   0.004   7.642  1.2949  0.0296 -1.8007
  172SOPE   H6S19456   4.618   0.168   7.571 -1.2110  1.0250 -1.0239
  172SOPE   C2719457   4.450   0.117   7.685  0.9609 -0.5910 -0.0026
  172SOPE   H7R19458   4.378   0.193   7.648  0.0439 -0.9496  1.0099
  172SOPE   H7S19459   4.383   0.028   7.693  0.4639 -0.2332 -0.1648
  172SOPE   C2819460   4.502   0.163   7.827 -0.7074  0.4067 -0.0881
  172SOPE   H8R19461   4.575   0.082   7.845  1.9603  2.8189  0.7522
  172SOPE   H8S19462   4.554   0.261   7.828 -0.6243  0.3795 -1.3037
  172SOPE   C2919463   4.383   0.170   7.923 -0.3074  0.2858 -0.1956
  172SOPE   H9119464   4.318   0.257   7.907  0.5326  0.8526 -0.5862
  172SOPE  C21019465   4.338   0.085   8.020 -0.0971 -0.2564 -0.3173
  172SOPE  H10119466   4.248   0.109   8.078 -0.2975  0.0538 -0.7532
  172SOPE  C21119467   4.402  -0.037   8.072  0.1705  0.0882 -0.9687
  172SOPE  H11R19468   4.467  -0.067   7.987  1.3402  2.5603 -1.0545
  172SOPE  H11S19469   4.323  -0.112   8.093  1.1558 -0.5413  0.6127
  172SOPE  C21219470   4.495  -0.014   8.193  0.3510 -0.3259 -0.0148
  172SOPE  H12R19471   4.590   0.038   8.172  0.6769 -0.4357  1.1147
  172SOPE  H12S19472   4.521  -0.121   8.211 -0.0488 -0.5426 -0.6815
  172SOPE  C21319473   4.420   0.046   8.307  0.4779 -0.0112  0.7903
  172SOPE  H13R19474   4.320  -0.003   8.305 -0.5920  2.0961  0.2290
  172SOPE  H13S19475   4.411   0.155   8.290  1.9038  0.0779  0.5151
  172SOPE  C21419476   4.488   0.030   8.447  0.5376  0.0546 -0.0478
  172SOPE  H14R19477   4.492  -0.079   8.468 -0.6695 -0.3515 -1.6898
  172SOPE  H14S19478   4.422   0.078   8.524 -0.7236  0.3423 -1.2514
  172SOPE  C21519479   4.629   0.096   8.440  0.2122 -0.6470  0.0578
  172SOPE  H15R19480   4.623   0.203   8.410 -1.1998 -1.1225 -1.5524
  172SOPE  H15S19481   4.698   0.054   8.364  1.0530 -0.4282  0.6819
  172SOPE  C21619482   4.701   0.089   8.574  0.1494  0.3533 -0.4002
  172SOPE  H16R19483   4.688  -0.015   8.612 -4.7359  0.9996  0.4058
  172SOPE  H16S19484   4.646   0.150   8.649 -2.4872 -4.5332  2.1611
  172SOPE  C21719485   4.853   0.116   8.562  0.0158 -0.5265 -0.1392
  172SOPE  H17R19486   4.875   0.058   8.470  1.4652 -1.8292  0.9727
  172SOPE  H17S19487   4.914   0.078   8.646 -0.1250  0.0818  0.2430
  172SOPE  C21819488   4.891   0.267   8.561  0.1569  0.3016 -0.1252
  172SOPE  H18R19489   4.997   0.291   8.535  0.3548  1.5851  1.6725
  172SOPE  H18S19490   4.881   0.318   8.660  0.8020  1.1328 -0.4730
  172SOPE  H18T19491   4.822   0.318   8.491  0.4162  0.7560 -0.0605
  172SOPE   C3319492   4.892  -0.637   7.166 -0.0607 -0.4520 -0.2841
  172SOPE   H3X19493   4.815  -0.701   7.120 -1.2571  1.0667 -0.4593
  172SOPE   H3Y19494   4.841  -0.586   7.251 -0.3611 -0.6240 -0.3627
  172SOPE   C3419495   5.021  -0.702   7.204 -0.3828 -0.0683 -0.8445
  172SOPE   H4X19496   5.098  -0.625   7.223 -2.5049  2.2242 -1.0032
  172SOPE   H4Y19497   5.054  -0.761   7.115 -2.1975 -1.6730 -0.5398
  172SOPE   C3519498   4.991  -0.788   7.331  0.1479  0.0095 -0.2454
  172SOPE   H5X19499   5.069  -0.867   7.340  1.2263  1.2518  2.2106
  172SOPE   H5Y19500   4.895  -0.842   7.321  0.1150 -0.1717  0.9789
  172SOPE   C3619501   5.008  -0.713   7.463 -0.1553 -0.1442  0.2155
  172SOPE   H6X19502   4.939  -0.629   7.485  2.1577  1.2638  2.7702
  172SOPE   H6Y19503   5.106  -0.659   7.458  0.3365 -1.0403 -0.0579
  172SOPE   C3719504   5.029  -0.791   7.595  0.5823  0.1457 -0.0345
  172SOPE   H7X19505   5.114  -0.861   7.587  2.2325  1.6396  2.7885
  172SOPE   H7Y19506   4.931  -0.842   7.611  0.2474  1.3905  2.4644
  172SOPE   C3819507   5.051  -0.713   7.721  0.0517 -0.1019  0.5936
  172SOPE   H8X19508   4.962  -0.649   7.736 -0.9836 -1.4916  0.5221
  172SOPE   H8Y19509   5.138  -0.646   7.701 -0.8982  0.9457 -0.1433
  172SOPE   C3919510   5.087  -0.809   7.838  0.0050 -0.0195  0.4841
  172SOPE   H9X19511   5.194  -0.837   7.831 -0.3008 -0.7753 -2.2815
  172SOPE   H9Y19512   5.024  -0.899   7.823 -0.5267  0.4987 -0.5077
  172SOPE  C31019513   5.072  -0.736   7.971  0.7714  0.7493  0.2510
  172SOPE  H10X19514   4.964  -0.734   7.992  0.8195 -0.1289  0.6297
  172SOPE  H10Y19515   5.102  -0.630   7.958 -0.0602  0.7526 -2.1436
  172SOPE  C31119516   5.132  -0.816   8.087  0.0598 -0.4692  0.3732
  172SOPE  H11X19517   5.139  -0.761   8.183  0.4724 -0.5188  0.3727
  172SOPE  H11Y19518   5.242  -0.820   8.073  0.3355 -1.5768  2.4675
  172SOPE  C31219519   5.080  -0.954   8.108  0.8379 -0.2368 -0.8745
  172SOPE  H12X19520   5.105  -1.017   8.020  0.6966  1.3992 -2.1209
  172SOPE  H12Y19521   4.970  -0.968   8.111  0.5398  1.7949 -1.2639
  172SOPE  C31319522   5.143  -1.030   8.227 -0.3291 -0.2807 -0.0338
  172SOPE  H13X19523   5.254  -1.031   8.215 -0.1962  1.5176  0.7148
  172SOPE  H13Y19524   5.121  -1.139   8.220  0.5934 -0.4728 -0.1606
  172SOPE  C31419525   5.093  -0.973   8.361 -0.2430  0.0789  0.3670
  172SOPE  H14X19526   4.983  -0.988   8.355  0.0059 -1.4735 -0.8241
  172SOPE  H14Y19527   5.125  -0.867   8.374 -3.3070  0.7280  6.7226
  172SOPE  C31519528   5.144  -1.052   8.484 -0.2852  0.0514  0.0291
  172SOPE  H15X19529   5.251  -1.069   8.459  0.0019  0.6825  0.7995
  172SOPE  H15Y19530   5.097  -1.153   8.482 -3.3423  1.3734 -0.0133
  172SOPE  C31619531   5.133  -0.974   8.618  0.4280  0.4099 -0.1236
  172SOPE  H16X19532   5.199  -0.884   8.615 -1.4669  2.0159  1.9765
  172SOPE  H16Y19533   5.174  -1.044   8.694  0.1482 -1.6018 -1.7444
  172SOPE  C31719534   4.991  -0.927   8.654 -0.0976  0.1281  0.6652
  172SOPE  H17X19535   4.926  -1.016   8.668  1.1846 -1.2232 -1.5395
  172SOPE  H17Y19536   4.954  -0.858   8.576  1.9190  1.8483  1.1336
  172SOPE  C31819537   4.983  -0.847   8.786  0.1711 -0.4368 -0.6664
  172SOPE  H18X19538   5.011  -0.908   8.875 -0.5829  1.2165  0.7686
  172SOPE  H18Y19539   4.879  -0.812   8.801  0.0748 -1.4052  1.3918
  172SOPE  H18Z19540   5.047  -0.757   8.786  0.0721 -0.3525  0.3803
  173SAPI   C1219541   0.686   2.738  10.725  0.2705 -0.0184  0.3675
  173SAPI    H219542   0.678   2.775  10.621 -2.2262  3.1031  1.5065
  173SAPI    O219543   0.561   2.764  10.787  0.3298  0.4123  0.0753
  173SAPI   HO219544   0.575   2.854  10.817 -0.1877 -0.3043  2.6455
  173SAPI   C1319545   0.724   2.588  10.725 -0.1078  0.0582  0.3330
  173SAPI    H319546   0.828   2.565  10.691  0.5500  1.5012  1.2542
  173SAPI    O319547   0.642   2.516  10.633  0.5385  0.0243 -1.1189
  173SAPI   HO319548   0.547   2.529  10.639  0.4367 -1.0013 -0.0362
  173SAPI   C1419549   0.730   2.534  10.871 -0.8167 -0.8559  0.6005
  173SAPI    H419550   0.628   2.548  10.911 -1.3166  0.2748 -0.9665
  173SAPI    O419551   0.751   2.393  10.878  0.7658  0.3529  0.3296
  173SAPI   HO419552   0.691   2.363  10.947 -0.9704  3.4061  0.3603
  173SAPI   C1519553   0.821   2.612  10.957 -0.0762  0.8171  0.4814
  173SAPI    H519554   0.920   2.604  10.908  0.4584 -0.1651  1.6613
  173SAPI    O519555   0.827   2.572  11.094 -0.1885 -0.3091  0.2062
  173SAPI   HO519556   0.771   2.496  11.112  1.0666 -1.2823  0.0795
  173SAPI   C1619557   0.794   2.759  10.945  0.2640  0.2944 -0.3888
  173SAPI    H619558   0.698   2.767  11.001  2.4509 -0.1797  3.8458
  173SAPI    O619559   0.883   2.827  11.027 -0.2671 -0.3418  0.4622
  173SAPI   HO619560   0.913   2.903  10.976  0.2385 -0.8677 -0.0364
  173SAPI   C1119561   0.794   2.815  10.804 -0.0917  0.2829  0.7568
  173SAPI    H119562   0.885   2.791  10.744  0.6486  0.6500  1.7113
  173SAPI     P19563   0.865   3.075  10.784  0.6901  0.2713 -0.1642
  173SAPI   O1319564   0.999   3.018  10.826 -0.0656 -0.2819  0.7768
  173SAPI   O1419565   0.826   3.200  10.853 -0.4498 -0.2160  0.1914
  173SAPI   O1219566   0.753   2.953  10.796 -0.0311 -0.2089  0.8053
  173SAPI   O1119567   0.876   3.100  10.625  0.2566  0.3416  0.0410
  173SAPI    C119568   0.760   3.133  10.547 -0.2639  0.2279  0.4069
  173SAPI    HA19569   0.705   3.040  10.523 -1.9137  0.7848  1.8059
  173SAPI    HB19570   0.692   3.205  10.597  0.4269  0.7746  0.5851
  173SAPI    C219571   0.791   3.199  10.404  0.2576 -0.1795 -0.1081
  173SAPI    HS19572   0.695   3.225  10.354 -0.3510 -1.0578  0.5599
  173SAPI   O2119573   0.858   3.103  10.326 -0.5558 -1.0568  0.2036
  173SAPI   C2119574   0.788   3.006  10.268  0.0575  0.2134 -0.4038
  173SAPI   O2219575   0.663   3.018  10.269 -0.0041  0.3414  0.0519
  173SAPI   C2219576   0.879   2.891  10.210  0.4947 -0.1013 -0.6876
  173SAPI   H2R19577   0.983   2.932  10.209  1.0340 -1.0287  2.9614
  173SAPI   H2S19578   0.873   2.798  10.270 -2.0255  1.3228  1.4437
  173SAPI    C319579   0.875   3.323  10.422 -0.0547  0.2151  0.0771
  173SAPI    HX19580   0.969   3.298  10.476 -0.3194 -1.4126 -0.1511
  173SAPI    HY19581   0.835   3.395  10.497  0.3121  2.5060 -1.8060
  173SAPI   O3119582   0.914   3.392  10.298  0.3149  0.0374 -0.1186
  173SAPI   C3119583   0.835   3.492  10.260 -0.1966  0.2756 -0.2339
  173SAPI   O3219584   0.739   3.534  10.320  0.3897  0.2425  0.0529
  173SAPI   C3219585   0.882   3.540  10.122  0.1626 -0.7365  0.2260
  173SAPI   H2X19586   0.938   3.465  10.063 -0.8701  0.1433 -1.9585
  173SAPI   H2Y19587   0.938   3.635  10.139 -0.8347  0.0842 -0.9419
  173SAPI   C2319588   0.844   2.854  10.064  0.3011 -0.2945 -0.5842
  173SAPI   H3R19589   0.818   2.935   9.993  2.1360 -0.9537 -2.0996
  173SAPI   H3S19590   0.757   2.785  10.076 -0.0650  0.4809  1.8484
  173SAPI   C2419591   0.948   2.762  10.001  0.0703 -0.2214 -0.2085
  173SAPI   H4R19592   0.979   2.678  10.066 -0.4064 -0.3442 -0.1376
  173SAPI   H4S19593   1.038   2.825   9.982  0.4406 -1.1834 -1.7454
  173SAPI   C2519594   0.903   2.709   9.866  0.0457  0.4945 -0.1070
  173SAPI   H5R19595   0.849   2.614   9.858  0.8738  0.0033  0.0194
  173SAPI   C2619596   0.925   2.766   9.752  0.0374 -0.8962  0.7127
  173SAPI   H6R19597   0.891   2.727   9.655  0.5101  1.9148 -0.6826
  173SAPI   C2719598   1.002   2.897   9.719 -0.8163 -0.5599 -0.3577
  173SAPI   H7R19599   1.022   2.958   9.810 -1.6611 -3.0563  1.6118
  173SAPI   H7S19600   0.947   2.976   9.663 -0.7755  1.1349  1.8644
  173SAPI   C2819601   1.140   2.866   9.668  0.2293  0.6474  0.0743
  173SAPI   H8R19602   1.215   2.848   9.746 -1.0397 -0.2761  1.1093
  173SAPI   C2919603   1.164   2.858   9.531 -0.1936  0.1720  0.3249
  173SAPI   H9R19604   1.265   2.833   9.496 -0.9816  0.3027 -2.2176
  173SAPI  C21019605   1.063   2.883   9.419  0.4967 -0.7192 -0.0123
  173SAPI  H10R19606   1.025   2.986   9.436 -0.1980 -0.9335 -0.2658
  173SAPI  H10S19607   0.970   2.823   9.429 -0.2333  0.0784 -1.7017
  173SAPI  C21119608   1.118   2.877   9.281  0.0060 -0.1198 -0.0658
  173SAPI  H11R19609   1.190   2.955   9.254  4.1463 -3.4678  0.1859
  173SAPI  C21219610   1.097   2.775   9.190 -1.0103  0.0845 -0.7205
  173SAPI  H12R19611   1.152   2.778   9.095  0.2949 -1.7742 -0.0917
  173SAPI  C21319612   1.013   2.647   9.207  0.2647 -0.5217  0.0038
  173SAPI  H13R19613   0.921   2.660   9.147  0.3949  3.5486  0.4139
  173SAPI  H13S19614   0.970   2.637   9.309 -1.2563  1.8102 -0.3463
  173SAPI  C21419615   1.082   2.521   9.166 -0.1859 -0.6523  0.0116
  173SAPI  H14R19616   1.144   2.477   9.245  0.0040  2.1409  1.5484
  173SAPI  C21519617   1.074   2.459   9.042 -0.0514 -0.2123  0.0200
  173SAPI  H15R19618   1.117   2.359   9.027  0.7104  0.3169 -1.4892
  173SAPI  C21619619   0.992   2.502   8.921 -0.3665 -0.0849  0.1919
  173SAPI  H16R19620   1.058   2.575   8.869  1.2395  0.0141  2.2062
  173SAPI  H16S19621   0.898   2.559   8.937  0.5891  1.3673  0.8543
  173SAPI  C21719622   0.960   2.385   8.818 -0.0475  0.6852  0.1173
  173SAPI  H17R19623   0.926   2.303   8.884  0.3981  1.5214  1.4235
  173SAPI  H17S19624   1.052   2.356   8.761 -0.0917  1.4846 -0.3782
  173SAPI  C21819625   0.844   2.434   8.731  0.1214  0.2528  0.4192
  173SAPI  H18R19626   0.884   2.512   8.662  1.0041 -1.7212 -1.4290
  173SAPI  H18S19627   0.769   2.487   8.793  0.5423 -0.9765  2.0753
  173SAPI  C21919628   0.771   2.322   8.654  0.1292  0.0575 -0.3063
  173SAPI  H19R19629   0.677   2.376   8.629  0.6823  1.9314  1.4211
  173SAPI  H19S19630   0.751   2.237   8.723  2.9686 -1.3784 -1.0779
  173SAPI  C22019631   0.855   2.273   8.540  0.1342  0.2381 -0.3123
  173SAPI  H20R19632   0.858   2.349   8.459 -0.3436 -1.8148 -2.3422
  173SAPI  H20S19633   0.809   2.191   8.481  1.3779 -0.0663 -0.8720
  173SAPI  H20T19634   0.953   2.251   8.588 -0.8787  2.6888  3.3835
  173SAPI   C3319635   0.764   3.584  10.020  0.5179  0.2970  0.2770
  173SAPI   H3X19636   0.809   3.639   9.935 -1.1385 -1.2231 -1.7256
  173SAPI   H3Y19637   0.707   3.659  10.078  1.2965  0.0321  1.4086
  173SAPI   C3419638   0.669   3.469   9.983 -0.1206  0.4401 -0.0232
  173SAPI   H4X19639   0.585   3.504   9.920  0.9952 -0.4972 -2.1456
  173SAPI   H4Y19640   0.635   3.424  10.079  1.7713 -0.5430  0.2322
  173SAPI   C3519641   0.727   3.362   9.891  0.1999  1.4834 -0.5805
  173SAPI   H5X19642   0.663   3.271   9.896  1.5111  0.6103  1.5437
  173SAPI   H5Y19643   0.821   3.316   9.930 -0.1210  0.1288 -1.3239
  173SAPI   C3619644   0.764   3.412   9.749 -0.0788 -0.0704 -0.1521
  173SAPI   H6X19645   0.830   3.502   9.746 -0.2286  0.0904  1.0016
  173SAPI   H6Y19646   0.665   3.434   9.704  0.3122  1.6392 -0.2603
  173SAPI   C3719647   0.851   3.309   9.664  0.0395  0.1336 -0.4991
  173SAPI   H7X19648   0.793   3.214   9.666  1.2825 -0.6381  0.6026
  173SAPI   H7Y19649   0.943   3.284   9.721 -0.5836  1.7246  1.3203
  173SAPI   C3819650   0.874   3.349   9.520  0.4905 -0.8273  0.7815
  173SAPI   H8X19651   0.929   3.445   9.511 -1.6426  0.5558  1.7440
  173SAPI   H8Y19652   0.786   3.385   9.464  2.0601  0.9745 -0.6674
  173SAPI   C3919653   0.931   3.223   9.442  0.2231 -0.6188  0.5910
  173SAPI   H9X19654   0.854   3.143   9.436  1.2663 -1.5650 -0.8318
  173SAPI   H9Y19655   1.011   3.178   9.505 -2.5596 -3.7367  2.2211
  173SAPI  C31019656   0.984   3.246   9.303 -0.0209  0.1075  0.0525
  173SAPI  H10X19657   1.041   3.158   9.266  0.2670  0.9108 -1.5272
  173SAPI  H10Y19658   1.058   3.328   9.311 -0.7222  0.5481  2.8863
  173SAPI  C31119659   0.885   3.285   9.191  0.4130  0.3405 -0.4481
  173SAPI  H11X19660   0.833   3.380   9.218  0.3248 -0.1454  1.2357
  173SAPI  H11Y19661   0.814   3.200   9.195  0.5751  0.2400  1.1943
  173SAPI  C31219662   0.946   3.310   9.056 -0.0561  0.4158 -0.5012
  173SAPI  H12X19663   1.002   3.216   9.037  1.2394  1.1819 -0.5345
  173SAPI  H12Y19664   1.008   3.401   9.070 -1.1934  1.0368  0.7230
  173SAPI  C31319665   0.843   3.335   8.948  0.5305  0.5120 -0.0314
  173SAPI  H13X19666   0.769   3.252   8.949  0.7652  0.2804 -0.7052
  173SAPI  H13Y19667   0.893   3.333   8.848 -0.2124  3.2762 -0.5377
  173SAPI  C31419668   0.791   3.477   8.961 -0.3440  0.1430  0.6619
  173SAPI  H14X19669   0.876   3.548   8.969 -0.3279  0.6215 -2.4837
  173SAPI  H14Y19670   0.726   3.492   9.050 -1.6952  2.9204 -0.6429
  173SAPI  C31519671   0.702   3.528   8.851 -0.4518 -0.5097 -0.2544
  173SAPI  H15X19672   0.609   3.468   8.856 -0.5658 -0.3333 -0.2751
  173SAPI  H15Y19673   0.744   3.510   8.750  1.1519  0.7778  0.1380
  173SAPI  C31619674   0.667   3.673   8.868  0.2801 -0.1615 -0.1335
  173SAPI  H16X19675   0.592   3.683   8.950 -0.4577  1.2400 -0.9415
  173SAPI  H16Y19676   0.618   3.709   8.775  1.6512  0.5558 -0.6150
  173SAPI  C31719677   0.778   3.779   8.888  0.7291  0.6743  0.3641
  173SAPI  H17X19678   0.832   3.769   8.984  0.0133 -2.6221  0.5478
  173SAPI  H17Y19679   0.728   3.877   8.875 -0.8575 -0.1837 -0.1907
  173SAPI  C31819680   0.875   3.781   8.773  0.0157 -0.5259  0.0216
  173SAPI  H18X19681   0.946   3.863   8.799  1.0460 -1.4855  0.2974
  173SAPI  H18Y19682   0.823   3.799   8.676 -0.7129 -0.2301  0.4572
  173SAPI  H18Z19683   0.939   3.691   8.770 -0.0418 -0.5836  0.4699
  174SAPI   C1219684   3.870   4.287  10.782 -0.5417 -0.3701 -0.1845
  174SAPI    H219685   3.772   4.277  10.832 -0.1508 -2.0914  0.3204
  174SAPI    O219686   3.973   4.251  10.882 -0.3430  0.3618  1.1614
  174SAPI   HO219687   3.961   4.169  10.930 -0.6312  0.7085  1.6952
  174SAPI   C1319688   3.878   4.195  10.657  0.3561  0.1034 -0.0287
  174SAPI    H319689   3.805   4.234  10.583  1.8137  0.9859 -1.0462
  174SAPI    O319690   3.848   4.062  10.709 -0.1587 -0.0053  0.4106
  174SAPI   HO319691   3.774   4.029  10.657  1.3595 -0.2486 -1.7067
  174SAPI   C1419692   4.012   4.208  10.591 -0.5165  0.0034  0.2868
  174SAPI    H419693   4.085   4.170  10.666  0.2647 -0.8921 -0.8976
  174SAPI    O419694   4.024   4.120  10.483  0.8988 -0.2489  0.5747
  174SAPI   HO419695   4.112   4.082  10.484  0.7346 -0.8127 -1.3652
  174SAPI   C1519696   4.037   4.347  10.548 -0.0950  0.3017  0.2559
  174SAPI    H519697   3.973   4.382  10.465  1.1983  2.8841  0.2564
  174SAPI    O519698   4.176   4.363  10.514 -0.2705  0.0158  0.5494
  174SAPI   HO519699   4.212   4.409  10.590 -0.2057 -0.5065  0.8373
  174SAPI   C1619700   4.013   4.448  10.663  0.2768 -0.3887  0.5289
  174SAPI    H619701   4.092   4.429  10.739  0.7594 -0.4851  0.0082
  174SAPI    O619702   4.033   4.575  10.611 -0.2466  0.4234  0.3126
  174SAPI   HO619703   3.957   4.631  10.630 -0.4711  0.1174  0.3147
  174SAPI   C1119704   3.883   4.432  10.731  0.5670 -0.4429 -0.6713
  174SAPI    H119705   3.795   4.443  10.665 -1.2907 -0.2659  1.6786
  174SAPI     P19706   3.782   4.653  10.823  0.2177 -0.6441 -0.2728
  174SAPI   O1319707   3.786   4.734  10.947 -0.2203  0.4867  0.6314
  174SAPI   O1419708   3.651   4.612  10.782 -0.2625  0.1050 -0.1722
  174SAPI   O1219709   3.875   4.519  10.843  0.4998  0.7082 -0.3800
  174SAPI   O1119710   3.855   4.731  10.705  0.2041 -0.1565 -0.1096
  174SAPI    C119711   3.788   4.844  10.645 -0.2217  0.3353  0.2031
  174SAPI    HA19712   3.677   4.848  10.653 -0.4523 -0.4003 -2.0543
  174SAPI    HB19713   3.822   4.927  10.711  0.5914  0.5022 -0.4162
  174SAPI    C219714   3.838   4.865  10.502  0.2366 -0.0818  0.2535
  174SAPI    HS19715   3.770   4.943  10.461  3.6846  2.2132 -1.5874
  174SAPI   O2119716   3.843   4.744  10.421  0.6216  0.0651  0.2086
  174SAPI   C2119717   3.725   4.692  10.394 -0.0291 -0.0757 -0.5036
  174SAPI   O2219718   3.619   4.748  10.407  0.2456 -0.7966 -0.5924
  174SAPI   C2219719   3.746   4.554  10.344 -0.7017  0.6102  0.1281
  174SAPI   H2R19720   3.767   4.493  10.434  2.4763 -1.0138 -1.5434
  174SAPI   H2S19721   3.659   4.510  10.290 -1.3734  0.8324  1.0104
  174SAPI    C319722   3.977   4.938  10.502  0.3744 -0.0612 -0.6192
  174SAPI    HX19723   4.046   4.855  10.526  0.3321  0.2395  0.5856
  174SAPI    HY19724   3.981   5.007  10.589 -0.5554 -2.3569  1.3501
  174SAPI   O3119725   3.999   4.998  10.367  0.2665  0.3580  0.1006
  174SAPI   C3119726   4.101   5.083  10.368 -0.1697 -0.3800 -0.0485
  174SAPI   O3219727   4.178   5.102  10.459  0.1951  0.1042 -0.2887
  174SAPI   C3219728   4.098   5.152  10.229  0.5066 -0.7756 -0.0341
  174SAPI   H2X19729   4.043   5.245  10.254 -0.9470 -0.7396 -2.9359
  174SAPI   H2Y19730   4.035   5.090  10.162  0.4604 -1.0694  0.2804
  174SAPI   C2319731   3.869   4.554  10.251 -0.1659 -0.4706  0.2797
  174SAPI   H3R19732   3.881   4.456  10.200  1.7011 -0.6963  1.0750
  174SAPI   H3S19733   3.961   4.574  10.310 -0.5773  0.1767  0.7199
  174SAPI   C2419734   3.861   4.652  10.127  0.1609 -0.0617  0.0175
  174SAPI   H4R19735   3.953   4.635  10.068  0.9728 -0.2032  1.2844
  174SAPI   H4S19736   3.867   4.755  10.168  0.0660 -0.6359  1.5348
  174SAPI   C2519737   3.726   4.642  10.048  0.1893 -0.9608  0.7684
  174SAPI   H5R19738   3.636   4.623  10.108 -0.0472 -1.8557  0.1487
  174SAPI   C2619739   3.714   4.641   9.915 -0.5983  0.9066  0.0638
  174SAPI   H6R19740   3.615   4.647   9.867 -1.4536  0.6240  1.7319
  174SAPI   C2719741   3.831   4.654   9.815 -0.0690 -0.4921 -0.2845
  174SAPI   H7R19742   3.925   4.618   9.862  0.1134 -0.7885 -0.8677
  174SAPI   H7S19743   3.845   4.759   9.783  0.2779  0.0734  1.5780
  174SAPI   C2819744   3.797   4.570   9.689  0.5741 -0.1816 -0.0444
  174SAPI   H8R19745   3.829   4.465   9.701  1.5065  0.1924  0.9428
  174SAPI   C2919746   3.741   4.599   9.571  0.0917  0.3136 -0.4153
  174SAPI   H9R19747   3.727   4.519   9.497 -2.6862  1.3711 -1.1599
  174SAPI  C21019748   3.679   4.730   9.525  0.0188  0.2186 -0.2342
  174SAPI  H10R19749   3.760   4.787   9.476  1.0274 -1.2057 -0.2966
  174SAPI  H10S19750   3.665   4.789   9.618 -0.6639 -0.8871  0.3872
  174SAPI  C21119751   3.532   4.733   9.473  0.1052  0.4173 -0.6071
  174SAPI  H11R19752   3.449   4.705   9.540 -0.7387  3.2393 -0.3531
  174SAPI  C21219753   3.492   4.780   9.353 -0.4082  0.1249 -0.1618
  174SAPI  H12R19754   3.383   4.796   9.342 -0.1506  1.0589 -1.6634
  174SAPI  C21319755   3.588   4.841   9.253  0.1383  0.2132  0.0696
  174SAPI  H13R19756   3.542   4.866   9.155 -1.7757  2.8864  1.5296
  174SAPI  H13S19757   3.664   4.761   9.239 -0.9927 -0.7898 -0.5174
  174SAPI  C21419758   3.661   4.967   9.300 -0.0515 -0.0330  0.1037
  174SAPI  H14R19759   3.756   4.943   9.348 -0.2671 -1.0179  0.0711
  174SAPI  C21519760   3.625   5.096   9.293 -0.0090  0.7539 -0.7237
  174SAPI  H15R19761   3.702   5.167   9.325 -0.8437  0.4173  2.3578
  174SAPI  C21619762   3.494   5.151   9.244  0.2678 -0.9117 -0.2524
  174SAPI  H16R19763   3.466   5.235   9.311  1.3709  0.2368 -1.1871
  174SAPI  H16S19764   3.414   5.074   9.255  1.6014 -2.3079 -0.0004
  174SAPI  C21719765   3.496   5.194   9.101 -0.2996  0.1005 -0.4297
  174SAPI  H17R19766   3.527   5.113   9.032 -1.9687  0.6488 -1.9010
  174SAPI  H17S19767   3.573   5.272   9.086  1.7808 -1.6199  0.7583
  174SAPI  C21819768   3.355   5.238   9.049 -0.2380 -0.8048  0.5859
  174SAPI  H18R19769   3.277   5.176   9.098 -0.1772  0.7083  2.6959
  174SAPI  H18S19770   3.361   5.201   8.944  3.1792  2.6697 -0.6807
  174SAPI  C21919771   3.339   5.391   9.048  0.0896  0.4794 -0.2740
  174SAPI  H19R19772   3.429   5.441   9.005  0.3391  2.9556  2.8024
  174SAPI  H19S19773   3.331   5.429   9.152 -0.9143  1.4329 -0.6825
  174SAPI  C22019774   3.215   5.442   8.974 -0.5423  0.1369  0.5495
  174SAPI  H20R19775   3.125   5.378   8.986 -0.0628 -0.8128 -0.6633
  174SAPI  H20S19776   3.236   5.445   8.865 -0.3239  1.3967  0.6093
  174SAPI  H20T19777   3.179   5.545   8.995 -1.3436  0.1824 -0.8726
  174SAPI   C3319778   4.233   5.174  10.164 -0.0888  0.9327  0.1662
  174SAPI   H3X19779   4.297   5.083  10.172 -0.6743  0.5655  0.8151
  174SAPI   H3Y19780   4.289   5.251  10.220  0.4955 -0.6592  1.8720
  174SAPI   C3419781   4.234   5.220  10.021 -0.2206 -0.4925  0.8437
  174SAPI   H4X19782   4.171   5.143   9.971 -1.5409  0.6080  0.7546
  174SAPI   H4Y19783   4.340   5.228   9.989 -0.1966  3.4184  1.4644
  174SAPI   C3519784   4.165   5.355   9.998 -0.4282 -0.6166  0.0031
  174SAPI   H5X19785   4.059   5.344  10.029 -0.2612  0.0909  0.8654
  174SAPI   H5Y19786   4.179   5.366   9.888  1.7128 -0.5901  0.2368
  174SAPI   C3619787   4.237   5.471  10.074 -0.5488  0.5599 -0.5216
  174SAPI   H6X19788   4.344   5.475  10.045  0.8507  0.6340  3.9111
  174SAPI   H6Y19789   4.238   5.435  10.179  0.2771 -1.0268 -1.0366
  174SAPI   C3719790   4.173   5.610  10.070 -0.2233  0.2138 -0.0557
  174SAPI   H7X19791   4.231   5.681  10.133  2.0509 -0.5166 -1.1906
  174SAPI   H7Y19792   4.077   5.603  10.124 -0.3920 -0.6645 -0.4467
  174SAPI   C3819793   4.173   5.683   9.938  0.1515  0.4340 -0.8086
  174SAPI   H8X19794   4.106   5.771   9.953  2.0642  1.6503  1.2320
  174SAPI   H8Y19795   4.144   5.620   9.852 -0.9953 -0.4249  0.1724
  174SAPI   C3919796   4.317   5.734   9.902 -0.4926  0.4843 -0.0562
  174SAPI   H9X19797   4.368   5.639   9.876 -1.6791  0.2520 -1.7154
  174SAPI   H9Y19798   4.361   5.783   9.992 -0.3949 -2.4616  1.6231
  174SAPI  C31019799   4.325   5.830   9.787  0.1139  0.4761  0.0601
  174SAPI  H10X19800   4.423   5.878   9.765  0.3705  0.6809  1.5554
  174SAPI  H10Y19801   4.266   5.920   9.814  0.3750  0.7006 -0.1105
  174SAPI  C31119802   4.262   5.783   9.653 -0.3672  0.4336  0.7157
  174SAPI  H11X19803   4.153   5.768   9.667 -1.1258  3.8402 -0.5098
  174SAPI  H11Y19804   4.311   5.690   9.615 -2.2086  0.2105 -1.3386
  174SAPI  C31219805   4.297   5.893   9.550 -0.1928  0.0784 -0.1830
  174SAPI  H12X19806   4.402   5.923   9.565 -0.2057  0.3366 -0.5944
  174SAPI  H12Y19807   4.245   5.988   9.574  0.6146  0.6230 -0.5735
  174SAPI  C31319808   4.276   5.853   9.407 -0.3641 -0.0932 -0.2957
  174SAPI  H13X19809   4.168   5.846   9.385 -0.5089  2.1571 -0.5804
  174SAPI  H13Y19810   4.311   5.748   9.395  1.8573  0.7936 -2.3529
  174SAPI  C31419811   4.359   5.937   9.309  0.5876 -0.7684  0.1862
  174SAPI  H14X19812   4.469   5.944   9.319  0.3673  0.9421  2.0960
  174SAPI  H14Y19813   4.329   6.043   9.323 -1.4986 -1.2429 -0.3202
  174SAPI  C31519814   4.322   5.896   9.168 -0.0543 -0.5106  0.3730
  174SAPI  H15X19815   4.211   5.903   9.164 -0.1120  0.3127  2.3559
  174SAPI  H15Y19816   4.351   5.793   9.138  1.0485 -0.3304  0.7990
  174SAPI  C31619817   4.392   5.981   9.055  0.8883  0.0759 -0.5337
  174SAPI  H16X19818   4.379   5.931   8.956  1.4096  0.3847 -0.7608
  174SAPI  H16Y19819   4.499   5.968   9.080  0.5426 -0.4058  0.7785
  174SAPI  C31719820   4.352   6.127   9.048 -0.0533 -0.3826 -0.6041
  174SAPI  H17X19821   4.392   6.170   9.143 -1.5798 -0.7872  0.2634
  174SAPI  H17Y19822   4.242   6.134   9.043 -0.0193  1.5184  0.3769
  174SAPI  C31819823   4.421   6.200   8.926 -0.4916  0.3457 -0.2855
  174SAPI  H18X19824   4.386   6.156   8.830  1.0850  0.3074 -0.8759
  174SAPI  H18Y19825   4.531   6.181   8.932 -0.6515 -2.1496 -2.9564
  174SAPI  H18Z19826   4.394   6.308   8.926  0.1663  0.5171 -0.9734
  175SAPI   C1219827   5.789   3.386   6.224  0.1337  0.1136  0.1357
  175SAPI    H219828   5.849   3.294   6.242  0.6429  0.2070 -0.9891
  175SAPI    O219829   5.803   3.457   6.342  0.3873 -0.4484  0.4238
  175SAPI   HO219830   5.895   3.453   6.369  0.4715 -0.2321  0.1719
  175SAPI   C1319831   5.831   3.470   6.111  0.1328  0.4751 -0.3924
  175SAPI    H319832   5.825   3.408   6.018  2.1013 -0.5822  0.1262
  175SAPI    O319833   5.967   3.515   6.125 -0.1316 -0.0033 -0.3690
  175SAPI   HO319834   5.983   3.535   6.217 -0.2389  2.0039 -0.7436
  175SAPI   C1419835   5.739   3.593   6.092 -0.0019  0.3390  0.7259
  175SAPI    H419836   5.747   3.654   6.185 -3.2706 -0.1092  1.4397
  175SAPI    O419837   5.786   3.680   5.985 -0.4166  0.7510  0.2310
  175SAPI   HO419838   5.781   3.627   5.904 -1.6352 -0.9317  1.3248
  175SAPI   C1519839   5.594   3.564   6.086  0.3179  0.0742  0.0882
  175SAPI    H519840   5.571   3.503   5.995  0.6859 -1.2176  0.8323
  175SAPI    O519841   5.510   3.679   6.088 -0.7115 -0.5721 -0.7038
  175SAPI   HO519842   5.488   3.679   6.181  2.4125 -2.2015  0.1776
  175SAPI   C1619843   5.550   3.478   6.203  0.8084  0.1849 -0.5729
  175SAPI    H619844   5.571   3.533   6.297 -0.6039  0.1466 -0.2004
  175SAPI    O619845   5.409   3.447   6.195  0.3134  0.1767  0.4558
  175SAPI   HO619846   5.392   3.411   6.282 -0.7021  1.5615  0.8569
  175SAPI   C1119847   5.638   3.357   6.203  0.3049 -0.1746 -0.5254
  175SAPI    H119848   5.620   3.306   6.106 -1.7846  0.4972 -0.5308
  175SAPI     P19849   5.648   3.119   6.319 -0.1507 -0.0795  0.2139
  175SAPI   O1319850   5.706   3.072   6.195  0.2692  1.1921 -0.2446
  175SAPI   O1419851   5.534   3.035   6.374  0.9902  0.3535 -0.1254
  175SAPI   O1219852   5.594   3.271   6.308 -0.6668 -0.0410 -0.0962
  175SAPI   O1119853   5.767   3.134   6.433 -0.6855  0.5100  0.2986
  175SAPI    C119854   5.734   3.184   6.565  0.0737 -0.1697  0.2886
  175SAPI    HA19855   5.820   3.244   6.602  0.3153  0.2056 -0.8466
  175SAPI    HB19856   5.639   3.241   6.571 -0.0017 -0.2765  0.1174
  175SAPI    C219857   5.715   3.076   6.675  0.1937  0.0768  0.2044
  175SAPI    HS19858   5.608   3.051   6.661  0.4237 -0.8978  0.1158
  175SAPI   O2119859   5.744   3.134   6.799 -0.2314 -0.8472 -0.2800
  175SAPI   C2119860   5.657   3.228   6.841  0.2401  0.1074  0.1794
  175SAPI   O2219861   5.543   3.236   6.807 -0.3036  0.2871 -0.4194
  175SAPI   C2219862   5.725   3.295   6.956 -0.0288 -0.0424 -0.0578
  175SAPI   H2R19863   5.765   3.214   7.021 -0.3504 -0.1460  0.0115
  175SAPI   H2S19864   5.820   3.343   6.925 -0.6797 -0.0289 -2.2252
  175SAPI    C319865   5.797   2.944   6.645  0.8217  0.2865 -0.4521
  175SAPI    HX19866   5.904   2.973   6.651  0.8868 -0.1635  1.4620
  175SAPI    HY19867   5.777   2.918   6.539  0.3461  0.8227 -0.4992
  175SAPI   O3119868   5.772   2.832   6.730 -0.4973  0.5853  0.1602
  175SAPI   C3119869   5.659   2.759   6.693  0.2661 -0.3164 -0.3122
  175SAPI   O3219870   5.591   2.788   6.596 -0.6175  0.0378 -0.0506
  175SAPI   C3219871   5.626   2.653   6.797  0.0525  0.2228 -0.4843
  175SAPI   H2X19872   5.709   2.639   6.869 -1.1958  1.5228  1.2955
  175SAPI   H2Y19873   5.616   2.556   6.743  1.2769  0.2449 -0.7816
  175SAPI   C2319874   5.632   3.400   7.022 -0.5397 -0.8649 -0.5283
  175SAPI   H3R19875   5.560   3.341   7.081 -2.3025  1.0887 -0.6266
  175SAPI   H3S19876   5.571   3.456   6.948  0.9896 -0.5970 -1.6537
  175SAPI   C2419877   5.709   3.492   7.128  0.2201 -0.1675  0.0026
  175SAPI   H4R19878   5.635   3.547   7.190 -0.6025 -1.9701  0.6943
  175SAPI   H4S19879   5.748   3.574   7.065 -0.9841  0.2175 -0.2775
  175SAPI   C2519880   5.820   3.418   7.206 -0.2602  0.2426 -0.3718
  175SAPI   H5R19881   5.900   3.388   7.137 -0.0444 -0.0809  0.0151
  175SAPI   C2619882   5.812   3.386   7.341  0.1415 -0.1511 -0.4602
  175SAPI   H6R19883   5.903   3.345   7.386  0.5842 -0.7239 -1.8278
  175SAPI   C2719884   5.696   3.428   7.423  0.3146  0.5663  0.3154
  175SAPI   H7R19885   5.691   3.357   7.508 -0.5318  0.8292  0.4981
  175SAPI   H7S19886   5.601   3.413   7.365 -0.7989  0.6714  2.0437
  175SAPI   C2819887   5.707   3.568   7.479 -0.0315 -0.1675 -0.7772
  175SAPI   H8R19888   5.695   3.646   7.402 -0.6554 -0.4800 -1.0061
  175SAPI   C2919889   5.714   3.601   7.609 -1.1951 -0.3919 -0.0482
  175SAPI   H9R19890   5.707   3.707   7.638  1.7917 -0.9173  3.1662
  175SAPI  C21019891   5.723   3.509   7.722 -0.1231  0.6209 -0.1535
  175SAPI  H10R19892   5.762   3.413   7.682 -0.8284  1.0305 -1.9329
  175SAPI  H10S19893   5.622   3.489   7.765  0.1277 -0.8023 -0.1583
  175SAPI  C21119894   5.821   3.556   7.826  0.4410 -0.3318 -0.3731
  175SAPI  H11R19895   5.926   3.521   7.823 -0.2187 -2.4701  0.1703
  175SAPI  C21219896   5.781   3.643   7.928  0.0163  0.1665  0.0413
  175SAPI  H12R19897   5.861   3.676   7.996  0.6009 -0.3753 -0.3712
  175SAPI  C21319898   5.648   3.700   7.948 -0.2167 -0.0252 -0.3020
  175SAPI  H13R19899   5.599   3.695   7.848  1.4115 -1.3382 -1.0903
  175SAPI  H13S19900   5.660   3.808   7.970  0.5941 -0.4158  1.3893
  175SAPI  C21419901   5.563   3.623   8.055 -0.4959  0.2793 -0.0940
  175SAPI  H14R19902   5.492   3.548   8.017 -1.4779  0.5711  1.0990
  175SAPI  C21519903   5.549   3.645   8.184 -0.9102 -0.5049 -0.2320
  175SAPI  H15R19904   5.502   3.568   8.248  0.9657  0.9366  3.1360
  175SAPI  C21619905   5.627   3.744   8.269  0.3772 -0.5168  0.0300
  175SAPI  H16R19906   5.579   3.844   8.264  0.6436 -0.4233 -0.7501
  175SAPI  H16S19907   5.730   3.744   8.227  0.3105 -3.5906 -0.4040
  175SAPI  C21719908   5.633   3.704   8.418  0.2466 -0.1934 -0.1002
  175SAPI  H17R19909   5.536   3.672   8.461 -0.9627  1.4111 -1.4993
  175SAPI  H17S19910   5.660   3.795   8.476 -0.8398  0.3364 -0.3976
  175SAPI  C21819911   5.739   3.594   8.430  0.0792 -0.1065 -0.8371
  175SAPI  H18R19912   5.848   3.614   8.438  0.0248 -0.4346  1.5198
  175SAPI  H18S19913   5.728   3.519   8.349 -1.6327 -0.7243 -0.0808
  175SAPI  C21919914   5.708   3.518   8.566  0.4426  0.1957  0.3309
  175SAPI  H19R19915   5.613   3.462   8.559  1.2966 -1.2772  0.2756
  175SAPI  H19S19916   5.705   3.598   8.644 -0.1237  0.6633 -0.1659
  175SAPI  C22019917   5.823   3.421   8.602  0.2003  0.2660 -0.0192
  175SAPI  H20R19918   5.918   3.471   8.631 -0.4858  2.2080 -0.9954
  175SAPI  H20S19919   5.838   3.352   8.516 -0.7138 -0.3257  0.2771
  175SAPI  H20T19920   5.785   3.363   8.689 -0.0456 -0.7056 -0.7519
  175SAPI   C3319921   5.488   2.683   6.866  0.5604  0.4397  0.7378
  175SAPI   H3X19922   5.437   2.595   6.911  1.4568  0.1338  1.1804
  175SAPI   H3Y19923   5.418   2.732   6.795  0.3142 -0.0386  0.6405
  175SAPI   C3419924   5.506   2.796   6.970  0.4607  0.1856 -0.3547
  175SAPI   H4X19925   5.403   2.819   7.005  1.3708 -0.5604  3.1708
  175SAPI   H4Y19926   5.557   2.887   6.933  2.3374 -0.8460 -0.4199
  175SAPI   C3519927   5.582   2.742   7.098 -0.5704 -0.3862 -0.2787
  175SAPI   H5X19928   5.689   2.731   7.073 -0.7640  2.1300 -2.7262
  175SAPI   H5Y19929   5.535   2.646   7.127  0.8887 -0.3761  2.4216
  175SAPI   C3619930   5.570   2.837   7.220  0.1745  0.3184 -0.4056
  175SAPI   H6X19931   5.594   2.941   7.190  1.1536  0.6044  1.2283
  175SAPI   H6Y19932   5.644   2.802   7.295 -0.1508  1.7123  0.6116
  175SAPI   C3719933   5.428   2.859   7.269  0.3670  0.7251 -0.6031
  175SAPI   H7X19934   5.380   2.760   7.282  0.4333  0.9044  1.3029
  175SAPI   H7Y19935   5.375   2.902   7.182 -1.3318 -3.3018 -1.8069
  175SAPI   C3819936   5.405   2.929   7.401  0.2372 -0.1074 -0.2463
  175SAPI   H8X19937   5.457   2.873   7.481 -0.3685 -1.3569 -0.6954
  175SAPI   H8Y19938   5.298   2.927   7.430  0.4284  0.9160  0.5943
  175SAPI   C3919939   5.449   3.076   7.387 -0.6934  0.3545 -0.1043
  175SAPI   H9X19940   5.404   3.119   7.295  0.5326  2.6330  0.2979
  175SAPI   H9Y19941   5.560   3.084   7.383 -0.6203  0.2009  1.2059
  175SAPI  C31019942   5.409   3.159   7.509 -0.0763 -0.5471 -0.2052
  175SAPI  H10X19943   5.305   3.132   7.538 -0.3970  1.7679  1.0700
  175SAPI  H10Y19944   5.427   3.265   7.480  2.8606 -0.9492 -0.1264
  175SAPI  C31119945   5.488   3.136   7.638 -0.3391 -0.6103 -0.6008
  175SAPI  H11X19946   5.583   3.192   7.630 -1.5793  1.3354 -2.6746
  175SAPI  H11Y19947   5.517   3.029   7.652  0.3097 -0.3118  0.4253
  175SAPI  C31219948   5.430   3.198   7.762  0.2077 -0.2035 -0.6251
  175SAPI  H12X19949   5.328   3.159   7.781 -0.0942  0.2268 -1.3116
  175SAPI  H12Y19950   5.427   3.308   7.743 -0.0462 -0.1201 -0.1250
  175SAPI  C31319951   5.517   3.156   7.878 -0.4717 -0.4992  0.2393
  175SAPI  H13X19952   5.620   3.179   7.843 -0.9010  0.9839 -0.1200
  175SAPI  H13Y19953   5.521   3.046   7.889  2.1781 -0.4064  0.9630
  175SAPI  C31419954   5.475   3.220   8.008  0.0177 -0.1216 -0.0611
  175SAPI  H14X19955   5.365   3.230   8.023 -0.0135 -1.4591  0.8241
  175SAPI  H14Y19956   5.511   3.325   8.011  0.1746 -0.0640 -2.1712
  175SAPI  C31519957   5.532   3.149   8.131 -0.1006 -0.2446  0.1842
  175SAPI  H15X19958   5.643   3.146   8.134 -0.1103 -1.6291 -0.1146
  175SAPI  H15Y19959   5.508   3.042   8.119 -0.5703 -0.1981  0.6582
  175SAPI  C31619960   5.488   3.209   8.264 -0.3285 -0.5533 -0.0702
  175SAPI  H16X19961   5.383   3.178   8.285 -0.1398 -0.2865  1.3724
  175SAPI  H16Y19962   5.495   3.319   8.260 -1.8897 -0.4086  0.5759
  175SAPI  C31719963   5.580   3.169   8.390  0.0926 -0.2452 -0.0619
  175SAPI  H17X19964   5.547   3.233   8.474  0.9317  2.4561 -1.6526
  175SAPI  H17Y19965   5.684   3.206   8.380  0.2806 -1.1562 -1.8724
  175SAPI  C31819966   5.582   3.017   8.428 -1.3036 -1.2394 -0.7548
  175SAPI  H18X19967   5.599   3.006   8.538  1.6025  1.6752 -0.7658
  175SAPI  H18Y19968   5.650   2.964   8.357  0.0208 -0.0546 -0.4129
  175SAPI  H18Z19969   5.480   2.978   8.408 -2.2226  0.4260  0.4830
  176SAPI   C1219970   4.482   2.307   6.323 -0.5667 -0.0132 -0.0576
  176SAPI    H219971   4.575   2.308   6.263 -0.2556  4.7479  0.1462
  176SAPI    O219972   4.513   2.337   6.460 -0.2162 -0.2448 -0.3989
  176SAPI   HO219973   4.571   2.271   6.500 -1.5163 -2.5267 -2.0920
  176SAPI   C1319974   4.393   2.408   6.263 -0.0400  0.1041  0.1475
  176SAPI    H319975   4.375   2.379   6.158 -1.1247  0.5090  0.2140
  176SAPI    O319976   4.452   2.535   6.242 -0.2860  0.4384 -0.1245
  176SAPI   HO319977   4.420   2.563   6.155  2.7474  0.0940 -1.4604
  176SAPI   C1419978   4.251   2.403   6.323 -0.0116 -0.3937 -0.4011
  176SAPI    H419979   4.262   2.420   6.433 -2.4705  1.5590 -0.3536
  176SAPI    O419980   4.162   2.506   6.258 -0.2069 -0.1932 -0.2470
  176SAPI   HO419981   4.070   2.486   6.281 -0.7233 -0.0134 -2.0301
  176SAPI   C1519982   4.188   2.269   6.313 -0.8501 -0.0727 -0.2068
  176SAPI    H519983   4.185   2.262   6.202 -0.4727  0.2561 -0.2410
  176SAPI    O519984   4.060   2.271   6.370  0.1326  0.2567  0.1277
  176SAPI   HO519985   4.026   2.184   6.346  1.2629 -0.4884  1.0839
  176SAPI   C1619986   4.280   2.155   6.367 -0.1878 -0.1441 -0.1084
  176SAPI    H619987   4.285   2.170   6.477 -1.6192 -0.0761 -0.0316
  176SAPI    O619988   4.225   2.023   6.331  0.1954 -0.8472 -0.6220
  176SAPI   HO619989   4.237   1.971   6.411 -2.8655 -1.0715 -0.1787
  176SAPI   C1119990   4.421   2.166   6.310  0.5513 -0.4309 -0.5238
  176SAPI    H119991   4.419   2.143   6.202  2.2921 -2.7298 -0.1362
  176SAPI     P19992   4.658   2.035   6.356  0.0974 -0.0871  0.3340
  176SAPI   O1319993   4.691   2.065   6.222  0.5650  0.1763  0.0150
  176SAPI   O1419994   4.704   1.903   6.402 -0.2665  0.7640  0.0509
  176SAPI   O1219995   4.499   2.063   6.384 -0.1689 -0.4502  0.1514
  176SAPI   O1119996   4.714   2.146   6.446  0.4154 -0.2549  0.6159
  176SAPI    C119997   4.826   2.122   6.533 -0.5615  0.2865 -0.2585
  176SAPI    HA19998   4.807   2.050   6.615  1.3978 -1.2267 -1.0589
  176SAPI    HB19999   4.915   2.075   6.486  0.6517 -0.0701  2.2547
  176SAPI    C220000   4.873   2.256   6.587  0.4451  0.3479 -0.3259
  176SAPI    HS20001   4.942   2.244   6.673 -0.5726  1.2720  0.6491
  176SAPI   O2120002   4.767   2.338   6.643 -0.1290 -0.2644  0.1910
  176SAPI   C2120003   4.726   2.312   6.765  0.4594 -0.4302 -0.2133
  176SAPI   O2220004   4.761   2.218   6.833 -0.2422 -0.0682 -0.1687
  176SAPI   C2220005   4.642   2.428   6.809 -0.4430 -0.4850 -0.8220
  176SAPI   H2R20006   4.688   2.523   6.774 -1.5915  0.1509 -0.6535
  176SAPI   H2S20007   4.547   2.421   6.752 -0.8230  1.1602 -0.4398
  176SAPI    C320008   4.943   2.321   6.471 -0.7325 -1.0803  0.2531
  176SAPI    HX20009   4.880   2.337   6.381  0.7139 -0.2827 -0.6604
  176SAPI    HY20010   5.029   2.259   6.435 -1.0536 -1.7064  0.5493
  176SAPI   O3120011   4.988   2.460   6.508 -0.9161  0.2778 -0.4204
  176SAPI   C3120012   5.093   2.467   6.580 -0.2023  0.0316  0.3118
  176SAPI   O3220013   5.158   2.372   6.623  0.2108 -0.4906 -0.0227
  176SAPI   C3220014   5.120   2.611   6.623 -0.1262  0.4380  0.7397
  176SAPI   H2X20015   5.040   2.675   6.580  0.8199 -0.6637 -3.0162
  176SAPI   H2Y20016   5.220   2.639   6.584  0.3122  0.3365  1.7468
  176SAPI   C2320017   4.589   2.436   6.957  0.0710 -0.5557 -0.0237
  176SAPI   H3R20018   4.659   2.390   7.030  0.7600 -0.4700 -0.6342
  176SAPI   H3S20019   4.489   2.387   6.965  1.1936 -2.7451  1.5088
  176SAPI   C2420020   4.578   2.579   7.012 -0.2056  0.6327 -0.1863
  176SAPI   H4R20021   4.665   2.643   7.039  2.1289 -2.3731 -0.1512
  176SAPI   H4S20022   4.541   2.551   7.113  0.1857  0.5122 -0.0754
  176SAPI   C2520023   4.457   2.658   6.951 -1.0795  0.4837 -0.0973
  176SAPI   H5R20024   4.366   2.600   6.933 -0.9232 -1.5193  4.2485
  176SAPI   C2620025   4.456   2.793   6.928 -0.3460 -0.0097  0.1373
  176SAPI   H6R20026   4.367   2.830   6.875 -0.2752 -0.4440 -0.2885
  176SAPI   C2720027   4.572   2.890   6.938 -0.3901 -0.3380 -0.4872
  176SAPI   H7R20028   4.600   2.918   6.834 -1.4296 -1.1410 -1.0082
  176SAPI   H7S20029   4.659   2.849   6.993 -1.4693  0.3499  1.8538
  176SAPI   C2820030   4.535   3.022   7.004  0.2254  1.1881 -0.1128
  176SAPI   H8R20031   4.506   3.103   6.936 -5.0983  0.4046  0.7137
  176SAPI   C2920032   4.527   3.044   7.134 -0.4618  0.4824 -0.1888
  176SAPI   H9R20033   4.495   3.143   7.168 -0.6884  0.0330  0.9654
  176SAPI  C21020034   4.560   2.948   7.249 -0.3081 -0.5727  0.4195
  176SAPI  H10R20035   4.643   2.993   7.307 -0.0796 -0.0054 -0.3308
  176SAPI  H10S20036   4.588   2.842   7.232  0.2786 -0.0398 -2.4098
  176SAPI  C21120037   4.432   2.928   7.332 -0.2576  0.0418 -0.7001
  176SAPI  H11R20038   4.368   2.843   7.306  0.5090 -1.3128  1.5249
  176SAPI  C21220039   4.389   3.003   7.434  0.4421  0.3485  0.4101
  176SAPI  H12R20040   4.296   2.967   7.482 -0.4221 -0.7975 -1.9797
  176SAPI  C21320041   4.449   3.124   7.500  0.7639  0.4082  0.3947
  176SAPI  H13R20042   4.372   3.193   7.541  0.5951  0.0218  0.7358
  176SAPI  H13S20043   4.482   3.198   7.424 -0.4922  0.4358 -0.1477
  176SAPI  C21420044   4.564   3.097   7.595 -0.3532  0.3288 -0.4522
  176SAPI  H14R20045   4.663   3.100   7.549 -0.8820 -0.1318 -1.6825
  176SAPI  C21520046   4.552   3.104   7.724 -0.3806 -0.3960 -0.1563
  176SAPI  H15R20047   4.642   3.081   7.781  0.0106 -0.8661 -0.9452
  176SAPI  C21620048   4.422   3.135   7.800  0.1119  1.0799 -0.7268
  176SAPI  H16R20049   4.339   3.155   7.729  0.1409  1.1683 -0.7361
  176SAPI  H16S20050   4.419   3.232   7.854 -0.3212  0.5313  0.2515
  176SAPI  C21720051   4.364   3.024   7.899  0.1242  0.7070 -0.2376
  176SAPI  H17R20052   4.363   2.932   7.837  0.1070 -0.2863  1.1922
  176SAPI  H17S20053   4.257   3.043   7.923  0.3421  1.8894 -0.1232
  176SAPI  C21820054   4.460   3.024   8.019  0.1290 -0.5806  0.0499
  176SAPI  H18R20055   4.565   3.025   7.982 -0.9717 -1.8453 -3.5098
  176SAPI  H18S20056   4.446   2.925   8.067 -1.8253  0.0751  0.9438
  176SAPI  C21920057   4.440   3.126   8.131  0.1581 -0.2574 -0.7913
  176SAPI  H19R20058   4.334   3.127   8.164 -0.3557 -0.0719 -2.3406
  176SAPI  H19S20059   4.463   3.228   8.094  0.9418 -1.4480 -3.9500
  176SAPI  C22020060   4.527   3.112   8.260  0.1153 -0.0354  0.0748
  176SAPI  H20R20061   4.487   3.032   8.326 -0.1627 -0.6172 -0.7871
  176SAPI  H20S20062   4.519   3.210   8.313 -3.8240 -0.3590  0.3541
  176SAPI  H20T20063   4.628   3.088   8.222  0.5237  1.6356 -0.0044
  176SAPI   C3320064   5.112   2.628   6.776 -0.4694 -0.3642  0.1216
  176SAPI   H3X20065   5.209   2.591   6.815  0.0230  0.9023  0.1580
  176SAPI   H3Y20066   5.035   2.560   6.819  0.8648  0.1344  3.6686
  176SAPI   C3420067   5.097   2.774   6.818  0.1122 -0.6112 -0.0959
  176SAPI   H4X20068   4.991   2.806   6.808 -0.8953 -3.8269 -1.0386
  176SAPI   H4Y20069   5.162   2.850   6.769 -2.0184  1.2498 -0.1748
  176SAPI   C3520070   5.109   2.786   6.975  0.6210  0.4563 -0.0612
  176SAPI   H5X20071   5.095   2.890   7.012 -0.4863  0.8017 -1.3752
  176SAPI   H5Y20072   5.213   2.757   7.003  0.0629 -0.2952  1.3130
  176SAPI   C3620073   5.006   2.703   7.053  0.2061 -0.1096  0.0015
  176SAPI   H6X20074   5.013   2.597   7.021  1.2700  0.5837 -2.2577
  176SAPI   H6Y20075   4.907   2.752   7.038  1.4832  3.0250  0.9700
  176SAPI   C3720076   5.032   2.720   7.197 -0.1586 -0.1830  0.4381
  176SAPI   H7X20077   5.063   2.824   7.221  0.7644  0.3315 -2.5708
  176SAPI   H7Y20078   5.122   2.662   7.227 -0.4171  0.1078  1.8758
  176SAPI   C3820079   4.914   2.660   7.287  0.1904 -0.5175 -0.0862
  176SAPI   H8X20080   4.897   2.551   7.284 -0.0816 -0.4714 -0.1992
  176SAPI   H8Y20081   4.820   2.709   7.253  1.0878  0.9055 -0.6290
  176SAPI   C3920082   4.926   2.705   7.437  0.5551  0.2825 -0.2935
  176SAPI   H9X20083   4.941   2.815   7.445 -2.7548  0.7500  0.6688
  176SAPI   H9Y20084   5.013   2.660   7.489 -0.1551  1.6250  2.1978
  176SAPI  C31020085   4.800   2.672   7.525 -0.4164 -0.9248  0.4517
  176SAPI  H10X20086   4.787   2.562   7.526  2.6355 -1.3839 -0.2540
  176SAPI  H10Y20087   4.716   2.733   7.486  2.1598  0.2377 -3.9949
  176SAPI  C31120088   4.831   2.719   7.666  0.0260  0.1417  0.6657
  176SAPI  H11X20089   4.842   2.828   7.652  0.7305 -0.3670 -4.6786
  176SAPI  H11Y20090   4.923   2.673   7.711  0.8121  0.9910 -0.0349
  176SAPI  C31220091   4.714   2.695   7.764 -0.3777  0.2350 -1.2412
  176SAPI  H12X20092   4.690   2.588   7.777 -3.7900  0.9357 -0.8649
  176SAPI  H12Y20093   4.613   2.720   7.725 -0.0700 -0.8264 -2.8308
  176SAPI  C31320094   4.745   2.761   7.905  0.1962 -0.0165  0.6175
  176SAPI  H13X20095   4.745   2.871   7.894  0.4253  0.0166  0.9250
  176SAPI  H13Y20096   4.851   2.740   7.930 -0.0297 -0.4737  1.2306
  176SAPI  C31420097   4.649   2.716   8.016 -0.2123  0.0726 -0.5626
  176SAPI  H14X20098   4.644   2.607   7.996  0.7624 -0.3328  1.2141
  176SAPI  H14Y20099   4.545   2.751   7.997 -0.7160 -1.4102 -0.6379
  176SAPI  C31520100   4.702   2.741   8.155  0.2444  0.0411 -1.0981
  176SAPI  H15X20101   4.710   2.851   8.170  0.7884 -0.0391 -0.7964
  176SAPI  H15Y20102   4.794   2.685   8.179 -0.2410  0.4413  2.1376
  176SAPI  C31620103   4.591   2.692   8.252  0.3362 -0.1751  0.4762
  176SAPI  H16X20104   4.573   2.583   8.239  2.1790 -0.9875  3.5545
  176SAPI  H16Y20105   4.505   2.758   8.226  1.1179  0.5940 -0.2068
  176SAPI  C31720106   4.632   2.737   8.400 -0.0727  0.0064 -0.4751
  176SAPI  H17X20107   4.663   2.843   8.409  1.1628 -0.5367  2.9203
  176SAPI  H17Y20108   4.721   2.678   8.432 -0.3830 -0.7876 -1.0314
  176SAPI  C31820109   4.513   2.714   8.496 -0.5010  0.3967  0.3323
  176SAPI  H18X20110   4.443   2.789   8.452  0.9087  0.3073 -2.3145
  176SAPI  H18Y20111   4.547   2.729   8.600  1.1739  2.6204 -0.4502
  176SAPI  H18Z20112   4.483   2.607   8.497  0.0244  0.1180 -2.8314
  177SLPC     N20113   5.128   6.577  11.005 -0.4990 -0.1380 -0.1751
  177SLPC   C1320114   5.030   6.692  10.996 -0.1117  0.7504  0.4472
  177SLPC  H13A20115   4.965   6.673  10.912  1.0954  0.3487 -0.4362
  177SLPC  H13B20116   4.974   6.699  11.087  0.1173 -0.1142  0.6686
  177SLPC  H13C20117   5.085   6.785  10.986  0.1617  0.7892  2.0492
  177SLPC   C1420118   5.057   6.445  11.052 -1.0550 -0.3135 -0.3773
  177SLPC  H14A20119   5.005   6.451  11.147  1.4016 -0.3001  1.0307
  177SLPC  H14B20120   4.994   6.404  10.974 -1.4517 -2.5653  1.0216
  177SLPC  H14C20121   5.134   6.370  11.064  0.1733  0.7591 -1.3377
  177SLPC   C1520122   5.219   6.618  11.116 -0.2368  0.1528  0.2305
  177SLPC  H15A20123   5.163   6.664  11.196  0.3380 -1.1396  1.4315
  177SLPC  H15B20124   5.291   6.547  11.156 -0.7753 -1.1551 -1.0306
  177SLPC  H15C20125   5.284   6.695  11.078 -1.2201  1.2910  0.8210
  177SLPC   C1220126   5.185   6.534  10.873  0.5000 -0.2156 -0.5940
  177SLPC  H12A20127   5.117   6.498  10.797 -0.5555  0.2177  0.1220
  177SLPC  H12B20128   5.244   6.447  10.898 -0.7721 -0.7404  0.7085
  177SLPC   C1120129   5.284   6.638  10.803 -0.2810  0.0734 -0.0329
  177SLPC  H11A20130   5.221   6.723  10.769 -1.0517 -0.2560  0.5347
  177SLPC  H11B20131   5.327   6.591  10.712  0.7058  2.1619 -0.7114
  177SLPC     P20132   5.522   6.638  10.914 -0.3966 -0.2247 -0.1442
  177SLPC   O1320133   5.593   6.722  11.015 -0.7893  0.0669  0.2975
  177SLPC   O1420134   5.504   6.499  10.953 -0.4077 -0.1187  0.2590
  177SLPC   O1220135   5.387   6.701  10.882  0.1017  0.0879  0.1103
  177SLPC   O1120136   5.605   6.652  10.787 -0.0054 -0.0652  0.4436
  177SLPC    C120137   5.654   6.769  10.731  0.4603  0.4028 -0.1952
  177SLPC    HA20138   5.648   6.858  10.796  1.0222  0.3101 -0.0083
  177SLPC    HB20139   5.758   6.752  10.694  1.6731  1.3597  2.5166
  177SLPC    C220140   5.570   6.797  10.611 -0.2272  0.5712 -0.2581
  177SLPC    HS20141   5.460   6.794  10.628 -0.2285 -0.0718 -0.3401
  177SLPC   O2120142   5.595   6.698  10.506 -0.8180  0.2803 -0.0540
  177SLPC   C2120143   5.495   6.663  10.425  0.1963  0.0581 -0.0596
  177SLPC   O2220144   5.380   6.699  10.430  0.0059  0.5533  0.2032
  177SLPC   C2220145   5.542   6.560  10.321 -0.5132  0.7130  0.5096
  177SLPC   H2R20146   5.631   6.596  10.265 -2.4509 -0.3403 -3.6186
  177SLPC   H2S20147   5.556   6.462  10.371 -1.9792  0.7015  0.9555
  177SLPC    C320148   5.609   6.931  10.561 -0.8140 -0.1400 -0.6245
  177SLPC    HX20149   5.718   6.935  10.538 -1.1978 -0.8418 -2.8864
  177SLPC    HY20150   5.591   7.000  10.645 -0.9584 -2.4557  1.3550
  177SLPC   O3120151   5.525   6.962  10.443 -0.6053  0.0290 -0.0099
  177SLPC   C3120152   5.406   7.013  10.479 -0.2085 -0.4668 -0.2982
  177SLPC   O3220153   5.374   7.055  10.588  0.3261 -0.0143 -0.3159
  177SLPC   C3220154   5.312   7.016  10.359 -0.2653 -0.0019 -0.2090
  177SLPC   H2X20155   5.208   6.978  10.370  0.5047 -1.6075  2.3922
  177SLPC   H2Y20156   5.359   6.955  10.278  1.9174  0.1766  0.8589
  177SLPC   C2320157   5.433   6.542  10.209  0.2303 -0.7613  0.3168
  177SLPC   H3R20158   5.340   6.495  10.248 -0.2081 -0.5307 -0.4359
  177SLPC   H3S20159   5.469   6.465  10.138 -0.6885  1.7447 -3.1396
  177SLPC   C2420160   5.403   6.666  10.124  0.3217  0.3232 -0.8832
  177SLPC   H4R20161   5.393   6.752  10.193 -1.8111 -0.7591  0.2414
  177SLPC   H4S20162   5.298   6.652  10.091  0.3359 -0.1536 -0.7323
  177SLPC   C2520163   5.509   6.706  10.020 -0.7693 -0.1914  0.6627
  177SLPC   H5R20164   5.540   6.617   9.961 -3.4825 -1.2797  0.7103
  177SLPC   H5S20165   5.603   6.750  10.058 -0.8034  0.7926 -0.3600
  177SLPC   C2620166   5.448   6.819   9.928  0.3349  0.2715  0.0968
  177SLPC   H6R20167   5.438   6.908   9.994  3.6664  0.7506  0.1328
  177SLPC   H6S20168   5.346   6.804   9.887 -0.8805  0.7848  2.7403
  177SLPC   C2720169   5.540   6.856   9.805 -0.7371  0.2550  0.3577
  177SLPC   H7R20170   5.635   6.901   9.841  0.2168 -2.5803  1.6452
  177SLPC   H7S20171   5.492   6.937   9.746 -0.7961  0.8984  1.2620
  177SLPC   C2820172   5.574   6.733   9.710  0.3403  0.1118  0.2576
  177SLPC   H8R20173   5.630   6.661   9.774 -3.2912 -1.6253  1.8007
  177SLPC   H8S20174   5.632   6.773   9.624 -0.3753 -0.5956 -0.5743
  177SLPC   C2920175   5.453   6.654   9.657 -0.7053 -0.2843 -0.6151
  177SLPC   H9R20176   5.383   6.610   9.729  1.0535  0.5324  1.7175
  177SLPC  C21020177   5.426   6.637   9.524  0.1482  0.0277  0.5487
  177SLPC  H10R20178   5.332   6.590   9.493  1.1396 -1.1287 -0.8551
  177SLPC  C21120179   5.512   6.699   9.408  0.1205  0.6711 -0.6774
  177SLPC  H11R20180   5.614   6.725   9.443 -0.3745  1.5981  0.1091
  177SLPC  H11S20181   5.550   6.625   9.334 -0.1796 -0.7699  0.5699
  177SLPC  C21220182   5.452   6.816   9.337  0.5628 -0.0513  0.1367
  177SLPC  H12R20183   5.348   6.845   9.357  0.6220  0.1248  0.1954
  177SLPC  C21320184   5.511   6.887   9.249 -0.2715  0.1119 -0.3887
  177SLPC  H13R20185   5.453   6.953   9.183  1.5293 -1.5361 -3.9425
  177SLPC  C21420186   5.655   6.869   9.193  0.1199 -0.1800  0.2508
  177SLPC  H14R20187   5.670   6.759   9.186 -0.7058 -0.1980 -2.3105
  177SLPC  H14S20188   5.735   6.915   9.255  0.4826 -0.6528  0.1423
  177SLPC  C21520189   5.678   6.936   9.057  0.0071 -0.1016  0.4483
  177SLPC  H15R20190   5.608   6.904   8.977 -1.3292  1.6429  0.8499
  177SLPC  H15S20191   5.781   6.911   9.025 -0.2391  2.6997 -3.1964
  177SLPC  C21620192   5.667   7.092   9.058 -0.7701 -0.6169 -0.0672
  177SLPC  H16R20193   5.568   7.129   9.091  0.3789  0.7162  2.1564
  177SLPC  H16S20194   5.684   7.126   8.954 -0.5427  1.3586  0.5720
  177SLPC  C21720195   5.771   7.161   9.146  0.2069 -0.3170  0.0953
  177SLPC  H17R20196   5.829   7.220   9.072  0.9923 -1.7832 -0.4886
  177SLPC  H17S20197   5.839   7.078   9.174 -0.4286 -1.7816 -2.3562
  177SLPC  C21820198   5.719   7.241   9.259 -0.3066 -0.4018  0.3042
  177SLPC  H18R20199   5.803   7.285   9.318 -2.3111  1.9615  1.5815
  177SLPC  H18S20200   5.648   7.182   9.320 -1.0152 -0.3128 -0.4232
  177SLPC  H18T20201   5.662   7.332   9.227 -0.4288 -0.6359 -0.1513
  177SLPC   C3320202   5.294   7.162  10.311 -0.3865 -0.4020  0.0624
  177SLPC   H3X20203   5.247   7.226  10.389 -2.0190 -1.4261 -0.0258
  177SLPC   H3Y20204   5.213   7.170  10.235 -2.9170  4.1710  2.7502
  177SLPC   C3420205   5.435   7.223  10.279 -0.1383 -0.1250  0.3726
  177SLPC   H4X20206   5.491   7.160  10.206 -0.3622  1.5309 -1.3195
  177SLPC   H4Y20207   5.501   7.237  10.367 -0.2661  1.4302  0.2572
  177SLPC   C3520208   5.423   7.361  10.206 -0.3285 -1.2193 -0.3944
  177SLPC   H5X20209   5.450   7.439  10.280  1.3043 -0.9691 -1.2016
  177SLPC   H5Y20210   5.317   7.386  10.187  0.0868  2.1924  1.1087
  177SLPC   C3620211   5.502   7.374  10.075  0.0867 -0.6841 -0.1319
  177SLPC   H6X20212   5.611   7.377  10.098  0.3278  0.9675 -1.3392
  177SLPC   H6Y20213   5.478   7.474  10.035 -3.2934 -1.3224 -0.0045
  177SLPC   C3720214   5.461   7.269   9.969 -0.0659 -0.2869 -0.3074
  177SLPC   H7X20215   5.407   7.182  10.013 -2.4979  1.7555  1.0291
  177SLPC   H7Y20216   5.558   7.230   9.932 -0.1789 -0.2573 -0.6362
  177SLPC   C3820217   5.389   7.344   9.853 -0.1083  0.0831  0.4728
  177SLPC   H8X20218   5.463   7.418   9.815 -0.9631  0.5903 -0.2439
  177SLPC   H8Y20219   5.296   7.393   9.889  0.1514  0.0646  1.1900
  177SLPC   C3920220   5.351   7.244   9.745 -0.0511  0.2275  0.4584
  177SLPC   H9X20221   5.250   7.199   9.761 -1.0454  1.1474 -2.5180
  177SLPC   H9Y20222   5.422   7.159   9.740 -1.7387 -1.1585 -1.9405
  177SLPC  C31020223   5.336   7.311   9.609  0.1113  0.7828 -0.0071
  177SLPC  H10X20224   5.409   7.393   9.591  0.8015  0.4862  1.3074
  177SLPC  H10Y20225   5.235   7.358   9.605 -0.2474  0.0285 -0.0241
  177SLPC  C31120226   5.344   7.214   9.490 -0.8064 -0.0434 -0.6309
  177SLPC  H11X20227   5.259   7.145   9.507 -1.1663  0.8405  1.5800
  177SLPC  H11Y20228   5.443   7.165   9.504 -1.1931 -0.5201  0.6532
  177SLPC  C31220229   5.332   7.272   9.351 -0.3643 -0.2174 -0.1916
  177SLPC  H12X20230   5.377   7.206   9.273  0.1522  0.2876 -0.3255
  177SLPC  H12Y20231   5.395   7.363   9.351  0.8045 -0.9973 -0.4731
  177SLPC  C31320232   5.187   7.316   9.318 -0.3475 -0.2699 -0.5410
  177SLPC  H13X20233   5.128   7.364   9.399 -0.1030 -0.4706 -0.2439
  177SLPC  H13Y20234   5.140   7.216   9.318 -0.3792 -0.2550 -0.0672
  177SLPC  C31420235   5.153   7.373   9.178 -0.2491 -0.2910 -0.0235
  177SLPC  H14X20236   5.234   7.446   9.156  0.4177 -0.9709  0.1318
  177SLPC  H14Y20237   5.053   7.421   9.174 -0.7172 -1.3329 -2.3748
  177SLPC  C31520238   5.154   7.270   9.064 -0.2548 -0.1977  0.1512
  177SLPC  H15X20239   5.085   7.188   9.093 -0.1206 -0.7489 -1.0335
  177SLPC  H15Y20240   5.256   7.232   9.044 -0.7213 -1.6033  0.3041
  177SLPC  C31620241   5.117   7.325   8.925  0.3977  0.0747  0.1172
  177SLPC  H16X20242   5.139   7.250   8.846  0.6641 -1.3856  1.5199
  177SLPC  H16Y20243   5.179   7.416   8.912 -2.6155  2.2764 -0.0603
  177SLPC  C31720244   4.963   7.355   8.907 -0.1449 -0.2018 -0.7650
  177SLPC  H17X20245   4.918   7.411   8.991 -0.6336 -1.9921  0.2300
  177SLPC  H17Y20246   4.919   7.253   8.912 -0.0421 -0.1714  1.5649
  177SLPC  C31820247   4.913   7.408   8.774 -0.2835  0.2562  0.1204
  177SLPC  H18X20248   4.803   7.419   8.776 -0.4389 -1.1818  0.7200
  177SLPC  H18Y20249   4.945   7.343   8.690  0.8786 -1.3963  1.7501
  177SLPC  H18Z20250   4.956   7.509   8.759  1.0178 -0.2705  0.2039
  178SLPC     N20251   6.157   6.123  11.289 -0.3446  0.3452 -0.0686
  178SLPC   C1320252   6.261   6.215  11.329 -0.1997 -0.0960  0.8110
  178SLPC  H13A20253   6.251   6.256  11.429 -0.1652  1.7132  0.1065
  178SLPC  H13B20254   6.359   6.171  11.326  0.2720  0.9925 -0.9264
  178SLPC  H13C20255   6.264   6.293  11.255  2.0882 -1.2803 -0.4488
  178SLPC   C1420256   6.019   6.181  11.297 -0.6241  0.6372 -0.1238
  178SLPC  H14A20257   6.017   6.272  11.238  1.6723  0.8365  0.0485
  178SLPC  H14B20258   5.952   6.108  11.253 -1.2017  1.6495 -0.9707
  178SLPC  H14C20259   5.984   6.202  11.397 -1.4842  0.1826 -0.3113
  178SLPC   C1520260   6.153   6.008  11.395 -0.3909  0.5998  0.1770
  178SLPC  H15A20261   6.126   6.053  11.489  1.1849 -0.2195  1.0458
  178SLPC  H15B20262   6.077   5.936  11.371 -1.4854  0.9198  2.4413
  178SLPC  H15C20263   6.247   5.956  11.407 -1.0279 -0.6319 -0.0881
  178SLPC   C1220264   6.177   6.056  11.154  0.4758  0.4432 -0.3652
  178SLPC  H12A20265   6.093   5.990  11.139  0.5500 -0.1298  1.4369
  178SLPC  H12B20266   6.257   5.985  11.167 -0.7234 -0.4760  3.2154
  178SLPC   C1120267   6.185   6.140  11.026  0.2643 -0.7823 -0.4115
  178SLPC  H11A20268   6.201   6.072  10.940  1.1655 -0.7079 -0.3027
  178SLPC  H11B20269   6.269   6.212  11.036 -2.4501  2.4129  1.5245
  178SLPC     P20270   6.041   6.341  10.916 -0.3515  0.0403  0.6722
  178SLPC   O1320271   5.895   6.359  10.882  0.0889 -0.0326  0.1781
  178SLPC   O1420272   6.112   6.459  10.966 -0.2938 -0.0304 -0.7713
  178SLPC   O1220273   6.058   6.212  11.010  0.2668 -0.3018 -0.6824
  178SLPC   O1120274   6.114   6.288  10.780 -0.4265 -0.3365  0.6377
  178SLPC    C120275   6.062   6.182  10.700 -0.0018 -0.6084  0.2968
  178SLPC    HA20276   6.129   6.095  10.719  0.4033  0.0524  2.0459
  178SLPC    HB20277   5.964   6.147  10.739 -0.8754 -0.2925 -1.5010
  178SLPC    C220278   6.060   6.207  10.546 -0.2789 -0.3094 -0.3634
  178SLPC    HS20279   6.165   6.242  10.532 -0.7313  1.0629 -0.4600
  178SLPC   O2120280   5.965   6.311  10.509  0.0494  0.3507 -0.2909
  178SLPC   C2120281   6.010   6.437  10.505  0.2455 -0.7850 -0.6408
  178SLPC   O2220282   6.124   6.468  10.525 -0.0285 -0.2133  0.2786
  178SLPC   C2220283   5.894   6.532  10.467  0.3894 -0.2387 -0.4772
  178SLPC   H2R20284   5.828   6.470  10.404  1.6873 -1.4062 -0.7296
  178SLPC   H2S20285   5.853   6.559  10.567  1.8261 -1.5844  0.5374
  178SLPC    C320286   6.032   6.086  10.461 -0.0317  0.4735 -0.0272
  178SLPC    HX20287   5.933   6.040  10.480  0.5384 -0.2112  1.5182
  178SLPC    HY20288   6.112   6.020  10.501  1.0045  1.4350 -0.4543
  178SLPC   O3120289   6.056   6.103  10.322  0.6195 -0.7990  0.0640
  178SLPC   C3120290   6.072   5.985  10.249 -0.1221  0.1575 -0.1860
  178SLPC   O3220291   6.085   5.877  10.299 -0.0403 -0.1683 -0.1156
  178SLPC   C3220292   6.081   6.022  10.098 -0.1020  0.1876 -0.1893
  178SLPC   H2X20293   6.168   6.091  10.091 -1.9117  2.5237 -0.9794
  178SLPC   H2Y20294   5.989   6.072  10.061  0.9956  0.1794 -3.1786
  178SLPC   C2320295   5.961   6.662  10.406 -0.2979 -0.2825 -0.3535
  178SLPC   H3R20296   6.039   6.690  10.480 -1.7255  2.0989  0.3402
  178SLPC   H3S20297   5.904   6.757  10.399 -0.9647 -0.7497 -1.4679
  178SLPC   C2420298   6.039   6.653  10.272  0.5161 -0.5660 -0.5870
  178SLPC   H4R20299   6.091   6.555  10.265  1.8157 -0.0020  0.6317
  178SLPC   H4S20300   6.111   6.737  10.265 -0.5913  0.4928  0.4000
  178SLPC   C2520301   5.943   6.668  10.156 -0.1342 -0.1797 -0.9181
  178SLPC   H5R20302   5.888   6.764  10.165  1.6037  0.8496 -0.8651
  178SLPC   H5S20303   5.863   6.592  10.162 -0.4890  0.2820  0.5494
  178SLPC   C2620304   6.014   6.670  10.021  0.2241  0.5157  0.4538
  178SLPC   H6R20305   6.052   6.566  10.015 -0.4308  0.3087 -0.3293
  178SLPC   H6S20306   6.083   6.757  10.019  1.5140 -0.4606 -2.2228
  178SLPC   C2720307   5.922   6.682   9.902  0.9610  0.6458 -0.1195
  178SLPC   H7R20308   5.872   6.781   9.909 -1.0685 -0.2976 -0.4025
  178SLPC   H7S20309   5.843   6.605   9.917  0.1890  1.5948  0.8365
  178SLPC   C2820310   6.004   6.680   9.769  0.5606  0.1892  0.1154
  178SLPC   H8R20311   6.059   6.584   9.757 -0.3141 -0.3982  0.6918
  178SLPC   H8S20312   6.076   6.764   9.773 -0.1636  0.9012 -1.1152
  178SLPC   C2920313   5.922   6.686   9.636 -0.4139  0.5048  0.5308
  178SLPC   H9R20314   5.842   6.611   9.630  0.5249 -0.5450  0.9549
  178SLPC  C21020315   5.926   6.775   9.537 -0.0125 -0.8304  0.0538
  178SLPC  H10R20316   5.867   6.764   9.444 -1.3515  2.0472  0.4309
  178SLPC  C21120317   6.005   6.904   9.535 -0.1500 -0.1223  0.5530
  178SLPC  H11R20318   6.078   6.889   9.453 -0.6015 -0.9813  0.3041
  178SLPC  H11S20319   6.067   6.921   9.626  1.4269  2.4489 -0.8638
  178SLPC  C21220320   5.927   7.025   9.505  0.2755  0.4078 -0.1590
  178SLPC  H12R20321   5.915   7.064   9.403  0.8692  1.5343  0.1759
  178SLPC  C21320322   5.871   7.102   9.607 -0.6577 -0.2018  0.0605
  178SLPC  H13R20323   5.805   7.187   9.584  0.4000  0.2332 -1.4389
  178SLPC  C21420324   5.871   7.073   9.755 -0.2974 -0.7721 -0.0893
  178SLPC  H14R20325   5.893   6.964   9.759  1.3421 -0.5786 -2.0734
  178SLPC  H14S20326   5.764   7.094   9.779 -0.4957  0.7408 -2.0218
  178SLPC  C21520327   5.961   7.149   9.849 -0.8021 -0.4342 -0.6268
  178SLPC  H15R20328   5.920   7.252   9.854  0.6524  0.1644 -0.6283
  178SLPC  H15S20329   6.066   7.153   9.812 -1.0501 -0.3366 -1.3412
  178SLPC  C21620330   5.970   7.089   9.988  0.1180 -0.3029  0.5284
  178SLPC  H16R20331   6.051   7.150  10.034 -2.6896  2.3259  2.4189
  178SLPC  H16S20332   6.001   6.984   9.969 -0.6216 -0.0086 -2.9673
  178SLPC  C21720333   5.843   7.110  10.074 -0.6768  0.1866  0.1077
  178SLPC  H17R20334   5.759   7.047  10.037  0.1192 -0.7812 -0.1294
  178SLPC  H17S20335   5.817   7.217  10.078 -1.4807 -0.0134  0.2515
  178SLPC  C21820336   5.890   7.075  10.211  0.7575  0.4414  0.0034
  178SLPC  H18R20337   5.976   7.137  10.241  2.3714 -1.4738 -0.4657
  178SLPC  H18S20338   5.921   6.969  10.228  0.6232 -0.1154 -2.7581
  178SLPC  H18T20339   5.803   7.098  10.277  1.0449  0.6203  0.3176
  178SLPC   C3320340   6.102   5.893  10.019  0.7256  0.1547 -0.8029
  178SLPC   H3X20341   6.021   5.820  10.038  0.1951  0.1492 -2.8727
  178SLPC   H3Y20342   6.197   5.842  10.046 -0.7938 -2.2350  0.3899
  178SLPC   C3420343   6.079   5.926   9.867  0.1914  0.0112 -0.3891
  178SLPC   H4X20344   6.144   6.012   9.841  0.7142 -0.2336  0.0937
  178SLPC   H4Y20345   5.977   5.963   9.846  0.3166  1.8423  1.8298
  178SLPC   C3520346   6.100   5.801   9.776 -0.4219  0.4155  0.0407
  178SLPC   H5X20347   6.039   5.720   9.821  1.4330 -0.3482  1.3326
  178SLPC   H5Y20348   6.205   5.766   9.788 -0.4531  0.5634  0.7926
  178SLPC   C3620349   6.061   5.819   9.627  0.4678 -0.3414 -0.5334
  178SLPC   H6X20350   5.953   5.843   9.620  0.6878  0.4816 -1.4418
  178SLPC   H6Y20351   6.071   5.725   9.569 -0.6600 -1.4263  0.9653
  178SLPC   C3720352   6.156   5.915   9.563 -0.3270 -0.2179 -0.1229
  178SLPC   H7X20353   6.257   5.893   9.603 -0.4226  1.6789  1.3147
  178SLPC   H7Y20354   6.146   6.021   9.595  0.3587 -0.6103  1.4512
  178SLPC   C3820355   6.164   5.906   9.407  0.6219  0.2904  0.1376
  178SLPC   H8X20356   6.084   5.969   9.362 -0.0405 -0.2500  0.5299
  178SLPC   H8Y20357   6.159   5.799   9.379  0.6952  0.3863 -0.2448
  178SLPC   C3920358   6.294   5.951   9.343 -0.2926  0.0864 -0.4676
  178SLPC   H9X20359   6.376   5.879   9.366 -0.4371 -0.6148 -2.0350
  178SLPC   H9Y20360   6.318   6.048   9.392 -0.3249  0.0083 -0.2952
  178SLPC  C31020361   6.283   5.982   9.198  0.2124 -0.1903  0.1310
  178SLPC  H10X20362   6.369   6.041   9.162 -0.1309 -0.9947 -2.2676
  178SLPC  H10Y20363   6.189   6.040   9.183 -0.4280 -1.5171 -1.4778
  178SLPC  C31120364   6.264   5.847   9.120  0.3399  0.5377 -0.3323
  178SLPC  H11X20365   6.177   5.794   9.163  0.3039 -0.3354 -1.4280
  178SLPC  H11Y20366   6.350   5.781   9.142 -0.4975  0.5849  3.8310
  178SLPC  C31220367   6.242   5.857   8.971 -0.0431  0.7096  0.9098
  178SLPC  H12X20368   6.151   5.913   8.941  0.3138  1.7635  1.7497
  178SLPC  H12Y20369   6.222   5.753   8.938  0.0405  1.2806 -1.0883
  178SLPC  C31320370   6.366   5.918   8.903 -0.8329 -0.5217  0.1689
  178SLPC  H13X20371   6.457   5.859   8.926 -0.8358 -1.5713 -2.1493
  178SLPC  H13Y20372   6.374   6.018   8.951  1.3535 -0.0863 -0.9747
  178SLPC  C31420373   6.359   5.945   8.748  0.4051  0.2282  0.3906
  178SLPC  H14X20374   6.391   5.853   8.693  1.5327  1.9545 -2.0617
  178SLPC  H14Y20375   6.433   6.025   8.725  3.1228 -2.2384 -0.0791
  178SLPC  C31520376   6.224   5.984   8.698  0.5305  0.7089  0.0886
  178SLPC  H15X20377   6.140   5.912   8.708 -0.0346  1.5121  1.1726
  178SLPC  H15Y20378   6.201   6.084   8.739 -0.0354  0.0734  1.3533
  178SLPC  C31620379   6.201   5.989   8.542 -0.4973  0.1477 -0.5973
  178SLPC  H16X20380   6.116   6.060   8.532 -0.4396  0.7108  2.0881
  178SLPC  H16Y20381   6.188   5.886   8.504  1.2168 -0.4811  0.3763
  178SLPC  C31720382   6.317   6.066   8.478 -0.4771 -0.5006 -0.2425
  178SLPC  H17X20383   6.420   6.033   8.503 -0.2379 -0.2416 -0.8674
  178SLPC  H17Y20384   6.310   6.170   8.514  1.6079  0.3074 -1.9666
  178SLPC  C31820385   6.318   6.076   8.321 -0.1365 -0.1051 -0.6082
  178SLPC  H18X20386   6.211   6.102   8.306 -0.3414 -0.2251  0.5477
  178SLPC  H18Y20387   6.351   5.982   8.272  1.5433  0.0300  0.2062
  178SLPC  H18Z20388   6.385   6.153   8.277  2.1274 -0.6231  1.7172
  179SLPC     N20389   1.766   3.808  10.562 -0.6866  0.3121 -0.0086
  179SLPC   C1320390   1.677   3.771  10.674  0.1012  0.4740 -1.0521
  179SLPC  H13A20391   1.717   3.799  10.770  1.2589  2.1466 -1.9695
  179SLPC  H13B20392   1.582   3.822  10.667  0.7890  1.6992 -1.9913
  179SLPC  H13C20393   1.662   3.664  10.666 -0.1000  0.5194 -1.3082
  179SLPC   C1420394   1.726   3.738  10.440 -0.3189  0.9101 -0.2077
  179SLPC  H14A20395   1.802   3.751  10.365 -0.6551  0.3587 -0.6536
  179SLPC  H14B20396   1.711   3.634  10.468 -0.5908  1.1103  0.4063
  179SLPC  H14C20397   1.633   3.759  10.389 -0.8176 -4.0530 -1.8903
  179SLPC   C1520398   1.898   3.746  10.595  0.1182  0.0139  0.1577
  179SLPC  H15A20399   1.904   3.639  10.578  3.5436  0.5029 -3.1979
  179SLPC  H15B20400   1.970   3.791  10.528 -0.8836 -0.4353 -1.2647
  179SLPC  H15C20401   1.930   3.774  10.694 -0.1432 -1.1489  0.5931
  179SLPC   C1220402   1.794   3.958  10.543 -0.0372 -0.2286 -0.1004
  179SLPC  H12A20403   1.821   3.992  10.642 -1.7169  0.0275  0.3002
  179SLPC  H12B20404   1.700   4.002  10.512  0.5925 -0.6116 -2.7372
  179SLPC   C1120405   1.888   3.995  10.435 -0.4253  0.9343  0.5629
  179SLPC  H11A20406   1.880   4.104  10.417  1.5101  0.9200 -0.7181
  179SLPC  H11B20407   1.859   3.952  10.336  1.4293  1.7322 -0.3855
  179SLPC     P20408   2.124   3.909  10.376 -0.0137 -0.2663 -0.0856
  179SLPC   O1320409   2.252   3.962  10.410 -0.0849 -0.2842 -0.5001
  179SLPC   O1420410   2.112   3.761  10.388  0.8538 -0.8228 -0.3998
  179SLPC   O1220411   2.020   3.973  10.475  0.5478 -0.1778 -0.3394
  179SLPC   O1120412   2.083   3.959  10.231 -0.1526  0.4770 -0.1200
  179SLPC    C120413   2.112   4.099  10.201  0.6826  0.0371  0.8708
  179SLPC    HA20414   2.042   4.171  10.249  1.2883 -0.9681  3.4274
  179SLPC    HB20415   2.216   4.137  10.210  0.7220 -0.2404  1.5782
  179SLPC    C220416   2.073   4.119  10.055  0.6367  0.0784 -0.0687
  179SLPC    HS20417   2.096   4.222  10.022 -1.3594  0.7161  0.3993
  179SLPC   O2120418   1.931   4.087  10.046 -0.0727  0.2123  0.4482
  179SLPC   C2120419   1.850   4.156   9.956  0.2551  0.0047 -0.0753
  179SLPC   O2220420   1.886   4.252   9.890  0.4942  0.4488 -0.3644
  179SLPC   C2220421   1.713   4.096   9.964  0.3720  0.0180  0.0182
  179SLPC   H2R20422   1.700   4.030  10.053  0.9192  1.1807  0.9843
  179SLPC   H2S20423   1.645   4.184   9.966  0.3508 -0.0016  0.2966
  179SLPC    C320424   2.150   4.023   9.964  0.2722  0.3480  0.4284
  179SLPC    HX20425   2.124   3.919   9.994  1.4400  0.3039  1.3660
  179SLPC    HY20426   2.260   4.031   9.979  0.4706  0.4565 -0.9288
  179SLPC   O3120427   2.112   4.040   9.829 -0.4653 -1.2022 -0.1312
  179SLPC   C3120428   2.172   4.138   9.764  0.0298 -0.5792  0.5043
  179SLPC   O3220429   2.268   4.202   9.798  0.2533 -0.1252 -0.3694
  179SLPC   C3220430   2.088   4.166   9.636  1.1392  0.7583 -0.0796
  179SLPC   H2X20431   2.021   4.241   9.684  0.4608 -0.0783  0.2859
  179SLPC   H2Y20432   2.037   4.073   9.606  1.7937  0.2247  0.4235
  179SLPC   C2320433   1.678   4.011   9.843  0.4459 -0.2481  0.4577
  179SLPC   H3R20434   1.583   3.957   9.863  1.2603 -1.2178  1.8513
  179SLPC   H3S20435   1.758   3.935   9.830  0.7833 -0.5540  3.5899
  179SLPC   C2420436   1.670   4.103   9.714 -0.0904  0.1717  0.6922
  179SLPC   H4R20437   1.765   4.154   9.689  0.2092 -1.0247 -0.6872
  179SLPC   H4S20438   1.583   4.170   9.729  0.2781  1.0588 -0.9885
  179SLPC   C2520439   1.642   4.010   9.594 -0.6189 -0.1964 -0.5940
  179SLPC   H5R20440   1.554   3.945   9.612 -1.3220  0.7911 -0.3603
  179SLPC   H5S20441   1.732   3.946   9.580 -0.7994 -0.8443  0.9519
  179SLPC   C2620442   1.606   4.083   9.467  0.3944 -0.0808  0.1355
  179SLPC   H6R20443   1.660   4.180   9.464 -3.4972  2.3435  0.7816
  179SLPC   H6S20444   1.499   4.111   9.469  0.1206 -1.0532 -0.4374
  179SLPC   C2720445   1.638   4.002   9.345 -0.1165  0.0751  0.4558
  179SLPC   H7R20446   1.582   3.906   9.352 -0.3584  0.0623 -1.2026
  179SLPC   H7S20447   1.748   4.001   9.337 -0.2134 -0.4133 -1.3508
  179SLPC   C2820448   1.585   4.062   9.210 -0.5491 -0.3421 -0.2043
  179SLPC   H8R20449   1.600   4.172   9.211 -1.3542 -0.2264 -0.4424
  179SLPC   H8S20450   1.475   4.047   9.216 -0.2929 -2.3751  0.1418
  179SLPC   C2920451   1.657   4.005   9.097  0.2220 -0.5928 -0.0232
  179SLPC   H9R20452   1.753   4.055   9.074  0.5364  0.2317  2.7211
  179SLPC  C21020453   1.630   3.900   9.029 -0.1697  1.2886  0.0614
  179SLPC  H10R20454   1.687   3.865   8.941  0.3167  1.6311  0.2363
  179SLPC  C21120455   1.511   3.805   9.054  0.2286 -0.0907 -0.5230
  179SLPC  H11R20456   1.451   3.829   9.144 -1.3379  0.0170 -1.5500
  179SLPC  H11S20457   1.549   3.702   9.071  2.4358  0.2733 -2.5862
  179SLPC  C21220458   1.414   3.799   8.936 -0.4408 -0.4020  0.3237
  179SLPC  H12R20459   1.359   3.893   8.918 -0.4071 -0.5170 -0.4010
  179SLPC  C21320460   1.387   3.703   8.848 -0.0224  0.6153  0.0385
  179SLPC  H13R20461   1.319   3.721   8.763  0.2186 -0.4496 -0.3867
  179SLPC  C21420462   1.458   3.570   8.842 -0.2323  0.5776  0.0635
  179SLPC  H14R20463   1.420   3.491   8.911 -1.2307 -0.4120 -1.5456
  179SLPC  H14S20464   1.568   3.574   8.858 -0.3919 -0.8645  1.8118
  179SLPC  C21520465   1.443   3.505   8.705  0.0185  0.4599  0.0316
  179SLPC  H15R20466   1.494   3.556   8.621 -1.0239 -0.2375 -1.0658
  179SLPC  H15S20467   1.333   3.498   8.692  0.3092 -0.2564 -2.6356
  179SLPC  C21620468   1.502   3.364   8.708  0.4963  0.7258 -0.1942
  179SLPC  H16R20469   1.489   3.316   8.609 -1.9838 -0.4806  0.6166
  179SLPC  H16S20470   1.439   3.308   8.781  0.7192 -0.0986 -0.6243
  179SLPC  C21720471   1.648   3.337   8.730 -0.1452 -0.1807 -0.0225
  179SLPC  H17R20472   1.683   3.364   8.832  0.0407 -0.7932  0.0810
  179SLPC  H17S20473   1.694   3.406   8.656  0.0902  0.1918  0.4641
  179SLPC  C21820474   1.676   3.187   8.708 -0.5189 -0.4400 -0.0600
  179SLPC  H18R20475   1.635   3.131   8.795 -1.0256  0.4680  0.3016
  179SLPC  H18S20476   1.786   3.177   8.710 -0.2709  1.8171  2.4002
  179SLPC  H18T20477   1.632   3.148   8.613 -1.4361 -0.0026  0.1794
  179SLPC   C3320478   2.163   4.228   9.521  0.1440 -0.2501  0.8542
  179SLPC   H3X20479   2.257   4.171   9.503  0.0038  0.1774 -1.5497
  179SLPC   H3Y20480   2.193   4.331   9.546  0.1483 -0.5308  2.0440
  179SLPC   C3420481   2.093   4.238   9.387  0.0804 -1.2127 -0.2374
  179SLPC   H4X20482   2.146   4.315   9.327 -0.4075 -1.0803 -0.5049
  179SLPC   H4Y20483   1.991   4.277   9.407  0.2409 -1.6919  1.7108
  179SLPC   C3520484   2.073   4.109   9.314  0.7527 -0.0529  0.3747
  179SLPC   H5X20485   2.029   4.033   9.383  0.4501  0.9187  1.2730
  179SLPC   H5Y20486   2.173   4.068   9.288 -1.0781 -2.7333 -3.4260
  179SLPC   C3620487   2.000   4.115   9.179 -0.5997 -0.3627 -0.4031
  179SLPC   H6X20488   1.907   4.171   9.204 -0.5052 -1.2289  2.0956
  179SLPC   H6Y20489   1.969   4.014   9.142  0.5755 -0.6620 -0.5969
  179SLPC   C3720490   2.085   4.199   9.075  0.5186  0.8073 -0.1346
  179SLPC   H7X20491   2.192   4.174   9.088  0.1844 -0.1204  0.9512
  179SLPC   H7Y20492   2.083   4.309   9.094  1.0690  0.3932  2.6923
  179SLPC   C3820493   2.048   4.167   8.931 -0.0817  0.2409  0.3135
  179SLPC   H8X20494   1.938   4.177   8.918 -0.1174 -0.3942  0.1047
  179SLPC   H8Y20495   2.073   4.060   8.911 -1.0794 -0.6711  3.4729
  179SLPC   C3920496   2.121   4.251   8.826 -0.4056  0.3851  0.5423
  179SLPC   H9X20497   2.085   4.230   8.723 -0.3536 -0.1704  0.6377
  179SLPC   H9Y20498   2.222   4.206   8.820 -0.1182  0.5895  2.9889
  179SLPC  C31020499   2.119   4.408   8.834  0.0513  0.1940 -0.4908
  179SLPC  H10X20500   2.124   4.434   8.942  1.2605  0.4134 -0.5877
  179SLPC  H10Y20501   2.018   4.448   8.812  0.6291  1.9134 -0.2139
  179SLPC  C31120502   2.220   4.469   8.738  0.3214  0.0185 -0.2189
  179SLPC  H11X20503   2.183   4.448   8.636  0.7937  0.0641 -0.4009
  179SLPC  H11Y20504   2.322   4.424   8.749 -0.4934 -1.7010  0.7880
  179SLPC  C31220505   2.233   4.625   8.748  0.7040  0.3663 -0.3748
  179SLPC  H12X20506   2.285   4.662   8.656  0.6438 -0.3063 -0.6900
  179SLPC  H12Y20507   2.278   4.664   8.842 -1.8118 -0.0894  1.1102
  179SLPC  C31320508   2.097   4.697   8.728  0.0450  0.0926 -0.7204
  179SLPC  H13X20509   2.121   4.805   8.740 -0.4983  0.0655  0.8002
  179SLPC  H13Y20510   2.018   4.658   8.796 -0.3139  1.4022 -0.3673
  179SLPC  C31420511   2.042   4.675   8.584 -0.0695  0.0455  0.1097
  179SLPC  H14X20512   2.043   4.567   8.561  1.7382  0.2953 -1.1573
  179SLPC  H14Y20513   2.107   4.730   8.512 -1.7339  0.5591 -1.0685
  179SLPC  C31520514   1.898   4.730   8.567  1.4442  0.3136  0.1869
  179SLPC  H15X20515   1.882   4.832   8.608 -0.7950 -0.0360  0.3441
  179SLPC  H15Y20516   1.838   4.659   8.629 -1.7140  2.4511 -0.1951
  179SLPC  C31620517   1.849   4.727   8.420 -0.5073 -0.0884 -0.6527
  179SLPC  H16X20518   1.876   4.627   8.381  0.2244  0.8422 -2.6823
  179SLPC  H16Y20519   1.914   4.793   8.359  0.0724 -0.8317 -0.8573
  179SLPC  C31720520   1.703   4.763   8.396  0.2909 -0.6014  0.8851
  179SLPC  H17X20521   1.672   4.852   8.456  0.3348  0.4634 -0.6029
  179SLPC  H17Y20522   1.654   4.686   8.459  2.5076 -0.3315  3.0974
  179SLPC  C31820523   1.653   4.774   8.246 -0.5571  0.0032  0.3103
  179SLPC  H18X20524   1.551   4.819   8.240 -1.0354 -1.1211 -0.2249
  179SLPC  H18Y20525   1.641   4.672   8.205  1.6179 -0.7683  1.4538
  179SLPC  H18Z20526   1.722   4.840   8.189  0.5590 -1.4890 -0.0989
  180SLPC     N20527   2.838   2.674  11.056 -0.1605  0.4387 -0.8445
  180SLPC   C1320528   2.743   2.727  11.161 -0.8245 -0.2766 -0.0081
  180SLPC  H13A20529   2.672   2.792  11.112 -1.2930  0.8124  2.0323
  180SLPC  H13B20530   2.693   2.640  11.200 -0.8807 -0.9687 -1.5702
  180SLPC  H13C20531   2.799   2.783  11.235 -0.1445  0.4646 -1.0557
  180SLPC   C1420532   2.917   2.564  11.121 -0.1577  0.5342 -0.0667
  180SLPC  H14A20533   2.957   2.593  11.217  1.2594  0.8416 -0.7152
  180SLPC  H14B20534   2.862   2.474  11.142  0.2365  0.4252  0.5423
  180SLPC  H14C20535   3.001   2.536  11.059  1.2916  1.2035  1.5119
  180SLPC   C1520536   2.943   2.778  11.021  0.1268 -0.5410 -0.1644
  180SLPC  H15A20537   3.020   2.732  10.961 -0.7156 -0.5168 -1.2911
  180SLPC  H15B20538   2.895   2.859  10.969  0.6446  0.2889  0.6141
  180SLPC  H15C20539   3.000   2.808  11.108  2.0182 -0.9363 -1.2208
  180SLPC   C1220540   2.764   2.633  10.931 -0.0296  0.2045 -1.3015
  180SLPC  H12A20541   2.728   2.719  10.876  0.3527  0.1201 -1.6942
  180SLPC  H12B20542   2.675   2.577  10.958  0.6646  0.4538  1.9120
  180SLPC   C1120543   2.833   2.545  10.819  0.5607 -0.4010 -0.1065
  180SLPC  H11A20544   2.752   2.500  10.759  0.3524  0.1756 -0.2710
  180SLPC  H11B20545   2.882   2.454  10.858  0.6282 -0.5901 -0.6188
  180SLPC     P20546   2.902   2.657  10.595 -0.1174  0.3852  0.1645
  180SLPC   O1320547   2.803   2.769  10.601 -0.1092  0.5110  0.2448
  180SLPC   O1420548   3.031   2.691  10.534 -0.1621 -0.1982 -0.0598
  180SLPC   O1220549   2.931   2.606  10.737 -0.6475  0.6148 -0.9102
  180SLPC   O1120550   2.829   2.543  10.527 -0.1958 -0.6720 -0.0462
  180SLPC    C120551   2.878   2.412  10.534 -0.4464  0.1905 -0.2729
  180SLPC    HA20552   2.987   2.413  10.556 -0.3865  2.4372 -0.4367
  180SLPC    HB20553   2.835   2.355  10.620  2.5092  0.2147  1.3474
  180SLPC    C220554   2.868   2.329  10.402 -0.6087 -0.4168 -0.9339
  180SLPC    HS20555   2.915   2.229  10.413 -1.4405 -0.7228 -0.0459
  180SLPC   O2120556   2.940   2.402  10.301  0.1993  0.0566 -0.7237
  180SLPC   C2120557   2.992   2.328  10.202 -0.2343  0.4692  0.7766
  180SLPC   O2220558   2.991   2.202  10.206  0.1366  0.3575  0.6871
  180SLPC   C2220559   3.062   2.411  10.098 -0.7595 -0.3962  0.0630
  180SLPC   H2R20560   2.992   2.488  10.059  0.5024  1.0250  0.5220
  180SLPC   H2S20561   3.152   2.452  10.148 -0.9075  1.2347 -0.9300
  180SLPC    C320562   2.718   2.313  10.354 -0.4616 -0.4926  0.0597
  180SLPC    HX20563   2.683   2.414  10.382  2.8621  0.8321 -0.1822
  180SLPC    HY20564   2.672   2.233  10.416  0.3081 -0.9350  0.0693
  180SLPC   O3120565   2.710   2.283  10.216 -0.5563  0.7601  0.7234
  180SLPC   C3120566   2.622   2.359  10.146 -0.3060 -0.1867 -0.0269
  180SLPC   O3220567   2.560   2.455  10.184  0.6836  0.0151  0.1198
  180SLPC   C3220568   2.637   2.307  10.004  0.3940 -0.2423 -0.6894
  180SLPC   H2X20569   2.644   2.196  10.009 -1.6335 -0.4165 -1.1666
  180SLPC   H2Y20570   2.742   2.331   9.976  0.0358  2.5321  0.0694
  180SLPC   C2320571   3.121   2.331   9.980 -0.1595 -0.0168 -0.3655
  180SLPC   H3R20572   3.173   2.240  10.017  1.0658 -0.3534 -2.7105
  180SLPC   H3S20573   3.196   2.392   9.924  0.8061 -1.0114 -0.1874
  180SLPC   C2420574   3.005   2.272   9.891 -0.7386 -0.3006 -0.0327
  180SLPC   H4R20575   2.934   2.348   9.854 -1.3574 -0.8334  0.0372
  180SLPC   H4S20576   2.949   2.200   9.955 -2.8534 -0.4640 -1.9484
  180SLPC   C2520577   3.075   2.211   9.772 -0.0881  0.2670  0.0255
  180SLPC   H5R20578   3.150   2.136   9.806 -0.9674 -0.8241 -0.3917
  180SLPC   H5S20579   3.131   2.285   9.710 -1.3857 -0.8912 -2.6818
  180SLPC   C2620580   2.982   2.140   9.675  1.0497  0.5731 -0.3606
  180SLPC   H6R20581   2.905   2.213   9.642  2.0531  3.3990  2.9568
  180SLPC   H6S20582   2.933   2.061   9.735 -1.6839  1.4316 -1.2647
  180SLPC   C2720583   3.034   2.076   9.552 -0.3753  0.8144  0.1850
  180SLPC   H7R20584   2.947   2.032   9.499 -1.0302  1.5639  0.6083
  180SLPC   H7S20585   3.097   1.987   9.573 -1.3114  0.4110  1.3998
  180SLPC   C2820586   3.103   2.164   9.454 -0.7550 -0.7099  0.3083
  180SLPC   H8R20587   3.189   2.207   9.509 -1.2971 -1.2425  1.6251
  180SLPC   H8S20588   3.045   2.258   9.438 -0.7231 -0.1379  3.0301
  180SLPC   C2920589   3.148   2.085   9.329  0.2215  0.2661  0.0536
  180SLPC   H9R20590   3.249   2.042   9.333 -0.9669 -2.7216  0.0600
  180SLPC  C21020591   3.061   2.056   9.226 -0.0014 -1.1981  0.0637
  180SLPC  H10R20592   3.107   2.001   9.143  0.2419 -0.6784 -0.1498
  180SLPC  C21120593   2.919   2.088   9.187  0.3560  0.0800 -0.0572
  180SLPC  H11R20594   2.887   2.177   9.245  0.1307 -0.6766  1.0005
  180SLPC  H11S20595   2.852   2.004   9.215 -1.3265  0.8497 -1.5522
  180SLPC  C21220596   2.885   2.118   9.047 -0.2292 -0.8677  0.0519
  180SLPC  H12R20597   2.856   2.224   9.033  2.2445 -0.0173  0.8419
  180SLPC  C21320598   2.894   2.042   8.943 -0.1664 -0.0873  0.2372
  180SLPC  H13R20599   2.877   2.086   8.844 -0.3358  1.5624  0.9670
  180SLPC  C21420600   2.936   1.898   8.946  0.0463  0.2716  0.1000
  180SLPC  H14R20601   2.857   1.827   8.913  0.7781 -0.5267  0.0437
  180SLPC  H14S20602   2.965   1.870   9.050  2.5825  1.4538 -0.2225
  180SLPC  C21520603   3.053   1.851   8.865  0.0953  0.1824  0.1582
  180SLPC  H15R20604   3.055   1.742   8.884 -1.6089 -0.0018 -0.5387
  180SLPC  H15S20605   3.148   1.894   8.905 -0.7871  2.5195 -0.0801
  180SLPC  C21620606   3.062   1.872   8.712  0.0336 -0.0397  0.3708
  180SLPC  H16R20607   3.170   1.891   8.695 -0.2797  1.9204  0.2737
  180SLPC  H16S20608   3.008   1.969   8.698  1.2217  0.4171 -1.3082
  180SLPC  C21720609   3.009   1.752   8.636 -0.2475 -0.4939  0.4438
  180SLPC  H17R20610   3.045   1.661   8.687 -1.2103  0.1256  2.3102
  180SLPC  H17S20611   3.078   1.752   8.549  0.7297 -1.4603  1.1983
  180SLPC  C21820612   2.859   1.746   8.611 -0.4294  0.9275  0.1164
  180SLPC  H18R20613   2.784   1.760   8.691 -1.0295  1.1530 -0.4681
  180SLPC  H18S20614   2.829   1.653   8.559  0.2260  1.9110 -2.2029
  180SLPC  H18T20615   2.834   1.823   8.534  0.7914  0.0010 -1.2685
  180SLPC   C3320616   2.540   2.362   9.896 -0.3105 -0.2394 -0.7055
  180SLPC   H3X20617   2.549   2.471   9.874  0.8383 -0.3768 -0.9717
  180SLPC   H3Y20618   2.431   2.352   9.911 -0.5006  2.1638 -0.0176
  180SLPC   C3420619   2.560   2.291   9.770  0.5767 -0.1341  0.5225
  180SLPC   H4X20620   2.522   2.186   9.775  0.8330 -0.8162 -5.1447
  180SLPC   H4Y20621   2.668   2.290   9.744  0.4191 -0.1980 -0.1577
  180SLPC   C3520622   2.477   2.348   9.655  0.6444  1.0660 -0.3065
  180SLPC   H5X20623   2.489   2.453   9.621 -0.1508  1.7945  1.5807
  180SLPC   H5Y20624   2.372   2.337   9.689  0.2627 -0.1221 -1.7307
  180SLPC   C3620625   2.523   2.269   9.528 -0.1045 -0.2652  0.0698
  180SLPC   H6X20626   2.532   2.161   9.553  1.1259 -0.1746  0.0403
  180SLPC   H6Y20627   2.626   2.296   9.498  0.5489 -3.0140 -0.3700
  180SLPC   C3720628   2.445   2.295   9.406 -0.0683 -0.3421  0.0240
  180SLPC   H7X20629   2.453   2.402   9.379 -1.3237 -0.4315 -0.7954
  180SLPC   H7Y20630   2.335   2.279   9.409 -0.4025  1.2430 -1.8664
  180SLPC   C3820631   2.498   2.222   9.280 -0.2249  0.9114 -0.1411
  180SLPC   H8X20632   2.486   2.117   9.312 -0.1426  0.9560  0.0393
  180SLPC   H8Y20633   2.604   2.258   9.285 -0.0375  0.3264  0.1649
  180SLPC   C3920634   2.412   2.256   9.159  0.3360 -0.1247 -0.2352
  180SLPC   H9X20635   2.357   2.351   9.175  1.7226  0.3593  1.9955
  180SLPC   H9Y20636   2.330   2.181   9.148 -0.1569  0.1031  1.5569
  180SLPC  C31020637   2.484   2.271   9.022  0.3073  0.0763 -0.1323
  180SLPC  H10X20638   2.406   2.262   8.943  0.1116  1.7678 -0.1526
  180SLPC  H10Y20639   2.564   2.196   9.004  0.0044 -0.2641 -0.0942
  180SLPC  C31120640   2.540   2.409   9.007  0.3753 -0.2537  0.2524
  180SLPC  H11X20641   2.628   2.417   9.075  1.3915 -1.3333 -0.8698
  180SLPC  H11Y20642   2.464   2.486   9.030 -1.5392 -0.9074 -3.2278
  180SLPC  C31220643   2.592   2.434   8.857  0.3513  0.1082 -0.0774
  180SLPC  H12X20644   2.648   2.530   8.857 -0.9180  1.0396 -3.9975
  180SLPC  H12Y20645   2.503   2.443   8.790  0.1549 -1.4830 -0.0589
  180SLPC  C31320646   2.690   2.325   8.801  0.0003  0.5921  0.7041
  180SLPC  H13X20647   2.633   2.229   8.793 -0.6510  1.0596 -0.6105
  180SLPC  H13Y20648   2.775   2.299   8.867  0.4514 -2.5749 -0.8983
  180SLPC  C31420649   2.758   2.360   8.668  0.9602 -0.0064  0.8830
  180SLPC  H14X20650   2.674   2.394   8.604  1.4421  2.7224  1.5553
  180SLPC  H14Y20651   2.807   2.272   8.621 -2.0306 -0.8362 -0.9651
  180SLPC  C31520652   2.852   2.483   8.671 -0.2400  0.3987  0.4429
  180SLPC  H15X20653   2.951   2.452   8.712 -0.1001  0.5001  0.1859
  180SLPC  H15Y20654   2.819   2.567   8.737 -0.0379  1.5932 -0.9230
  180SLPC  C31620655   2.875   2.546   8.529  0.5600 -0.6017 -0.2326
  180SLPC  H16X20656   2.779   2.594   8.500 -1.1399 -2.9431  1.1623
  180SLPC  H16Y20657   2.898   2.467   8.454  0.5995  0.8504 -1.8285
  180SLPC  C31720658   2.982   2.647   8.516 -0.8910 -0.0087 -0.0165
  180SLPC  H17X20659   3.017   2.663   8.412  1.6832 -3.0520  0.2161
  180SLPC  H17Y20660   3.078   2.614   8.563 -0.0705  1.6163 -0.4844
  180SLPC  C31820661   2.953   2.789   8.559  0.3341  0.0243 -0.3939
  180SLPC  H18X20662   3.044   2.853   8.553  0.8452 -0.5757  0.5733
  180SLPC  H18Y20663   2.909   2.788   8.661 -0.5201 -3.5414 -0.6488
  180SLPC  H18Z20664   2.872   2.834   8.498 -1.8806 -1.2747  1.4639
  181SLPC     N20665   6.626   6.061  11.003 -0.4018  0.1528  0.0941
  181SLPC   C1320666   6.543   6.071  10.882  0.3039  1.1430  0.1633
  181SLPC  H13A20667   6.450   6.015  10.886  0.1454  1.3010 -0.9071
  181SLPC  H13B20668   6.527   6.175  10.857 -0.7162  0.6303 -1.5170
  181SLPC  H13C20669   6.592   6.026  10.797 -0.8770  0.9859 -0.4652
  181SLPC   C1420670   6.590   5.932  11.070  0.4163 -0.0944  0.6069
  181SLPC  H14A20671   6.648   5.922  11.161  0.1161  2.4317  1.1334
  181SLPC  H14B20672   6.490   5.933  11.111 -0.2990 -1.0098 -1.0118
  181SLPC  H14C20673   6.601   5.852  10.998 -3.3293  1.6082 -2.1948
  181SLPC   C1520674   6.597   6.174  11.102 -0.3809 -0.7620 -0.0163
  181SLPC  H15A20675   6.497   6.212  11.110  0.1595  1.0956 -1.2500
  181SLPC  H15B20676   6.642   6.148  11.196  2.2810 -0.3397 -1.0539
  181SLPC  H15C20677   6.650   6.263  11.070  0.2290 -1.3113 -0.5896
  181SLPC   C1220678   6.777   6.046  10.974  0.4330 -0.0366  0.4904
  181SLPC  H12A20679   6.786   5.970  10.898 -0.6244  0.3659 -0.0578
  181SLPC  H12B20680   6.827   6.014  11.064 -0.2614 -0.2463  0.8042
  181SLPC   C1120681   6.850   6.172  10.910  0.5500  0.3656  0.1794
  181SLPC  H11A20682   6.815   6.186  10.806  0.2604 -1.5318 -0.0158
  181SLPC  H11B20683   6.959   6.153  10.923  0.2469 -0.4962  1.7541
  181SLPC     P20684   6.869   6.430  10.946 -0.2333 -0.1256 -0.6210
  181SLPC   O1320685   6.830   6.518  11.063 -0.4189 -0.4513  0.7148
  181SLPC   O1420686   7.013   6.419  10.911  0.2971  0.2246  0.1072
  181SLPC   O1220687   6.825   6.287  10.998 -0.2137 -0.2110 -0.7554
  181SLPC   O1120688   6.782   6.458  10.818 -0.7791 -0.7586 -0.1020
  181SLPC    C120689   6.838   6.553  10.718 -0.1956  0.4241  0.0573
  181SLPC    HA20690   6.772   6.642  10.720  1.8502  2.0025  1.5222
  181SLPC    HB20691   6.935   6.602  10.738  0.7624 -1.1305 -0.5724
  181SLPC    C220692   6.843   6.500  10.574 -0.5062 -0.5695  0.7763
  181SLPC    HS20693   6.870   6.578  10.499 -0.1224 -0.1249  1.3624
  181SLPC   O2120694   6.718   6.443  10.543  0.3108  0.4918  0.3326
  181SLPC   C2120695   6.620   6.530  10.519  0.3588 -0.6476  0.0980
  181SLPC   O2220696   6.633   6.649  10.521  0.0052 -0.0441 -0.0221
  181SLPC   C2220697   6.499   6.465  10.465  0.4315  0.0786  0.2666
  181SLPC   H2R20698   6.520   6.370  10.412 -2.8536  0.3563 -1.8069
  181SLPC   H2S20699   6.437   6.435  10.552 -0.2241 -2.2594 -0.9342
  181SLPC    C320700   6.949   6.384  10.559 -0.1473 -0.4117 -0.0995
  181SLPC    HX20701   6.930   6.322  10.649  1.4524  1.3868  1.5732
  181SLPC    HY20702   7.047   6.436  10.569  0.4218 -1.1777 -1.4098
  181SLPC   O3120703   6.934   6.312  10.434 -0.2608  0.1160  0.3603
  181SLPC   C3120704   6.978   6.372  10.328 -0.3741 -0.3482  0.3764
  181SLPC   O3220705   7.049   6.475  10.325  0.5650 -0.4648  0.0510
  181SLPC   C3220706   6.938   6.295  10.204  0.0252  0.8320 -0.1735
  181SLPC   H2X20707   6.829   6.278  10.215  0.1414 -0.2641 -0.5340
  181SLPC   H2Y20708   6.984   6.194  10.210  0.0433  0.7335 -1.5946
  181SLPC   C2320709   6.411   6.554  10.370  0.2913 -0.0842  0.1684
  181SLPC   H3R20710   6.376   6.640  10.431 -2.3610 -1.0967  0.1872
  181SLPC   H3S20711   6.317   6.504  10.340 -0.9311  1.1702  1.7214
  181SLPC   C2420712   6.477   6.608  10.241  0.5505  0.0646  0.5977
  181SLPC   H4R20713   6.554   6.679  10.279  1.4113 -0.3216 -0.3799
  181SLPC   H4S20714   6.421   6.688  10.188  0.7484 -0.5689 -0.5920
  181SLPC   C2520715   6.548   6.513  10.146  0.1649  0.0529  0.0075
  181SLPC   H5R20716   6.580   6.421  10.201 -0.0911  0.5006  0.9202
  181SLPC   H5S20717   6.635   6.566  10.101  1.7663 -2.3425  0.1065
  181SLPC   C2620718   6.457   6.479  10.023  0.2907 -0.1122  0.6415
  181SLPC   H6R20719   6.497   6.404   9.952  2.3971  1.9841 -0.5129
  181SLPC   H6S20720   6.425   6.555   9.949  1.9492 -1.2258 -1.3379
  181SLPC   C2720721   6.328   6.402  10.069 -0.3175  0.0475 -0.2362
  181SLPC   H7R20722   6.265   6.477  10.122  1.3966  1.8776 -0.7068
  181SLPC   H7S20723   6.354   6.319  10.138  0.8987 -0.8046 -1.6665
  181SLPC   C2820724   6.229   6.371   9.953 -0.4013 -0.4863  0.2211
  181SLPC   H8R20725   6.208   6.462   9.892 -2.4293  0.2999  1.9756
  181SLPC   H8S20726   6.128   6.347   9.992 -0.5319  1.2326  1.0675
  181SLPC   C2920727   6.277   6.262   9.867 -0.3729 -0.6089  0.3449
  181SLPC   H9R20728   6.325   6.172   9.908 -0.3863 -1.2165 -0.9386
  181SLPC  C21020729   6.257   6.246   9.733 -0.8923  0.1991  0.2848
  181SLPC  H10R20730   6.307   6.160   9.685 -1.5790  1.3074 -2.6378
  181SLPC  C21120731   6.185   6.342   9.639 -0.0633 -0.2264 -0.2054
  181SLPC  H11R20732   6.216   6.449   9.648 -1.0716  0.1358 -0.7815
  181SLPC  H11S20733   6.080   6.340   9.675 -0.6779  0.3058 -1.8718
  181SLPC  C21220734   6.197   6.301   9.496  0.4675  0.0514 -0.4878
  181SLPC  H12R20735   6.156   6.200   9.477  1.8188 -0.4636 -0.7850
  181SLPC  C21320736   6.259   6.362   9.398  0.0749  0.3568  0.0394
  181SLPC  H13R20737   6.249   6.320   9.297  1.8117 -0.8333  0.3008
  181SLPC  C21420738   6.343   6.490   9.402 -0.3816 -0.8760 -0.5517
  181SLPC  H14R20739   6.447   6.451   9.413 -0.3751 -0.7218 -0.0161
  181SLPC  H14S20740   6.330   6.539   9.501  1.2645 -2.3432  0.4603
  181SLPC  C21520741   6.334   6.572   9.275  0.5262 -0.0658  0.2729
  181SLPC  H15R20742   6.347   6.505   9.187  0.2413  0.1410  0.0745
  181SLPC  H15S20743   6.418   6.644   9.271  1.3826 -1.0694 -0.6243
  181SLPC  C21620744   6.200   6.650   9.269 -0.2056  0.3785  0.1546
  181SLPC  H16R20745   6.205   6.753   9.309 -2.4402  0.4524  0.3953
  181SLPC  H16S20746   6.134   6.584   9.330  0.7853 -1.6052 -0.8371
  181SLPC  C21720747   6.149   6.664   9.123  0.7639  0.0300 -0.2727
  181SLPC  H17R20748   6.104   6.569   9.086  0.7533  0.2957 -0.9698
  181SLPC  H17S20749   6.229   6.694   9.052  1.5077  4.3026  2.0269
  181SLPC  C21820750   6.043   6.772   9.106  0.5004 -0.2042  0.0806
  181SLPC  H18R20751   5.961   6.764   9.180 -0.9831  1.2422 -1.3204
  181SLPC  H18S20752   5.990   6.763   9.008  0.1650 -3.0976  0.4426
  181SLPC  H18T20753   6.080   6.876   9.111 -1.3624  0.5052 -0.0505
  181SLPC   C3320754   6.972   6.361  10.068 -0.2437 -0.2525  0.2775
  181SLPC   H3X20755   7.080   6.347  10.046 -0.4064 -1.1641  0.0078
  181SLPC   H3Y20756   6.953   6.471  10.070 -1.8523 -0.4963  0.3320
  181SLPC   C3420757   6.898   6.305   9.954  0.5815  0.6588 -0.6253
  181SLPC   H4X20758   6.794   6.342   9.960  1.1130  1.9737  2.5190
  181SLPC   H4Y20759   6.909   6.195   9.949 -2.1802  0.2586  0.6669
  181SLPC   C3520760   6.941   6.352   9.813  0.5060 -0.4115 -0.0425
  181SLPC   H5X20761   7.047   6.323   9.795  1.1419  0.3496  2.1551
  181SLPC   H5Y20762   6.938   6.463   9.810  0.0316 -0.3551  1.4749
  181SLPC   C3620763   6.850   6.292   9.701  0.0331 -0.5368  0.1934
  181SLPC   H6X20764   6.745   6.287   9.737 -0.0772  0.2957  0.0008
  181SLPC   H6Y20765   6.884   6.187   9.689  3.2983  0.3245  1.1152
  181SLPC   C3720766   6.854   6.368   9.570 -0.1740  0.2526 -0.1116
  181SLPC   H7X20767   6.957   6.384   9.533 -0.1730  2.1252  0.5960
  181SLPC   H7Y20768   6.809   6.469   9.581 -3.2207 -0.5304 -3.6729
  181SLPC   C3820769   6.773   6.311   9.455 -0.3639 -0.7179  0.0503
  181SLPC   H8X20770   6.677   6.300   9.509  0.4423  0.1972  1.7655
  181SLPC   H8Y20771   6.820   6.216   9.421 -0.8532 -1.2978  0.9501
  181SLPC   C3920772   6.751   6.411   9.334  0.4661  0.7023 -0.5515
  181SLPC   H9X20773   6.853   6.430   9.293  0.9468 -0.8768 -0.1393
  181SLPC   H9Y20774   6.701   6.505   9.364  0.4585  0.1613  1.2481
  181SLPC  C31020775   6.675   6.349   9.220  0.3840 -0.3413  0.0961
  181SLPC  H10X20776   6.576   6.315   9.256 -0.0288  0.4517 -0.2557
  181SLPC  H10Y20777   6.742   6.264   9.193  2.7542  1.8278 -1.2630
  181SLPC  C31120778   6.658   6.450   9.106  0.1080  0.1069  0.0864
  181SLPC  H11X20779   6.756   6.449   9.053  0.5229 -0.7606  0.8392
  181SLPC  H11Y20780   6.626   6.552   9.137 -0.3864 -0.0547  0.1068
  181SLPC  C31220781   6.561   6.392   8.997  0.0346  0.0301  0.2254
  181SLPC  H12X20782   6.456   6.403   9.030  0.1513  1.0854  0.2887
  181SLPC  H12Y20783   6.573   6.284   8.971 -0.4975 -0.1706  0.7951
  181SLPC  C31320784   6.565   6.465   8.857  0.4104 -0.1433  0.1104
  181SLPC  H13X20785   6.665   6.471   8.809  0.4832  0.3999  0.3223
  181SLPC  H13Y20786   6.551   6.571   8.887 -1.2429 -0.3546  0.1755
  181SLPC  C31420787   6.459   6.413   8.758  0.4183  0.2008 -0.0090
  181SLPC  H14X20788   6.360   6.412   8.808  0.8344  2.1243  0.9527
  181SLPC  H14Y20789   6.482   6.305   8.743  0.1381 -0.5923  4.1422
  181SLPC  C31520790   6.460   6.490   8.631 -0.5895  0.2704 -0.1282
  181SLPC  H15X20791   6.382   6.448   8.564 -0.0167 -0.9558 -0.0478
  181SLPC  H15Y20792   6.564   6.487   8.593 -0.8786  0.5711 -0.9641
  181SLPC  C31620793   6.431   6.640   8.660 -0.1290 -0.5122  0.5484
  181SLPC  H16X20794   6.414   6.695   8.565 -1.1726  0.0083  1.0207
  181SLPC  H16Y20795   6.514   6.692   8.713  1.3961 -1.4235 -0.8727
  181SLPC  C31720796   6.301   6.648   8.740  0.2955  0.0191  0.6331
  181SLPC  H17X20797   6.327   6.663   8.847  0.7814  2.1186  0.2825
  181SLPC  H17Y20798   6.230   6.565   8.723 -0.9167  0.8322  1.5889
  181SLPC  C31820799   6.225   6.777   8.703  0.0933  0.2092  0.1899
  181SLPC  H18X20800   6.174   6.820   8.793 -2.3403 -0.5147 -0.7600
  181SLPC  H18Y20801   6.139   6.752   8.638 -0.3162  1.2294  0.3184
  181SLPC  H18Z20802   6.278   6.859   8.650 -1.2176  0.6296 -0.5326
  182SLPC     N20803   3.101   6.046  10.770 -1.2416  0.3773 -0.4340
  182SLPC   C1320804   3.162   5.998  10.900 -0.2827  0.3753  0.4135
  182SLPC  H13A20805   3.256   6.049  10.915 -0.1946  0.3434 -0.0111
  182SLPC  H13B20806   3.110   6.030  10.990  0.4468 -2.7962  2.0931
  182SLPC  H13C20807   3.165   5.890  10.902  0.0826  0.3994  1.3904
  182SLPC   C1420808   3.091   6.193  10.790 -0.2550  0.0471  1.0062
  182SLPC  H14A20809   3.189   6.237  10.802 -0.4960  0.1640  2.8374
  182SLPC  H14B20810   3.038   6.242  10.709 -0.7830  0.3467  1.5291
  182SLPC  H14C20811   3.042   6.217  10.883  0.8745  0.2030  1.5733
  182SLPC   C1520812   2.966   5.984  10.768 -0.8792  0.2473 -0.8664
  182SLPC  H15A20813   2.906   6.021  10.686 -0.3589 -0.4380 -1.5678
  182SLPC  H15B20814   2.982   5.879  10.750 -0.8769 -0.1147  1.0092
  182SLPC  H15C20815   2.919   5.985  10.866  0.9469 -1.4273  0.0965
  182SLPC   C1220816   3.179   6.003  10.650 -0.3807 -0.5062  0.1639
  182SLPC  H12A20817   3.100   6.001  10.575 -2.6154 -3.3110  2.3494
  182SLPC  H12B20818   3.206   5.901  10.672  0.2938 -0.0607  1.4790
  182SLPC   C1120819   3.302   6.088  10.602 -0.8447  0.6411  0.1934
  182SLPC  H11A20820   3.269   6.194  10.603 -0.3284  0.8307  2.2533
  182SLPC  H11B20821   3.326   6.049  10.501 -0.0274  1.5450  0.0347
  182SLPC     P20822   3.511   5.953  10.691  0.2455 -0.2187 -0.0600
  182SLPC   O1320823   3.619   5.969  10.793  0.0080  0.4306  0.1746
  182SLPC   O1420824   3.433   5.831  10.701  0.2324 -0.1923 -0.1246
  182SLPC   O1220825   3.412   6.079  10.694  0.7374 -0.2983 -0.2268
  182SLPC   O1120826   3.571   5.966  10.543 -0.0496  0.4257 -0.0968
  182SLPC    C120827   3.670   6.069  10.510 -0.0846  0.5650  0.1002
  182SLPC    HA20828   3.673   6.155  10.581  0.7361  0.4079  0.2710
  182SLPC    HB20829   3.769   6.021  10.528  0.1072  1.3438  1.2363
  182SLPC    C220830   3.664   6.123  10.363  0.1078  0.3612  0.3953
  182SLPC    HS20831   3.759   6.168  10.327  1.2281 -3.8997 -2.7843
  182SLPC   O2120832   3.553   6.221  10.346 -0.8183  0.4228  0.1117
  182SLPC   C2120833   3.557   6.335  10.413 -0.6425  1.0965 -0.0150
  182SLPC   O2220834   3.657   6.374  10.477 -0.3939  0.0780 -0.1144
  182SLPC   C2220835   3.421   6.399  10.425 -0.2442  0.4603  0.0217
  182SLPC   H2R20836   3.347   6.319  10.405 -0.7064  0.5248  1.3464
  182SLPC   H2S20837   3.408   6.433  10.530  0.1273  0.2357  0.1410
  182SLPC    C320838   3.646   6.006  10.259 -0.2938 -0.6347 -0.4139
  182SLPC    HX20839   3.541   5.970  10.265 -1.2873  2.2278  1.7610
  182SLPC    HY20840   3.721   5.927  10.283  1.8608  1.4990  0.2200
  182SLPC   O3120841   3.660   6.063  10.132  0.0587 -0.1534  0.1953
  182SLPC   C3120842   3.741   6.008  10.048 -0.6465  0.0891  0.5904
  182SLPC   O3220843   3.817   5.922  10.076  0.4660  0.4935  0.3006
  182SLPC   C3220844   3.718   6.066   9.903  0.0007 -0.0159 -0.0675
  182SLPC   H2X20845   3.720   6.177   9.910  0.2914 -0.0158 -0.1368
  182SLPC   H2Y20846   3.616   6.029   9.878  1.0729 -2.0486 -1.7160
  182SLPC   C2320847   3.402   6.511  10.324 -0.1967 -0.3871 -0.2066
  182SLPC   H3R20848   3.416   6.470  10.221 -0.6785 -1.6471  0.2167
  182SLPC   H3S20849   3.483   6.586  10.342 -0.8979  0.7806 -1.7096
  182SLPC   C2420850   3.262   6.573  10.347  0.4056  0.0438  0.6475
  182SLPC   H4R20851   3.245   6.595  10.455 -1.3190 -0.1019  0.4223
  182SLPC   H4S20852   3.190   6.495  10.316  0.2022 -0.1224  1.4993
  182SLPC   C2520853   3.233   6.714  10.286 -0.4691  0.1799  0.2826
  182SLPC   H5R20854   3.244   6.706  10.176  1.1833 -1.1542  0.5075
  182SLPC   H5S20855   3.315   6.781  10.320  2.5034 -1.2267 -3.4435
  182SLPC   C2620856   3.094   6.796  10.323  0.2120  0.2458  1.1038
  182SLPC   H6R20857   3.085   6.815  10.432  0.1871 -0.1414  1.1710
  182SLPC   H6S20858   3.012   6.729  10.288 -0.0894  1.4173 -0.5698
  182SLPC   C2720859   3.079   6.929  10.241  0.0692  0.0340  0.3306
  182SLPC   H7R20860   3.173   6.989  10.248  2.4826 -3.5309  1.0111
  182SLPC   H7S20861   3.003   6.999  10.283  0.8053  0.0660  1.6871
  182SLPC   C2820862   3.036   6.909  10.095  0.7805 -0.1844  0.5099
  182SLPC   H8R20863   3.096   6.826  10.052  2.7183  0.3520  2.0488
  182SLPC   H8S20864   3.061   7.004  10.043  1.4829  0.0389  1.2394
  182SLPC   C2920865   2.894   6.875  10.088  0.0121  0.5776  0.4921
  182SLPC   H9R20866   2.852   6.802  10.159  0.3501 -2.1017 -1.8762
  182SLPC  C21020867   2.810   6.934  10.004  0.5911 -0.4765  0.1667
  182SLPC  H10R20868   2.706   6.898   9.999  0.1593  0.7105  0.1892
  182SLPC  C21120869   2.843   7.038   9.900 -0.2839 -0.9050 -0.0349
  182SLPC  H11R20870   2.862   6.977   9.810  1.7489  0.4940 -0.6259
  182SLPC  H11S20871   2.935   7.097   9.916 -0.6364 -0.5163  0.5949
  182SLPC  C21220872   2.724   7.128   9.863 -0.7308  0.2814  0.3160
  182SLPC  H12R20873   2.638   7.122   9.931  0.0781 -1.9947  1.2590
  182SLPC  C21320874   2.721   7.199   9.750  0.1059  0.0645 -0.1438
  182SLPC  H13R20875   2.629   7.247   9.715  0.3355 -0.3038 -1.3107
  182SLPC  C21420876   2.820   7.207   9.641  0.2929 -0.5410 -0.1659
  182SLPC  H14R20877   2.901   7.132   9.656 -0.0075 -1.2076 -1.6944
  182SLPC  H14S20878   2.869   7.307   9.642 -1.9821  0.6810  2.8238
  182SLPC  C21520879   2.771   7.175   9.497  0.7624  0.3198  0.0437
  182SLPC  H15R20880   2.680   7.230   9.468  1.1100  1.0446  0.2999
  182SLPC  H15S20881   2.746   7.069   9.479 -1.0053  0.5169  1.1178
  182SLPC  C21620882   2.874   7.201   9.386  0.1997  0.1196  0.2895
  182SLPC  H16R20883   2.978   7.192   9.424 -0.1280 -2.2348  0.8172
  182SLPC  H16S20884   2.861   7.307   9.357 -0.4952 -0.4856 -1.7524
  182SLPC  C21720885   2.856   7.103   9.262 -0.0391 -0.1975  0.2178
  182SLPC  H17R20886   2.748   7.086   9.243  0.2799 -0.7505 -1.1852
  182SLPC  H17S20887   2.881   6.997   9.287 -0.9022 -0.4983 -0.1677
  182SLPC  C21820888   2.941   7.155   9.146  0.4666  0.2062 -0.7300
  182SLPC  H18R20889   2.938   7.098   9.051  0.5181 -0.0377 -0.5873
  182SLPC  H18S20890   3.048   7.151   9.174  0.0506  0.5161  1.0399
  182SLPC  H18T20891   2.916   7.260   9.121  0.0077  0.2097 -0.2882
  182SLPC   C3320892   3.821   6.025   9.799 -0.4164 -0.2910 -0.3620
  182SLPC   H3X20893   3.837   5.916   9.812 -1.9593 -0.5337 -0.3192
  182SLPC   H3Y20894   3.919   6.074   9.816 -0.7044  0.0006  0.5089
  182SLPC   C3420895   3.776   6.052   9.657 -0.3625  0.4658  0.0849
  182SLPC   H4X20896   3.807   6.157   9.639  0.6655  0.2392  0.4148
  182SLPC   H4Y20897   3.667   6.041   9.643 -0.0945 -0.8880 -1.2604
  182SLPC   C3520898   3.844   5.961   9.545 -0.1004 -0.3200 -0.1393
  182SLPC   H5X20899   3.826   5.854   9.569 -0.2601  0.2708  2.6675
  182SLPC   H5Y20900   3.952   5.986   9.543 -0.3970  0.9918 -1.2070
  182SLPC   C3620901   3.802   6.009   9.408  0.4635 -0.5135  0.2398
  182SLPC   H6X20902   3.801   6.119   9.414 -0.3362 -0.5444  1.0635
  182SLPC   H6Y20903   3.700   5.972   9.383  0.0343 -0.3610  1.6503
  182SLPC   C3720904   3.894   5.967   9.288 -0.5219  0.1334 -0.0226
  182SLPC   H7X20905   3.905   5.856   9.284 -1.3120  0.0269  0.5839
  182SLPC   H7Y20906   3.993   6.012   9.311  0.5495 -1.3284 -1.5388
  182SLPC   C3820907   3.846   6.024   9.161  0.0269  0.2179  0.1416
  182SLPC   H8X20908   3.847   6.135   9.168  0.9029  0.1417  1.6857
  182SLPC   H8Y20909   3.737   6.003   9.150  0.7744 -3.7993 -1.2227
  182SLPC   C3920910   3.938   5.983   9.046 -0.6277 -0.8368 -0.7277
  182SLPC   H9X20911   4.044   6.006   9.072 -1.2209 -1.7198  3.1862
  182SLPC   H9Y20912   3.909   6.044   8.958  0.5147  0.8828  0.0221
  182SLPC  C31020913   3.923   5.835   9.014  0.1240  0.3925  0.0493
  182SLPC  H10X20914   3.816   5.817   8.988 -0.2588  0.9040  1.2156
  182SLPC  H10Y20915   3.944   5.765   9.098 -0.5331 -0.6784 -0.6495
  182SLPC  C31120916   4.015   5.794   8.900  0.2805  0.4938  0.5440
  182SLPC  H11X20917   4.119   5.814   8.936  0.4902 -2.2433  1.6964
  182SLPC  H11Y20918   3.987   5.859   8.814  2.6688 -2.2913 -2.6528
  182SLPC  C31220919   4.001   5.649   8.851  0.3231 -0.1246 -0.2231
  182SLPC  H12X20920   3.898   5.634   8.812 -0.0638 -1.0958  1.1000
  182SLPC  H12Y20921   4.015   5.591   8.945 -0.7326  2.7309  1.8729
  182SLPC  C31320922   4.102   5.608   8.744 -0.4537 -0.4918  0.0371
  182SLPC  H13X20923   4.105   5.498   8.727  1.3923 -0.8490  2.1464
  182SLPC  H13Y20924   4.203   5.635   8.783  0.2083 -0.3468 -1.6591
  182SLPC  C31420925   4.089   5.677   8.603 -0.6537  0.2313  0.4943
  182SLPC  H14X20926   4.186   5.676   8.550 -0.0302 -0.9521  1.5922
  182SLPC  H14Y20927   4.071   5.785   8.620 -1.0483  0.1201  0.7916
  182SLPC  C31520928   3.978   5.607   8.512 -0.1667  0.8019  0.0234
  182SLPC  H15X20929   3.878   5.604   8.561  0.0011 -0.3910  0.3362
  182SLPC  H15Y20930   4.006   5.505   8.477 -1.3890  0.9955 -1.6493
  182SLPC  C31620931   3.959   5.681   8.379 -0.0423 -0.3599  0.4503
  182SLPC  H16X20932   3.971   5.792   8.386  0.2961 -0.2784 -1.0927
  182SLPC  H16Y20933   3.858   5.657   8.339  0.8117 -1.6579 -0.9974
  182SLPC  C31720934   4.056   5.636   8.273  0.0514 -0.2776  0.6176
  182SLPC  H17X20935   4.065   5.526   8.259 -1.4461 -0.3833  0.3607
  182SLPC  H17Y20936   4.157   5.661   8.312  0.6589 -1.6215 -0.0494
  182SLPC  C31820937   4.038   5.707   8.135  0.2772 -0.3720 -0.3122
  182SLPC  H18X20938   3.935   5.681   8.104 -0.4071  1.3214  0.4318
  182SLPC  H18Y20939   4.111   5.688   8.054 -1.9315  2.0153 -3.0820
  182SLPC  H18Z20940   4.048   5.815   8.159  0.1877 -0.4090 -0.1042
  183SLPC     N20941   5.314   1.359  11.343  0.0904  0.0475 -0.0643
  183SLPC   C1320942   5.202   1.272  11.314 -0.0060  0.2582  0.0257
  183SLPC  H13A20943   5.114   1.308  11.366 -0.9038  1.0920 -1.9459
  183SLPC  H13B20944   5.179   1.271  11.208  0.2289 -1.6805 -0.0439
  183SLPC  H13C20945   5.231   1.172  11.343 -0.2480  0.0740 -0.3599
  183SLPC   C1420946   5.362   1.329  11.484 -0.8040  0.5999 -0.1380
  183SLPC  H14A20947   5.403   1.231  11.499 -0.3483  1.0712  1.9444
  183SLPC  H14B20948   5.436   1.405  11.504 -2.3302  1.6777  1.8420
  183SLPC  H14C20949   5.288   1.331  11.563 -0.5707 -3.3523  0.3999
  183SLPC   C1520950   5.266   1.501  11.343 -0.4687  1.0763 -0.0389
  183SLPC  H15A20951   5.348   1.564  11.373  0.6468 -0.1084 -0.5070
  183SLPC  H15B20952   5.249   1.539  11.243  2.0191 -1.2328 -1.4810
  183SLPC  H15C20953   5.184   1.517  11.411 -1.7104 -0.3168 -1.1327
  183SLPC   C1220954   5.426   1.340  11.239 -0.1762  0.0786  0.1008
  183SLPC  H12A20955   5.450   1.237  11.220 -0.8471 -0.1628  0.5089
  183SLPC  H12B20956   5.517   1.395  11.257 -0.3083  0.3762 -0.1146
  183SLPC   C1120957   5.400   1.405  11.096  0.0246  0.0210 -0.4416
  183SLPC  H11A20958   5.497   1.401  11.042 -0.7600 -1.3630 -1.8157
  183SLPC  H11B20959   5.361   1.509  11.105 -1.1183 -0.4473  0.3171
  183SLPC     P20960   5.261   1.397  10.876  0.5552  0.2274 -0.0398
  183SLPC   O1320961   5.138   1.341  10.815  0.4984  0.3383 -0.1192
  183SLPC   O1420962   5.274   1.545  10.875  0.0961  0.1057  0.2939
  183SLPC   O1220963   5.303   1.332  11.018  0.3080 -0.0128 -0.0845
  183SLPC   O1120964   5.380   1.341  10.790  0.2987  0.6406 -0.7467
  183SLPC    C120965   5.484   1.413  10.736  0.7134 -0.1117  0.3597
  183SLPC    HA20966   5.459   1.519  10.715 -0.5895 -0.1087  1.7795
  183SLPC    HB20967   5.563   1.413  10.814 -0.5708 -0.6584  1.7176
  183SLPC    C220968   5.544   1.352  10.603 -0.1434 -0.1354 -1.0679
  183SLPC    HS20969   5.644   1.399  10.588 -0.3545  0.6422 -0.1966
  183SLPC   O2120970   5.454   1.367  10.489  0.0102 -0.8537 -0.1390
  183SLPC   C2120971   5.430   1.503  10.452 -0.3393  0.5444  0.1733
  183SLPC   O2220972   5.496   1.597  10.488  0.3799  0.2199 -0.2301
  183SLPC   C2220973   5.290   1.501  10.379 -0.0820  0.5061 -0.2400
  183SLPC   H2R20974   5.291   1.411  10.314  0.9342  1.7274 -2.0211
  183SLPC   H2S20975   5.217   1.481  10.460  0.9434 -2.7902  0.0261
  183SLPC    C320976   5.582   1.199  10.623  0.1810 -0.2499  0.8895
  183SLPC    HX20977   5.489   1.138  10.618  1.2467 -1.8141 -1.7040
  183SLPC    HY20978   5.623   1.174  10.723 -0.1762 -0.5945  0.9517
  183SLPC   O3120979   5.669   1.164  10.514  0.1870 -0.8618  0.1646
  183SLPC   C3120980   5.681   1.030  10.487 -0.6376 -0.1857 -0.0866
  183SLPC   O3220981   5.632   0.942  10.562 -0.0877 -0.8119  0.0500
  183SLPC   C3220982   5.753   1.003  10.355  0.6907  0.1775 -0.0654
  183SLPC   H2X20983   5.852   1.052  10.356  0.7771  0.0914 -1.9772
  183SLPC   H2Y20984   5.699   1.070  10.284 -2.0804 -1.0451  0.7355
  183SLPC   C2320985   5.271   1.625  10.296  0.2544 -0.4643  0.0180
  183SLPC   H3R20986   5.365   1.661  10.249  0.4383 -1.2751 -0.2531
  183SLPC   H3S20987   5.246   1.707  10.366  0.3592  1.8097 -2.4643
  183SLPC   C2420988   5.162   1.607  10.188  1.6478  0.0411 -0.6549
  183SLPC   H4R20989   5.111   1.705  10.175  0.7671 -0.5109 -1.5075
  183SLPC   H4S20990   5.087   1.536  10.228  1.9347  1.0200  1.8400
  183SLPC   C2520991   5.224   1.557  10.061 -0.4360 -0.4182  0.2837
  183SLPC   H5R20992   5.274   1.460  10.083 -2.6681 -1.3951  1.3431
  183SLPC   H5S20993   5.300   1.632  10.028 -1.1874  0.5927  0.7719
  183SLPC   C2620994   5.117   1.540   9.944 -0.3634  0.4758 -0.4313
  183SLPC   H6R20995   5.089   1.641   9.907 -0.6795  0.7307  0.4725
  183SLPC   H6S20996   5.028   1.490   9.988 -0.7808  1.9249  0.4190
  183SLPC   C2720997   5.176   1.450   9.837 -0.1408 -0.1489 -0.2663
  183SLPC   H7R20998   5.247   1.384   9.889  1.3913  0.4323 -1.5320
  183SLPC   H7S20999   5.245   1.503   9.768 -0.2974 -0.9137 -1.0206
  183SLPC   C2821000   5.076   1.380   9.746 -0.1844  0.5599  0.3627
  183SLPC   H8R21001   5.040   1.471   9.693 -1.6663  0.5704  1.3395
  183SLPC   H8S21002   4.997   1.326   9.802 -0.6426  0.8698  0.0276
  183SLPC   C2921003   5.139   1.282   9.647  0.2870 -0.0339 -0.1581
  183SLPC   H9R21004   5.139   1.179   9.686  0.0466  0.6117  1.6575
  183SLPC  C21021005   5.194   1.315   9.522  0.1544 -0.3855  0.4049
  183SLPC  H10R21006   5.228   1.232   9.459  0.4051  1.1835 -1.6456
  183SLPC  C21121007   5.202   1.463   9.469 -0.2942  0.2209 -0.1440
  183SLPC  H11R21008   5.288   1.507   9.524 -1.7301  0.4173  2.0378
  183SLPC  H11S21009   5.120   1.527   9.506  1.2135  1.1209  1.8535
  183SLPC  C21221010   5.227   1.484   9.326  0.1261 -0.4318  0.5427
  183SLPC  H12R21011   5.302   1.416   9.283  0.0913  0.5940 -1.2504
  183SLPC  C21321012   5.161   1.560   9.240  0.3947 -0.4567 -0.0320
  183SLPC  H13R21013   5.193   1.573   9.135 -1.4574  2.7832 -0.3306
  183SLPC  C21421014   5.040   1.647   9.279 -0.4215  0.1141 -0.0400
  183SLPC  H14R21015   5.037   1.736   9.213 -2.1780 -1.8421 -2.8669
  183SLPC  H14S21016   5.043   1.684   9.383  0.7844  0.4254 -0.1750
  183SLPC  C21521017   4.916   1.558   9.242 -0.1092  0.0174 -0.3915
  183SLPC  H15R21018   4.824   1.584   9.300 -0.1471  0.5995 -0.7021
  183SLPC  H15S21019   4.936   1.450   9.258 -1.5352 -0.1579  0.3999
  183SLPC  C21621020   4.877   1.561   9.092 -0.0556 -0.4926  0.3857
  183SLPC  H16R21021   4.962   1.527   9.029 -1.2851 -0.7886 -1.1941
  183SLPC  H16S21022   4.850   1.667   9.070  0.6979  0.3085  3.0082
  183SLPC  C21721023   4.757   1.471   9.063  0.5460  1.0515 -0.3735
  183SLPC  H17R21024   4.677   1.485   9.138  1.0954  0.9296  0.2418
  183SLPC  H17S21025   4.791   1.365   9.067 -0.2752  0.7050 -1.6777
  183SLPC  C21821026   4.678   1.501   8.930 -0.1083 -0.2319 -0.2490
  183SLPC  H18R21027   4.752   1.503   8.847 -0.2337  0.7805 -0.3521
  183SLPC  H18S21028   4.624   1.595   8.951 -2.0506 -1.2079 -0.6338
  183SLPC  H18T21029   4.595   1.427   8.928 -0.1365 -0.5094  3.4429
  183SLPC   C3321030   5.756   0.854  10.308 -0.1470  0.1535 -0.4391
  183SLPC   H3X21031   5.652   0.821  10.288  0.2424 -0.6734 -1.1833
  183SLPC   H3Y21032   5.791   0.791  10.393 -1.4462  0.5016  0.3825
  183SLPC   C3421033   5.839   0.836  10.196 -0.3487 -0.1547 -0.0714
  183SLPC   H4X21034   5.857   0.728  10.177 -0.1968 -0.1551  0.0780
  183SLPC   H4Y21035   5.939   0.873  10.226 -1.2395  1.1213  1.5180
  183SLPC   C3521036   5.772   0.901  10.070  0.4636 -0.0134 -0.5561
  183SLPC   H5X21037   5.768   1.012  10.073  0.4657  0.0259 -1.7741
  183SLPC   H5Y21038   5.668   0.861  10.066 -0.2271  1.5487  0.4045
  183SLPC   C3621039   5.845   0.855   9.945  0.5319 -0.2938  0.2673
  183SLPC   H6X21040   5.854   0.744   9.947 -0.0580 -0.4008 -1.4188
  183SLPC   H6Y21041   5.951   0.888   9.950  0.9637 -1.5469 -0.3012
  183SLPC   C3721042   5.792   0.917   9.815  0.3648  0.8821 -0.7527
  183SLPC   H7X21043   5.879   0.926   9.747  2.3506 -2.7146  1.0058
  183SLPC   H7Y21044   5.742   1.015   9.832 -0.2330  0.3731  0.5710
  183SLPC   C3821045   5.677   0.842   9.744  0.3434 -0.1483 -0.1153
  183SLPC   H8X21046   5.632   0.903   9.663  0.6842 -1.9785 -1.7487
  183SLPC   H8Y21047   5.599   0.826   9.822  1.4628 -0.3816  0.9819
  183SLPC   C3921048   5.701   0.709   9.677 -0.3138  0.3368  0.8875
  183SLPC   H9X21049   5.610   0.665   9.631 -0.1890 -0.6584  1.5436
  183SLPC   H9Y21050   5.726   0.645   9.765  0.9058  0.2298  0.4811
  183SLPC  C31021051   5.821   0.695   9.581 -0.3482  0.0319  0.0874
  183SLPC  H10X21052   5.841   0.587   9.565  1.1157  0.4728 -1.3584
  183SLPC  H10Y21053   5.912   0.742   9.625 -0.7164 -0.0173  0.9024
  183SLPC  C31121054   5.794   0.770   9.449  0.3293 -0.1188  1.0721
  183SLPC  H11X21055   5.759   0.875   9.460 -0.1059 -0.2038  0.5746
  183SLPC  H11Y21056   5.712   0.717   9.395  1.1557 -1.6908  1.2907
  183SLPC  C31221057   5.912   0.768   9.347  0.2367  0.0363 -0.4381
  183SLPC  H12X21058   5.931   0.663   9.316 -1.2579  0.1443 -1.8817
  183SLPC  H12Y21059   6.010   0.796   9.392  0.8438 -0.8831 -1.1259
  183SLPC  C31321060   5.880   0.846   9.216  0.1149  0.5960 -0.3703
  183SLPC  H13X21061   5.971   0.851   9.152 -0.5131 -0.3806 -1.3784
  183SLPC  H13Y21062   5.853   0.949   9.248 -0.2743  0.9505 -1.7967
  183SLPC  C31421063   5.771   0.770   9.139  0.0768 -0.0732  0.0377
  183SLPC  H14X21064   5.665   0.793   9.166  0.1532 -0.5609  0.7740
  183SLPC  H14Y21065   5.785   0.663   9.162  1.7412  0.1020 -0.0314
  183SLPC  C31521066   5.783   0.799   8.989 -0.1480  0.0699  0.4797
  183SLPC  H15X21067   5.874   0.744   8.956 -0.6431 -0.8809  0.6787
  183SLPC  H15Y21068   5.796   0.909   8.981 -0.1970  0.0303 -0.1810
  183SLPC  C31621069   5.669   0.746   8.901  0.7666  0.5570 -0.1080
  183SLPC  H16X21070   5.695   0.773   8.796 -1.3537  2.2543 -0.2734
  183SLPC  H16Y21071   5.571   0.795   8.916 -0.3933 -1.3771 -0.9687
  183SLPC  C31721072   5.633   0.597   8.922 -0.0283  0.4616 -0.4621
  183SLPC  H17X21073   5.607   0.582   9.029  2.0347 -1.1148 -0.1101
  183SLPC  H17Y21074   5.706   0.519   8.891 -1.9708 -1.2492 -0.9439
  183SLPC  C31821075   5.501   0.559   8.853  0.3626  0.0708  0.1074
  183SLPC  H18X21076   5.417   0.616   8.899 -0.5734 -1.2915  0.1246
  183SLPC  H18Y21077   5.479   0.451   8.847  0.4679  0.0641 -0.1614
  183SLPC  H18Z21078   5.514   0.596   8.749  1.5750  2.9665  1.1686
  184SLPC     N21079   1.806   6.316  11.015  0.3536  0.2808  0.3500
  184SLPC   C1321080   1.909   6.406  10.948  0.0647  0.0437  0.1895
  184SLPC  H13A21081   2.005   6.424  10.995  0.8714 -0.2037 -1.3224
  184SLPC  H13B21082   1.929   6.385  10.844  0.9233  2.3001 -0.1764
  184SLPC  H13C21083   1.869   6.506  10.940  3.2617  1.4626  0.2291
  184SLPC   C1421084   1.677   6.351  10.941  0.0458  0.0594  0.5751
  184SLPC  H14A21085   1.605   6.272  10.957  3.5900 -3.4970  0.5461
  184SLPC  H14B21086   1.639   6.441  10.987  0.2071 -1.3138  3.5898
  184SLPC  H14C21087   1.694   6.360  10.835 -1.9960  4.0579  0.3615
  184SLPC   C1521088   1.784   6.344  11.157  0.1020  0.3133 -0.8502
  184SLPC  H15A21089   1.876   6.335  11.213 -1.2595  1.0503  1.6655
  184SLPC  H15B21090   1.738   6.438  11.181 -1.8541 -0.3961 -1.6137
  184SLPC  H15C21091   1.719   6.269  11.199 -0.4716 -0.4225 -2.9605
  184SLPC   C1221092   1.838   6.169  10.995  0.1222 -0.4997 -0.0130
  184SLPC  H12A21093   1.777   6.119  11.068 -0.6383  1.9682  1.1780
  184SLPC  H12B21094   1.942   6.151  11.020 -0.0401 -1.9504 -0.3146
  184SLPC   C1121095   1.820   6.096  10.855  0.1497 -0.7680 -0.2903
  184SLPC  H11A21096   1.874   5.999  10.861 -0.5709 -1.0707  1.9081
  184SLPC  H11B21097   1.867   6.161  10.778 -2.8152  1.2798 -0.5116
  184SLPC     P21098   1.616   5.945  10.780  0.2768 -0.2268 -0.2662
  184SLPC   O1321099   1.588   5.865  10.900 -0.3640  0.7036 -0.6889
  184SLPC   O1421100   1.501   5.990  10.694  0.4987  0.0780 -0.4304
  184SLPC   O1221101   1.678   6.087  10.834 -0.3186  0.8987  0.6712
  184SLPC   O1121102   1.717   5.872  10.686  0.3103  0.3021  0.5932
  184SLPC    C121103   1.734   5.929  10.554 -0.0093 -0.1202 -0.6864
  184SLPC    HA21104   1.731   6.040  10.555  1.3756  0.0169  3.0375
  184SLPC    HB21105   1.837   5.900  10.523 -0.0758 -0.1938 -0.8417
  184SLPC    C221106   1.629   5.876  10.449 -0.7316  0.5797  0.1773
  184SLPC    HS21107   1.530   5.872  10.500 -1.5615 -0.3763 -1.4455
  184SLPC   O2121108   1.682   5.749  10.411 -0.0585 -0.1719  0.3967
  184SLPC   C2121109   1.603   5.665  10.349 -0.3807  0.6799  0.3455
  184SLPC   O2221110   1.481   5.674  10.333  0.3322 -0.1178 -0.6643
  184SLPC   C2221111   1.686   5.540  10.315  0.1606 -0.6085  0.8300
  184SLPC   H2R21112   1.767   5.571  10.245 -0.0511 -1.5437  0.1610
  184SLPC   H2S21113   1.733   5.503  10.408  1.6527  0.1202  0.4040
  184SLPC    C321114   1.611   5.982  10.337  0.7656  0.2896 -0.3099
  184SLPC    HX21115   1.564   6.072  10.382 -0.0646 -0.5290  0.4834
  184SLPC    HY21116   1.557   5.945  10.248  2.9254  0.7731 -1.9123
  184SLPC   O3121117   1.740   6.024  10.281  0.3262 -0.0250  0.0501
  184SLPC   C3121118   1.788   5.971  10.171 -0.8297  0.2272  0.2606
  184SLPC   O3221119   1.743   5.875  10.107 -0.2896 -0.6847 -0.1913
  184SLPC   C3221120   1.919   6.036  10.134  0.0954  0.0235 -0.3826
  184SLPC   H2X21121   1.993   6.019  10.216 -0.0328 -3.7005 -0.8702
  184SLPC   H2Y21122   1.899   6.145  10.119  1.3050  0.4680  0.9054
  184SLPC   C2321123   1.625   5.416  10.247  0.0089 -0.2283  0.3532
  184SLPC   H3R21124   1.516   5.411  10.271 -0.3310 -2.3874 -1.2647
  184SLPC   H3S21125   1.689   5.327  10.259  2.1372  1.0013 -1.2652
  184SLPC   C2421126   1.635   5.437  10.094  0.1153 -0.3663  0.6746
  184SLPC   H4R21127   1.601   5.341  10.050 -0.7931  0.4362 -0.4645
  184SLPC   H4S21128   1.742   5.454  10.071 -0.2039 -1.9022 -2.5644
  184SLPC   C2521129   1.566   5.553  10.017 -0.4480  0.5643 -0.1441
  184SLPC   H5R21130   1.604   5.651  10.052  4.1957 -1.2410  0.6391
  184SLPC   H5S21131   1.457   5.546  10.038 -0.1607 -0.0590  1.2172
  184SLPC   C2621132   1.600   5.533   9.865  0.1825  0.5274 -0.0451
  184SLPC   H6R21133   1.527   5.589   9.803 -2.6065 -1.4019  1.2864
  184SLPC   H6S21134   1.590   5.428   9.829  3.7308  0.6064 -1.6473
  184SLPC   C2721135   1.733   5.593   9.824  0.1767 -0.2352  0.2704
  184SLPC   H7R21136   1.808   5.521   9.863 -1.7829 -1.7121  1.4808
  184SLPC   H7S21137   1.755   5.688   9.878 -0.2428 -0.4757  0.8751
  184SLPC   C2821138   1.742   5.597   9.667 -0.4071 -0.5333 -0.0091
  184SLPC   H8R21139   1.668   5.666   9.621 -0.4324  0.5774  1.5954
  184SLPC   H8S21140   1.717   5.496   9.628 -2.3655  0.8542 -2.6893
  184SLPC   C2921141   1.872   5.651   9.621 -0.5890 -0.3160  0.8809
  184SLPC   H9R21142   1.891   5.749   9.667  1.2012 -1.0302  1.7624
  184SLPC  C21021143   1.969   5.584   9.555  0.5222 -0.1821  0.3838
  184SLPC  H10R21144   2.061   5.640   9.530  0.4504  1.2342  2.9332
  184SLPC  C21121145   1.971   5.440   9.513  0.3603  0.8762  0.3958
  184SLPC  H11R21146   1.866   5.406   9.526  0.3867  0.8603  0.5612
  184SLPC  H11S21147   2.027   5.379   9.587  1.8733  2.4613  0.6219
  184SLPC  C21221148   2.009   5.408   9.371 -0.2380  0.4283  1.0740
  184SLPC  H12R21149   2.099   5.345   9.366 -1.7713 -1.8123  0.0576
  184SLPC  C21321150   1.945   5.440   9.253 -0.6642 -0.1986 -0.2495
  184SLPC  H13R21151   2.006   5.419   9.164 -0.1751 -0.6011  0.1779
  184SLPC  C21421152   1.816   5.522   9.248  0.0621  0.4475  0.6461
  184SLPC  H14R21153   1.780   5.563   9.345 -0.7542 -0.3990  0.7043
  184SLPC  H14S21154   1.734   5.450   9.229 -1.2174  1.6181  1.4852
  184SLPC  C21521155   1.825   5.629   9.140 -0.2081 -0.4583  0.8361
  184SLPC  H15R21156   1.925   5.678   9.136 -0.5393  0.2615  1.2612
  184SLPC  H15S21157   1.764   5.718   9.165  0.8706  0.1175  1.4878
  184SLPC  C21621158   1.787   5.573   8.997 -0.3511  0.2311 -0.5881
  184SLPC  H16R21159   1.696   5.510   9.007  0.3701 -0.6139  1.2827
  184SLPC  H16S21160   1.863   5.496   8.972 -1.9474 -0.9266 -2.1382
  184SLPC  C21721161   1.779   5.675   8.882 -1.5978  0.3991 -0.2927
  184SLPC  H17R21162   1.758   5.618   8.789  1.9886  2.0200 -2.2892
  184SLPC  H17S21163   1.875   5.726   8.859 -1.4433 -0.3172 -1.2799
  184SLPC  C21821164   1.673   5.784   8.903 -0.3830 -0.6592  0.0416
  184SLPC  H18R21165   1.661   5.840   8.808 -3.4204  0.6575  1.0936
  184SLPC  H18S21166   1.714   5.836   8.992  2.7905 -3.7618  0.6316
  184SLPC  H18T21167   1.579   5.740   8.943 -0.6893  1.5753  2.0187
  184SLPC   C3321168   1.975   5.982  10.002  0.1347 -0.1814  0.4243
  184SLPC   H3X21169   1.889   5.983   9.932 -1.4367  0.0102  2.2674
  184SLPC   H3Y21170   1.999   5.874  10.003 -2.1438 -0.7359  0.3994
  184SLPC   C3421171   2.093   6.064   9.932 -0.4465  0.1293 -0.6595
  184SLPC   H4X21172   2.177   6.050  10.004 -0.4992  1.0599 -0.4143
  184SLPC   H4Y21173   2.066   6.171   9.939  1.5204  0.5793  0.8832
  184SLPC   C3521174   2.141   6.015   9.799  0.0733 -0.5444  0.0431
  184SLPC   H5X21175   2.155   5.906   9.812 -1.8096 -0.6866  1.3759
  184SLPC   H5Y21176   2.230   6.066   9.757 -1.0091  0.0393 -1.7003
  184SLPC   C3621177   2.030   6.031   9.686  0.4679 -0.1967  0.1611
  184SLPC   H6X21178   2.005   6.139   9.680 -0.8491 -0.5249 -0.6874
  184SLPC   H6Y21179   1.942   5.977   9.726  0.5742  0.3394  1.1485
  184SLPC   C3721180   2.069   5.963   9.556  0.0735  0.2432  0.0440
  184SLPC   H7X21181   2.062   5.855   9.584 -0.5351  0.1317 -0.5299
  184SLPC   H7Y21182   2.174   5.987   9.528  1.4116 -2.8543  1.8041
  184SLPC   C3821183   1.970   5.991   9.442 -0.5532  0.5864 -0.0437
  184SLPC   H8X21184   1.956   6.099   9.420  0.2692  0.8794  0.8074
  184SLPC   H8Y21185   1.873   5.953   9.480 -0.8018  2.1963  1.0491
  184SLPC   C3921186   2.002   5.916   9.314  0.2402  0.6564  0.1035
  184SLPC   H9X21187   1.910   5.931   9.254  1.0669 -2.2057 -2.0984
  184SLPC   H9Y21188   2.024   5.810   9.341 -2.3887  0.4100  1.6346
  184SLPC  C31021189   2.126   5.967   9.237  0.4712 -0.2530  0.6079
  184SLPC  H10X21190   2.228   5.938   9.270  0.9645  0.4803 -0.2128
  184SLPC  H10Y21191   2.139   6.074   9.263  0.2210 -0.1139  0.1802
  184SLPC  C31121192   2.112   5.949   9.086 -0.0527 -1.1228  0.4671
  184SLPC  H11X21193   2.094   5.841   9.066  0.8284 -1.0366 -0.8744
  184SLPC  H11Y21194   2.208   5.977   9.038 -1.3450  2.0520 -0.4723
  184SLPC  C31221195   2.010   6.043   9.015  0.4875  0.4761  0.8209
  184SLPC  H12X21196   2.043   6.143   9.050  0.2123 -0.3412  3.6154
  184SLPC  H12Y21197   1.908   6.021   9.053  0.5550 -2.5261 -0.3777
  184SLPC  C31321198   2.012   6.005   8.863 -0.2055 -0.3414  0.5988
  184SLPC  H13X21199   1.923   6.060   8.827 -1.8358 -3.5663 -0.7204
  184SLPC  H13Y21200   2.009   5.895   8.846 -1.4576 -0.7348  3.0007
  184SLPC  C31421201   2.128   6.073   8.784 -0.0041 -0.2934  0.2270
  184SLPC  H14X21202   2.229   6.040   8.819 -0.3656 -2.3237 -0.5229
  184SLPC  H14Y21203   2.112   6.180   8.809 -2.4988 -1.0014  2.0500
  184SLPC  C31521204   2.115   6.063   8.638  0.1300  0.0835 -0.5497
  184SLPC  H15X21205   2.020   6.112   8.606  0.4225  2.0052  1.2817
  184SLPC  H15Y21206   2.115   5.956   8.607  2.3476 -0.2408  0.4209
  184SLPC  C31621207   2.235   6.114   8.567 -0.0018  0.0410 -0.1356
  184SLPC  H16X21208   2.321   6.045   8.581 -0.4925 -0.6530 -0.4577
  184SLPC  H16Y21209   2.268   6.208   8.616 -0.5939  1.2607 -2.0106
  184SLPC  C31721210   2.211   6.142   8.414 -0.1173 -0.0757 -0.0027
  184SLPC  H17X21211   2.302   6.164   8.355 -0.7509 -2.1305 -1.8694
  184SLPC  H17Y21212   2.147   6.232   8.420  1.5631  1.2475 -1.1510
  184SLPC  C31821213   2.131   6.040   8.337 -0.1520 -0.2824  0.3624
  184SLPC  H18X21214   2.136   6.063   8.229 -2.0879  0.5992  0.4039
  184SLPC  H18Y21215   2.027   6.041   8.377 -0.2272 -0.1296  0.1645
  184SLPC  H18Z21216   2.171   5.937   8.328  2.2265  0.3691  2.2989
  185SLPC     N21217   5.792   2.692   6.229 -0.9760  0.1817 -0.5900
  185SLPC   C1321218   5.819   2.555   6.167  0.3132 -0.3322  0.6052
  185SLPC  H13A21219   5.733   2.491   6.158 -0.2134  0.6584 -3.4270
  185SLPC  H13B21220   5.854   2.570   6.066  0.0130 -1.5376  0.2980
  185SLPC  H13C21221   5.899   2.500   6.215  2.1583 -0.9598 -2.8077
  185SLPC   C1421222   5.687   2.679   6.337 -0.2722  0.1177  0.2461
  185SLPC  H14A21223   5.590   2.649   6.300 -1.3521  2.2914  1.1239
  185SLPC  H14B21224   5.714   2.611   6.417 -1.7675 -1.6558 -0.6768
  185SLPC  H14C21225   5.669   2.775   6.382 -0.8209  0.1302  0.0112
  185SLPC   C1521226   5.738   2.783   6.129 -0.6589 -0.0566 -0.2362
  185SLPC  H15A21227   5.805   2.807   6.048 -0.7783 -0.3663 -0.4301
  185SLPC  H15B21228   5.641   2.763   6.085 -1.2628  2.7267 -0.3790
  185SLPC  H15C21229   5.719   2.880   6.172 -1.1561  0.0540 -0.6892
  185SLPC   C1221230   5.922   2.751   6.284  0.5593 -0.2135 -1.0937
  185SLPC  H12A21231   5.904   2.856   6.300  0.7066  0.0055 -2.2673
  185SLPC  H12B21232   5.993   2.753   6.203  1.8358 -0.1758 -0.0196
  185SLPC   C1121233   5.989   2.681   6.403 -0.1800 -0.7415  0.5137
  185SLPC  H11A21234   5.926   2.697   6.493 -1.3620 -1.3902 -0.1854
  185SLPC  H11B21235   6.077   2.746   6.421 -0.8206 -0.2588  2.0613
  185SLPC     P21236   6.133   2.470   6.320  0.0874  0.6068  0.1604
  185SLPC   O1321237   6.109   2.327   6.283 -0.1039  0.4697  0.0125
  185SLPC   O1421238   6.197   2.554   6.223  0.7230 -1.0105 -0.3706
  185SLPC   O1221239   6.008   2.541   6.376 -0.4523 -0.2220  0.3769
  185SLPC   O1121240   6.229   2.472   6.443  0.2523  0.3110 -0.0643
  185SLPC    C121241   6.218   2.356   6.530 -0.0994  0.0915 -0.2676
  185SLPC    HA21242   6.214   2.259   6.476  2.2532 -1.2996  1.8390
  185SLPC    HB21243   6.302   2.366   6.602 -0.3690  5.3312 -0.2862
  185SLPC    C221244   6.103   2.371   6.636  0.1367 -0.2223 -0.5065
  185SLPC    HS21245   6.009   2.379   6.578 -0.7187 -3.1011  0.2848
  185SLPC   O2121246   6.134   2.485   6.721 -0.7145  0.0952 -0.0467
  185SLPC   C2121247   6.034   2.553   6.787 -0.7464 -0.2712  0.1879
  185SLPC   O2221248   5.918   2.533   6.760  0.4730 -0.2070  0.2339
  185SLPC   C2221249   6.099   2.659   6.879  0.3055 -0.5141 -0.1774
  185SLPC   H2R21250   6.208   2.639   6.883  0.3878  0.0582  0.7155
  185SLPC   H2S21251   6.083   2.763   6.844 -0.3317 -0.5228  0.0705
  185SLPC    C321252   6.091   2.234   6.727  0.4699 -0.4813  0.5031
  185SLPC    HX21253   6.198   2.215   6.751  0.9144  1.1537 -0.0136
  185SLPC    HY21254   6.047   2.148   6.673  0.4310 -0.8358  1.1048
  185SLPC   O3121255   6.007   2.261   6.843  0.2701 -0.5393 -0.3586
  185SLPC   C3121256   5.873   2.228   6.820  0.0408 -0.4474  0.6901
  185SLPC   O3221257   5.831   2.187   6.715 -0.4058  0.4559  0.4824
  185SLPC   C3221258   5.785   2.260   6.946 -0.4077 -0.2531  0.6457
  185SLPC   H2X21259   5.772   2.369   6.935  0.5620  0.0703  2.3541
  185SLPC   H2Y21260   5.850   2.248   7.036 -0.6692 -2.1460  0.6322
  185SLPC   C2321261   6.036   2.670   7.019  0.3307 -0.3153  0.7819
  185SLPC   H3R21262   5.936   2.711   6.997  0.3986  0.3765  1.6883
  185SLPC   H3S21263   6.077   2.748   7.086 -0.8114  0.4567  0.6044
  185SLPC   C2421264   6.024   2.541   7.095 -0.5527  0.0024  0.5174
  185SLPC   H4R21265   6.129   2.505   7.097 -0.4357  0.0677 -1.8822
  185SLPC   H4S21266   5.962   2.467   7.039 -1.1208  0.6664  0.2611
  185SLPC   C2521267   5.962   2.548   7.234  0.5433  0.7026  0.5709
  185SLPC   H5R21268   5.873   2.614   7.233 -0.7042 -0.8480 -2.7943
  185SLPC   H5S21269   6.031   2.584   7.314  1.7241 -1.3271  0.5300
  185SLPC   C2621270   5.909   2.413   7.281  0.4893  0.1823  0.4834
  185SLPC   H6R21271   5.990   2.336   7.280  0.5323  0.2276  0.1448
  185SLPC   H6S21272   5.831   2.376   7.211  2.1943  2.1807 -2.7397
  185SLPC   C2721273   5.845   2.412   7.421 -0.9211  1.2323 -0.5685
  185SLPC   H7R21274   5.745   2.460   7.420 -2.9189 -2.5133 -3.2056
  185SLPC   H7S21275   5.917   2.474   7.479 -1.6050  2.4821 -1.0186
  185SLPC   C2821276   5.834   2.267   7.487  0.5019  0.7012 -0.1695
  185SLPC   H8R21277   5.930   2.212   7.485  0.6889  1.0327 -0.3264
  185SLPC   H8S21278   5.770   2.204   7.422 -0.0224 -1.7402  2.4634
  185SLPC   C2921279   5.767   2.271   7.624  0.3660  0.0447  0.4086
  185SLPC   H9R21280   5.664   2.310   7.614  0.7821  1.3977  1.1841
  185SLPC  C21021281   5.812   2.231   7.745 -0.0261  0.0535 -0.5296
  185SLPC  H10R21282   5.746   2.248   7.831  0.6926  3.7921 -0.5434
  185SLPC  C21121283   5.950   2.178   7.783  0.1482 -0.1855 -0.2138
  185SLPC  H11R21284   5.989   2.104   7.710 -0.1983 -0.3578 -0.2254
  185SLPC  H11S21285   5.952   2.124   7.880  0.9095  1.0510  0.4820
  185SLPC  C21221286   6.044   2.293   7.790 -0.5901 -0.4705  0.6796
  185SLPC  H12R21287   6.022   2.377   7.722 -0.9719 -0.7914  0.4060
  185SLPC  C21321288   6.163   2.301   7.858  0.1395  0.5491 -0.0985
  185SLPC  H13R21289   6.231   2.388   7.852 -0.2888  0.8033 -1.3871
  185SLPC  C21421290   6.211   2.197   7.956  0.6300  0.0202  0.3562
  185SLPC  H14R21291   6.322   2.192   7.950  0.7981  2.0545  0.9574
  185SLPC  H14S21292   6.169   2.097   7.931  0.6737  0.2271 -0.5958
  185SLPC  C21521293   6.168   2.228   8.104 -0.9448 -0.6853 -0.9199
  185SLPC  H15R21294   6.191   2.138   8.165  1.1237  0.5867  0.2691
  185SLPC  H15S21295   6.061   2.259   8.110 -0.0808  2.3617  1.1904
  185SLPC  C21621296   6.248   2.344   8.155  0.9513  0.1485  0.6435
  185SLPC  H16R21297   6.220   2.435   8.098  0.3606 -1.3219 -1.5315
  185SLPC  H16S21298   6.355   2.331   8.129 -0.0033 -3.9249 -2.2551
  185SLPC  C21721299   6.229   2.376   8.292  0.3900 -0.5071 -0.7049
  185SLPC  H17R21300   6.122   2.394   8.317  1.0637  0.3976  1.8822
  185SLPC  H17S21301   6.286   2.468   8.315 -1.8290  0.6044  0.7040
  185SLPC  C21821302   6.273   2.273   8.392 -0.8662  0.2248  0.4138
  185SLPC  H18R21303   6.291   2.327   8.487  0.6135  2.2550 -0.9401
  185SLPC  H18S21304   6.369   2.221   8.368  0.2416  1.1080  2.6124
  185SLPC  H18T21305   6.190   2.204   8.418 -1.9607  0.3585 -2.3374
  185SLPC   C3321306   5.652   2.187   6.951  0.3085 -0.5770 -0.0930
  185SLPC   H3X21307   5.671   2.079   6.930 -0.3310 -1.0080  1.4181
  185SLPC   H3Y21308   5.587   2.227   6.870 -0.1234  0.8025  0.8936
  185SLPC   C3421309   5.582   2.187   7.092  0.5181 -0.1384 -0.1186
  185SLPC   H4X21310   5.654   2.154   7.169  0.3697  0.6308  0.3622
  185SLPC   H4Y21311   5.492   2.121   7.099  0.9827 -1.2132 -2.9648
  185SLPC   C3521312   5.528   2.322   7.130  0.0771  0.3420  0.1014
  185SLPC   H5X21313   5.453   2.367   7.061 -0.1063  1.1066  0.7901
  185SLPC   H5Y21314   5.605   2.402   7.119 -0.0029  0.6157  1.4431
  185SLPC   C3621315   5.471   2.317   7.269 -0.0373  0.1280 -0.6066
  185SLPC   H6X21316   5.547   2.271   7.336 -0.3359 -1.6090 -1.4065
  185SLPC   H6Y21317   5.390   2.241   7.271 -0.0105  0.1051 -0.3161
  185SLPC   C3721318   5.421   2.448   7.324  0.2388  0.1745  0.8498
  185SLPC   H7X21319   5.330   2.492   7.278  0.1482  0.6630  1.4929
  185SLPC   H7Y21320   5.508   2.514   7.304  0.1108  0.0734 -0.0977
  185SLPC   C3821321   5.392   2.453   7.473 -0.8638  0.3821 -0.2373
  185SLPC   H8X21322   5.480   2.409   7.525 -0.5238 -1.6447 -2.3864
  185SLPC   H8Y21323   5.297   2.403   7.502 -1.8112  2.7658  1.1141
  185SLPC   C3921324   5.361   2.599   7.528  0.5343  0.6863  0.2451
  185SLPC   H9X21325   5.264   2.627   7.481 -0.7134 -1.6038  1.2766
  185SLPC   H9Y21326   5.440   2.671   7.496 -0.5569  0.7417 -2.5992
  185SLPC  C31021327   5.336   2.613   7.677 -0.1215 -0.2606 -0.3793
  185SLPC  H10X21328   5.425   2.573   7.730  0.8203 -1.1045 -2.4716
  185SLPC  H10Y21329   5.255   2.541   7.701 -2.0945  1.3890 -1.6994
  185SLPC  C31121330   5.310   2.757   7.709  0.0253 -0.1462  0.8316
  185SLPC  H11X21331   5.214   2.785   7.662  0.0057  0.9535  1.5059
  185SLPC  H11Y21332   5.388   2.825   7.667 -1.8193  1.8742  0.5046
  185SLPC  C31221333   5.283   2.793   7.861 -0.4719 -0.3479 -0.1618
  185SLPC  H12X21334   5.189   2.737   7.882 -0.3342 -1.8757 -3.0548
  185SLPC  H12Y21335   5.265   2.902   7.867 -1.2064 -0.3958 -1.2449
  185SLPC  C31321336   5.396   2.750   7.958  0.2026 -0.0033  0.0407
  185SLPC  H13X21337   5.477   2.826   7.958  0.0381  0.1725 -0.0236
  185SLPC  H13Y21338   5.447   2.654   7.935  2.9566  1.0172  1.4178
  185SLPC  C31421339   5.348   2.733   8.096 -0.5718 -0.2511 -0.0932
  185SLPC  H14X21340   5.250   2.680   8.098 -0.9159  0.3852  1.1139
  185SLPC  H14Y21341   5.322   2.829   8.145 -0.7649 -1.0512  1.4465
  185SLPC  C31521342   5.450   2.657   8.185 -0.2824  0.2012 -0.8344
  185SLPC  H15X21343   5.539   2.723   8.189  0.8071 -1.2759  0.5348
  185SLPC  H15Y21344   5.475   2.557   8.143 -0.7411  0.6732 -2.2964
  185SLPC  C31621345   5.396   2.631   8.329  0.8328 -0.0566 -0.5541
  185SLPC  H16X21346   5.322   2.548   8.324 -0.4761  0.8420  1.9618
  185SLPC  H16Y21347   5.329   2.714   8.361  2.1906  0.8666  0.0141
  185SLPC  C31721348   5.495   2.594   8.437 -0.3849 -0.1168  0.1044
  185SLPC  H17X21349   5.554   2.679   8.476 -2.0993  1.4515 -0.6178
  185SLPC  H17Y21350   5.576   2.529   8.395  1.4939  0.6983  2.2116
  185SLPC  C31821351   5.438   2.531   8.566  0.9061 -0.4739  0.2888
  185SLPC  H18X21352   5.520   2.509   8.639  0.2146  1.6582  1.8114
  185SLPC  H18Y21353   5.386   2.436   8.544  0.6690 -0.8174  2.2046
  185SLPC  H18Z21354   5.372   2.601   8.621  0.0455 -1.9652  1.2025
  186SLPC     N21355   0.988   4.268   5.907 -0.2848  0.2044 -0.1808
  186SLPC   C1321356   0.925   4.406   5.876 -0.7364 -0.0116  0.3137
  186SLPC  H13A21357   0.868   4.442   5.960 -1.1052  1.3042 -0.4687
  186SLPC  H13B21358   1.008   4.474   5.865  0.4431 -1.6150 -1.4972
  186SLPC  H13C21359   0.862   4.414   5.789  1.5205  0.6637 -1.3490
  186SLPC   C1421360   1.065   4.277   6.039  0.2990 -0.0957  0.2044
  186SLPC  H14A21361   1.107   4.181   6.066  0.2180 -1.0682 -2.7556
  186SLPC  H14B21362   1.151   4.342   6.032  0.9012 -0.8594  0.3477
  186SLPC  H14C21363   1.009   4.314   6.123  2.2063  1.8869  0.6943
  186SLPC   C1521364   1.086   4.228   5.800 -0.5783  0.0684  0.1857
  186SLPC  H15A21365   1.123   4.127   5.807 -1.0130  0.0439  3.8293
  186SLPC  H15B21366   1.037   4.237   5.704 -1.7729 -1.2514  0.6406
  186SLPC  H15C21367   1.171   4.294   5.800  1.0466 -1.8739 -2.1001
  186SLPC   C1221368   0.871   4.164   5.919 -0.0420 -0.2648  0.2584
  186SLPC  H12A21369   0.922   4.086   5.972  0.6983 -1.9211 -2.6427
  186SLPC  H12B21370   0.844   4.121   5.823  2.9751  0.9907 -1.3109
  186SLPC   C1121371   0.743   4.195   5.996  0.3020  0.3440 -0.1017
  186SLPC  H11A21372   0.670   4.111   5.996  0.4786  0.1705  0.9423
  186SLPC  H11B21373   0.687   4.278   5.947 -0.2501 -0.5300 -0.9716
  186SLPC     P21374   0.789   4.106   6.237  0.1567  0.1489  0.4312
  186SLPC   O1321375   0.657   4.040   6.251  0.2438 -0.0047 -0.6758
  186SLPC   O1421376   0.895   4.017   6.173 -0.0082  0.1818 -0.1642
  186SLPC   O1221377   0.771   4.230   6.136  0.0149  0.2490  0.2524
  186SLPC   O1121378   0.831   4.162   6.385 -0.2275  0.0030  1.0269
  186SLPC    C121379   0.732   4.234   6.462  0.0428  0.0237 -0.7559
  186SLPC    HA21380   0.766   4.337   6.482 -0.6334  0.1418 -0.1595
  186SLPC    HB21381   0.631   4.250   6.418  0.0032 -1.1826 -1.1577
  186SLPC    C221382   0.721   4.158   6.598  0.2126 -0.1919  0.9802
  186SLPC    HS21383   0.657   4.219   6.665 -0.2519  0.0229  0.3522
  186SLPC   O2121384   0.855   4.150   6.655 -0.2002 -0.2391 -0.1791
  186SLPC   C2121385   0.895   4.265   6.706  1.0498 -0.0786 -0.1867
  186SLPC   O2221386   0.823   4.361   6.729  0.3026 -0.3199  0.1443
  186SLPC   C2221387   1.042   4.266   6.741  0.2920  0.3290  0.2197
  186SLPC   H2R21388   1.071   4.188   6.815 -0.3202 -0.1072  0.0040
  186SLPC   H2S21389   1.093   4.228   6.650 -1.6122 -1.8826 -0.0040
  186SLPC    C321390   0.660   4.017   6.582 -0.7996 -0.2665 -0.0575
  186SLPC    HX21391   0.737   3.945   6.546  0.7807  0.4315  1.7914
  186SLPC    HY21392   0.581   4.021   6.504  1.6286  0.7533 -2.6490
  186SLPC   O3121393   0.606   3.974   6.708  0.0405  0.1135 -0.0513
  186SLPC   C3121394   0.495   3.904   6.704  0.6804  0.3092 -1.6426
  186SLPC   O3221395   0.446   3.845   6.605 -0.4278 -0.2877 -0.0175
  186SLPC   C3221396   0.429   3.910   6.852  0.1392  0.0064  0.3238
  186SLPC   H2X21397   0.322   3.940   6.849 -0.0483 -0.6424  0.3688
  186SLPC   H2Y21398   0.478   3.990   6.911 -2.0629  2.1461 -0.5623
  186SLPC   C2321399   1.091   4.408   6.775  0.2420  0.6572 -0.2138
  186SLPC   H3R21400   1.011   4.451   6.839 -0.4694  1.8945 -1.8287
  186SLPC   H3S21401   1.090   4.481   6.690  0.2544 -0.8174 -1.5284
  186SLPC   C2421402   1.224   4.408   6.853 -0.8264 -0.4713  0.5234
  186SLPC   H4R21403   1.259   4.512   6.866 -0.6204 -0.4406 -0.2301
  186SLPC   H4S21404   1.310   4.359   6.801  0.4207  1.1445  1.0019
  186SLPC   C2521405   1.197   4.347   6.990  0.1499 -0.2233 -0.6679
  186SLPC   H5R21406   1.294   4.313   7.033 -0.3542 -0.1584  0.5393
  186SLPC   H5S21407   1.134   4.256   6.993  0.7318 -0.6227 -0.3715
  186SLPC   C2621408   1.158   4.453   7.093 -0.7303  0.1909  0.0452
  186SLPC   H6R21409   1.067   4.506   7.059 -0.3014  1.3063  0.5532
  186SLPC   H6S21410   1.238   4.527   7.116 -0.3198  0.0167 -0.7932
  186SLPC   C2721411   1.111   4.386   7.220 -0.2896  0.2811 -0.3391
  186SLPC   H7R21412   1.177   4.301   7.249 -1.6533  0.1760  2.8563
  186SLPC   H7S21413   1.015   4.342   7.185  0.2891 -1.1017 -0.2526
  186SLPC   C2821414   1.086   4.488   7.335  0.0694  0.6642 -0.4774
  186SLPC   H8R21415   1.010   4.555   7.288  0.9026  1.0663 -1.2690
  186SLPC   H8S21416   1.184   4.536   7.352  1.6144 -2.4165 -0.1182
  186SLPC   C2921417   1.051   4.413   7.463 -0.4229  0.1836  0.4669
  186SLPC   H9R21418   1.071   4.305   7.459  0.3922  0.3508 -1.3169
  186SLPC  C21021419   0.989   4.471   7.566  0.0425  0.1936 -0.4672
  186SLPC  H10R21420   0.955   4.414   7.653  0.7266  2.9343  1.7123
  186SLPC  C21121421   0.944   4.614   7.577 -0.0116 -0.2958  0.2411
  186SLPC  H11R21422   0.837   4.636   7.561 -0.2405 -0.8373  0.9956
  186SLPC  H11S21423   0.987   4.682   7.500  1.4595 -0.1322  1.1476
  186SLPC  C21221424   0.985   4.668   7.712 -0.1043 -1.0883  0.2178
  186SLPC  H12R21425   1.093   4.668   7.733 -0.0183 -0.5760 -0.1945
  186SLPC  C21321426   0.902   4.729   7.799 -0.3334 -0.0880  0.3981
  186SLPC  H13R21427   0.945   4.763   7.894  0.4084 -1.9009  0.7662
  186SLPC  C21421428   0.751   4.737   7.777 -0.4912  0.8143  0.0523
  186SLPC  H14R21429   0.701   4.640   7.796  0.9444  0.0143 -0.0817
  186SLPC  H14S21430   0.726   4.771   7.675 -3.8013  3.0661  1.4665
  186SLPC  C21521431   0.690   4.857   7.852 -0.1602  0.4228 -0.5851
  186SLPC  H15R21432   0.587   4.863   7.812  0.1241 -0.4812 -1.5040
  186SLPC  H15S21433   0.741   4.955   7.840  2.3523 -0.5057  1.5187
  186SLPC  C21621434   0.677   4.837   8.006  0.1283 -0.3662 -0.6750
  186SLPC  H16R21435   0.776   4.846   8.055  0.1117 -2.4853 -0.1653
  186SLPC  H16S21436   0.636   4.736   8.025  0.2431 -0.1547  0.8542
  186SLPC  C21721437   0.577   4.928   8.080 -0.1251  0.9946 -0.6034
  186SLPC  H17R21438   0.477   4.908   8.033  0.5823 -1.2122 -1.3082
  186SLPC  H17S21439   0.601   5.034   8.058  3.1595  0.6899  0.9627
  186SLPC  C21821440   0.580   4.905   8.229  0.3365  0.1970  0.2187
  186SLPC  H18R21441   0.543   4.803   8.251 -0.1292  0.2540 -0.2774
  186SLPC  H18S21442   0.510   4.982   8.268 -1.5780  1.2026 -4.5262
  186SLPC  H18T21443   0.684   4.920   8.267  0.4290 -3.4264  1.7658
  186SLPC   C3321444   0.452   3.776   6.926 -0.0852 -0.2793 -0.0532
  186SLPC   H3X21445   0.561   3.757   6.942 -0.3588  0.0026  2.6023
  186SLPC   H3Y21446   0.408   3.698   6.861 -0.3679  1.7555 -2.4764
  186SLPC   C3421447   0.401   3.784   7.069 -0.7266  0.5958 -1.1046
  186SLPC   H4X21448   0.293   3.810   7.076 -0.4479  1.3720  0.8179
  186SLPC   H4Y21449   0.462   3.854   7.129  0.6725 -1.8362  0.4905
  186SLPC   C3521450   0.420   3.644   7.144  0.0211  0.0445 -0.3800
  186SLPC   H5X21451   0.528   3.622   7.147  0.1051  0.4828 -0.1262
  186SLPC   H5Y21452   0.383   3.566   7.073 -0.2701 -1.6162  1.5191
  186SLPC   C3621453   0.349   3.617   7.281  0.0147  0.7291 -0.2955
  186SLPC   H6X21454   0.344   3.508   7.300 -2.1794  0.7831 -0.2704
  186SLPC   H6Y21455   0.241   3.640   7.270  0.4446  2.2489 -1.8370
  186SLPC   C3721456   0.413   3.699   7.396  0.3466  0.2365 -0.0557
  186SLPC   H7X21457   0.363   3.667   7.490 -0.5776  0.0606 -0.5992
  186SLPC   H7Y21458   0.380   3.803   7.376 -1.4454 -0.4815 -1.0323
  186SLPC   C3821459   0.563   3.702   7.407 -0.4603  0.1180  0.3784
  186SLPC   H8X21460   0.603   3.777   7.335  0.0585  0.3763  0.9244
  186SLPC   H8Y21461   0.606   3.603   7.383 -1.1605  0.5242 -3.1015
  186SLPC   C3921462   0.620   3.744   7.543 -0.8990  0.7094  0.4152
  186SLPC   H9X21463   0.729   3.750   7.525 -0.7529  1.1729  1.3891
  186SLPC   H9Y21464   0.598   3.663   7.615 -1.5154  0.5120  0.0245
  186SLPC  C31021465   0.574   3.878   7.599  0.1342  0.4009  0.2156
  186SLPC  H10X21466   0.467   3.890   7.570 -0.1666 -0.9688  0.6651
  186SLPC  H10Y21467   0.639   3.959   7.561  2.6624 -2.6748 -2.6934
  186SLPC  C31121468   0.580   3.883   7.755 -0.1800 -0.6177 -0.0622
  186SLPC  H11X21469   0.537   3.792   7.801 -1.8975  0.3067  0.2698
  186SLPC  H11Y21470   0.523   3.973   7.789 -0.9561 -0.8052 -0.8278
  186SLPC  C31221471   0.729   3.886   7.802  0.0832 -0.0877  0.3314
  186SLPC  H12X21472   0.781   3.977   7.766 -2.0540  0.6965 -0.9564
  186SLPC  H12Y21473   0.788   3.795   7.777  2.3121  0.5976  2.6041
  186SLPC  C31321474   0.742   3.892   7.954 -0.2126 -0.5043 -0.3794
  186SLPC  H13X21475   0.708   3.988   7.998  2.1124  0.3786 -0.3529
  186SLPC  H13Y21476   0.853   3.901   7.966 -0.3960  1.3954  0.3515
  186SLPC  C31421477   0.693   3.771   8.032 -0.1096  0.2103 -0.0929
  186SLPC  H14X21478   0.746   3.676   8.008 -1.1422 -0.6951  1.0592
  186SLPC  H14Y21479   0.582   3.767   8.031 -0.2963  0.6693  3.4376
  186SLPC  C31521480   0.745   3.784   8.178  0.5232  0.7013  0.3888
  186SLPC  H15X21481   0.707   3.882   8.215  0.7561  1.5049 -1.3740
  186SLPC  H15Y21482   0.855   3.785   8.192  0.9080 -1.2254 -1.8361
  186SLPC  C31621483   0.684   3.668   8.265 -0.5732 -0.0523  0.6373
  186SLPC  H16X21484   0.577   3.653   8.243 -0.9794  2.2588  0.8383
  186SLPC  H16Y21485   0.687   3.701   8.371 -2.6474 -3.0438  1.7391
  186SLPC  C31721486   0.759   3.534   8.247 -0.3653 -0.4888  0.1176
  186SLPC  H17X21487   0.866   3.551   8.269 -0.7958 -0.0186  2.0164
  186SLPC  H17Y21488   0.752   3.500   8.141  2.4479  0.5449 -0.4893
  186SLPC  C31821489   0.703   3.425   8.347 -0.0376 -0.3851 -0.2266
  186SLPC  H18X21490   0.763   3.332   8.342 -2.2649 -1.8533 -0.8756
  186SLPC  H18Y21491   0.600   3.390   8.325  0.4023 -1.5202 -0.5379
  186SLPC  H18Z21492   0.708   3.466   8.450 -0.1167 -0.5188 -0.1697
  187SLPC     N21493   0.061   3.113   6.156 -1.1834  0.2726 -0.6544
  187SLPC   C1321494  -0.043   3.173   6.066  0.0346  0.5731 -0.0013
  187SLPC  H13A21495  -0.109   3.092   6.039  1.3287 -0.2226 -0.9107
  187SLPC  H13B21496  -0.101   3.251   6.112 -0.0952  0.1985  0.4756
  187SLPC  H13C21497   0.008   3.218   5.982  0.3574  0.2047 -0.0091
  187SLPC   C1421498   0.146   3.223   6.200 -0.3455 -0.1906 -0.1031
  187SLPC  H14A21499   0.106   3.323   6.206 -0.8522 -0.2693 -1.6709
  187SLPC  H14B21500   0.203   3.199   6.288 -2.7354 -3.8503  0.6825
  187SLPC  H14C21501   0.214   3.228   6.116 -1.6793  0.1515 -1.2133
  187SLPC   C1521502   0.148   3.009   6.086  0.3208 -0.1977 -0.0715
  187SLPC  H15A21503   0.176   3.046   5.989  1.9272  0.3243  0.5560
  187SLPC  H15B21504   0.243   3.004   6.136 -0.0982  1.1801  0.9345
  187SLPC  H15C21505   0.097   2.914   6.071  0.7684 -0.2753 -1.2244
  187SLPC   C1221506  -0.000   3.040   6.276 -0.4523 -0.7965 -0.3353
  187SLPC  H12A21507  -0.078   2.973   6.245 -1.5617  0.1028  0.3956
  187SLPC  H12B21508  -0.052   3.123   6.323  0.6746 -1.7934  2.9266
  187SLPC   C1121509   0.084   2.967   6.382  0.1701 -0.0154  0.3749
  187SLPC  H11A21510   0.138   2.880   6.338  1.7676  0.9539  0.3444
  187SLPC  H11B21511   0.012   2.919   6.451  1.0322 -1.3449  0.3786
  187SLPC     P21512   0.161   3.123   6.568  0.4322 -0.0929 -0.0694
  187SLPC   O1321513   0.286   3.195   6.618  0.1586  0.2372 -0.1096
  187SLPC   O1421514   0.035   3.203   6.552 -0.0366  0.0985  0.4352
  187SLPC   O1221515   0.188   3.055   6.432 -0.6755 -0.2272 -0.0057
  187SLPC   O1121516   0.126   3.001   6.666 -0.0787  0.3149  0.0433
  187SLPC    C121517   0.242   2.911   6.685  0.6771 -0.1046 -0.3373
  187SLPC    HA21518   0.301   2.899   6.592  1.9273 -0.9573  0.5347
  187SLPC    HB21519   0.312   2.954   6.759 -0.2783  2.2440 -0.7185
  187SLPC    C221520   0.185   2.769   6.714 -0.1229  0.0946  0.2326
  187SLPC    HS21521   0.119   2.746   6.628 -0.8862  1.7372  0.3284
  187SLPC   O2121522   0.107   2.779   6.836 -0.4242  0.4837 -0.1986
  187SLPC   C2121523   0.049   2.670   6.869  0.0139  0.4149 -0.6608
  187SLPC   O2221524   0.041   2.568   6.804 -0.5253  0.6898 -0.2710
  187SLPC   C2221525  -0.011   2.679   7.008 -0.5367 -0.7082  0.5960
  187SLPC   H2R21526  -0.098   2.745   6.990  1.1018  1.1325 -0.9905
  187SLPC   H2S21527  -0.032   2.574   7.039 -1.1266 -1.7129 -2.8252
  187SLPC    C321528   0.306   2.669   6.726 -0.1801  0.6692  0.2274
  187SLPC    HX21529   0.361   2.672   6.630 -0.0204  2.6505  0.3253
  187SLPC    HY21530   0.264   2.567   6.736  0.6583  0.5022  3.0212
  187SLPC   O3121531   0.396   2.709   6.827  0.4364 -0.2903 -0.6005
  187SLPC   C3121532   0.403   2.632   6.937 -0.5346  0.6112  0.0154
  187SLPC   O3221533   0.330   2.535   6.956  0.0334  0.2002 -0.0194
  187SLPC   C3221534   0.502   2.693   7.036 -0.2622 -0.1503 -0.0269
  187SLPC   H2X21535   0.469   2.792   7.073  0.1256 -0.1604  0.3696
  187SLPC   H2Y21536   0.598   2.706   6.982 -0.5684  1.7314 -0.1772
  187SLPC   C2321537   0.094   2.748   7.100 -0.2186  0.4566 -0.1382
  187SLPC   H3R21538   0.113   2.852   7.068 -2.0252  0.4548 -1.3627
  187SLPC   H3S21539   0.194   2.698   7.097 -0.0767  0.7109  0.2911
  187SLPC   C2421540   0.037   2.760   7.236  0.0146  0.0763 -0.2102
  187SLPC   H4R21541  -0.011   2.661   7.255 -1.5730  1.3349  3.3949
  187SLPC   H4S21542  -0.042   2.837   7.241 -1.6965 -1.5529 -1.0041
  187SLPC   C2521543   0.143   2.802   7.343 -0.0113  0.5359  0.0367
  187SLPC   H5R21544   0.178   2.900   7.304  1.3349  0.5516  1.1653
  187SLPC   H5S21545   0.230   2.734   7.359 -1.8131 -1.6408  1.0447
  187SLPC   C2621546   0.076   2.821   7.483 -0.3285  0.1563  1.0454
  187SLPC   H6R21547   0.034   2.721   7.511  2.6462 -1.3720  0.4909
  187SLPC   H6S21548  -0.013   2.887   7.477  0.1031  0.6512 -0.0570
  187SLPC   C2721549   0.181   2.857   7.591  0.5104 -0.2824 -0.1276
  187SLPC   H7R21550   0.211   2.963   7.576 -1.2636  0.6271  2.0884
  187SLPC   H7S21551   0.265   2.785   7.594 -0.5482 -1.5787 -0.4804
  187SLPC   C2821552   0.111   2.845   7.730  0.1653 -0.5996 -0.2146
  187SLPC   H8R21553   0.005   2.873   7.712  1.2889  3.3655 -1.9696
  187SLPC   H8S21554   0.145   2.928   7.796 -0.2802 -1.3987  1.0599
  187SLPC   C2921555   0.127   2.709   7.784 -0.0360 -0.0449 -0.6642
  187SLPC   H9R21556   0.071   2.631   7.730  0.5970  0.0521 -1.4845
  187SLPC  C21021557   0.200   2.677   7.890  0.3812  0.2025 -0.0500
  187SLPC  H10R21558   0.177   2.574   7.922 -2.0274  0.9014  0.6933
  187SLPC  C21121559   0.288   2.755   7.980  0.6645 -0.0878 -0.6884
  187SLPC  H11R21560   0.358   2.817   7.919  1.6392 -0.7724 -0.2835
  187SLPC  H11S21561   0.366   2.689   8.023  1.3210  0.8718 -0.3761
  187SLPC  C21221562   0.213   2.838   8.084  1.0066 -0.4468  0.3567
  187SLPC  H12R21563   0.120   2.792   8.118  1.9802 -1.2869  2.0282
  187SLPC  C21321564   0.257   2.956   8.136  0.1775 -0.1163  0.1942
  187SLPC  H13R21565   0.186   3.019   8.191  1.6734  0.8215  1.1188
  187SLPC  C21421566   0.381   3.032   8.107  0.0923 -0.0286 -0.2933
  187SLPC  H14R21567   0.430   3.015   8.009 -2.5438 -0.3733 -1.6419
  187SLPC  H14S21568   0.451   2.995   8.185 -1.8137  0.4021  1.7178
  187SLPC  C21521569   0.379   3.185   8.114  0.2157  0.4495  0.7548
  187SLPC  H15R21570   0.293   3.224   8.055  0.3676  1.5156  1.2188
  187SLPC  H15S21571   0.467   3.236   8.068 -1.2984 -1.0166 -4.4785
  187SLPC  C21621572   0.361   3.248   8.250  0.3744 -0.3405 -0.0801
  187SLPC  H16R21573   0.458   3.242   8.304 -0.1602  0.2308  0.9757
  187SLPC  H16S21574   0.290   3.187   8.310  0.0231  0.3918  0.2613
  187SLPC  C21721575   0.302   3.391   8.228 -0.6053  0.1870 -0.3654
  187SLPC  H17R21576   0.216   3.388   8.157 -0.9004  0.2414 -0.0172
  187SLPC  H17S21577   0.382   3.443   8.173  0.5285  2.4039  3.0766
  187SLPC  C21821578   0.264   3.470   8.355  0.1071 -0.4510 -0.4202
  187SLPC  H18R21579   0.229   3.573   8.333 -0.9725 -0.7155  0.0074
  187SLPC  H18S21580   0.353   3.464   8.422  0.9918  1.8385 -1.2898
  187SLPC  H18T21581   0.181   3.420   8.410  2.1150 -1.0804  2.2813
  187SLPC   C3321582   0.525   2.621   7.176 -0.9772  0.1186  0.4280
  187SLPC   H3X21583   0.585   2.530   7.153 -1.5904 -0.1357 -0.2135
  187SLPC   H3Y21584   0.424   2.590   7.209 -0.9485  0.1005  0.4976
  187SLPC   C3421585   0.608   2.703   7.282 -0.0519  0.4318 -1.0296
  187SLPC   H4X21586   0.574   2.808   7.297  0.5394  0.3666  1.0569
  187SLPC   H4Y21587   0.713   2.732   7.260 -0.1208  0.5479 -1.2085
  187SLPC   C3521588   0.603   2.628   7.410 -0.9235 -0.5673  0.3274
  187SLPC   H5X21589   0.681   2.550   7.400 -1.8018 -1.4316  0.1268
  187SLPC   H5Y21590   0.502   2.586   7.429 -3.0204  2.3866 -2.8500
  187SLPC   C3621591   0.632   2.715   7.537 -0.3175  0.4075  0.8486
  187SLPC   H6X21592   0.571   2.807   7.526 -0.6425  0.0787 -0.2421
  187SLPC   H6Y21593   0.735   2.756   7.543 -0.8190  1.6015  1.8048
  187SLPC   C3721594   0.609   2.640   7.664  0.4354  0.5569 -0.0715
  187SLPC   H7X21595   0.517   2.578   7.665  0.6089  0.2043 -1.9778
  187SLPC   H7Y21596   0.693   2.566   7.665  0.0917  0.1437  1.3308
  187SLPC   C3821597   0.621   2.725   7.795 -0.4378  0.4906  0.9063
  187SLPC   H8X21598   0.523   2.777   7.809 -0.6027 -0.3751  3.4528
  187SLPC   H8Y21599   0.702   2.801   7.794 -2.1618  2.4491  1.4408
  187SLPC   C3921600   0.649   2.646   7.923  0.1857  0.1188 -0.2927
  187SLPC   H9X21601   0.561   2.589   7.959  1.4666 -0.7395  1.6652
  187SLPC   H9Y21602   0.661   2.733   7.991 -0.9753  1.3584 -1.6090
  187SLPC  C31021603   0.776   2.565   7.923  0.4996  0.1710 -0.1504
  187SLPC  H10X21604   0.840   2.617   7.848  4.1047 -0.6479  2.0884
  187SLPC  H10Y21605   0.753   2.460   7.894  0.5707  0.3923 -1.0476
  187SLPC  C31121606   0.857   2.573   8.052 -0.5172  0.2741 -0.5137
  187SLPC  H11X21607   0.846   2.672   8.100  0.0517  0.1465 -0.1100
  187SLPC  H11Y21608   0.964   2.565   8.021 -0.0689  0.6794  0.8519
  187SLPC  C31221609   0.829   2.457   8.158  0.5449 -0.1467 -0.2430
  187SLPC  H12X21610   0.900   2.468   8.243 -1.6231  0.4090  1.6066
  187SLPC  H12Y21611   0.841   2.362   8.103 -0.6932 -0.5549  0.1672
  187SLPC  C31321612   0.690   2.452   8.218 -0.1337  0.3084  0.4138
  187SLPC  H13X21613   0.685   2.349   8.257  1.0930 -0.6413 -1.7854
  187SLPC  H13Y21614   0.610   2.453   8.141  0.4840 -3.2111 -0.4172
  187SLPC  C31421615   0.657   2.556   8.329 -0.2247 -0.1872  0.2163
  187SLPC  H14X21616   0.674   2.659   8.293 -0.9903 -0.1945 -0.1914
  187SLPC  H14Y21617   0.723   2.549   8.418 -0.0700  1.2424  0.2367
  187SLPC  C31521618   0.516   2.542   8.375  0.7797  0.6339  0.0694
  187SLPC  H15X21619   0.490   2.451   8.433 -1.4679  0.0575 -1.7214
  187SLPC  H15Y21620   0.447   2.547   8.289  1.5680  0.3062 -0.5957
  187SLPC  C31621621   0.474   2.655   8.478 -0.9437  0.2338  0.1570
  187SLPC  H16X21622   0.529   2.641   8.573  0.1290 -0.5891 -0.5558
  187SLPC  H16Y21623   0.364   2.641   8.488 -0.8756 -1.5833 -1.0355
  187SLPC  C31721624   0.497   2.796   8.434 -0.1760 -0.1793  0.4326
  187SLPC  H17X21625   0.436   2.811   8.343  2.4648 -1.7733 -1.7603
  187SLPC  H17Y21626   0.601   2.829   8.415  0.1085 -0.4834  1.3862
  187SLPC  C31821627   0.448   2.890   8.544  0.1667 -0.3925 -0.1758
  187SLPC  H18X21628   0.357   2.855   8.596 -0.2032  1.1923  0.3205
  187SLPC  H18Y21629   0.427   2.994   8.509  0.9106  0.4333  1.6851
  187SLPC  H18Z21630   0.514   2.894   8.633 -1.8524  0.7356  1.3559
  188SLPC     N21631   1.512   4.043   6.015 -0.3054 -0.7487 -0.5609
  188SLPC   C1321632   1.649   4.056   5.959 -0.1190 -0.6930  0.1683
  188SLPC  H13A21633   1.696   3.961   5.939  1.6508  0.3608 -0.9711
  188SLPC  H13B21634   1.655   4.106   5.864 -1.3346 -1.1994 -0.1938
  188SLPC  H13C21635   1.713   4.112   6.026  1.1213 -0.1365 -1.4412
  188SLPC   C1421636   1.456   3.938   5.924 -0.3924 -0.1168 -1.0982
  188SLPC  H14A21637   1.351   3.917   5.939  0.0110 -0.1910  2.1995
  188SLPC  H14B21638   1.478   3.970   5.823 -1.8445  0.9399 -1.1028
  188SLPC  H14C21639   1.522   3.854   5.940  0.3728  0.6207 -0.2645
  188SLPC   C1521640   1.432   4.172   6.008  0.2570 -0.0477 -0.2406
  188SLPC  H15A21641   1.331   4.154   6.041  0.0886  2.8633  1.1907
  188SLPC  H15B21642   1.472   4.252   6.069  0.1512 -0.9016  0.9728
  188SLPC  H15C21643   1.428   4.214   5.909  0.9085  0.7001  0.0342
  188SLPC   C1221644   1.517   3.994   6.159  0.5363  0.0761  0.5567
  188SLPC  H12A21645   1.574   3.902   6.167  1.1184  0.2998 -0.7360
  188SLPC  H12B21646   1.419   3.959   6.188  1.1548 -0.6088  1.9011
  188SLPC   C1121647   1.576   4.088   6.264 -0.3111  0.9946  0.4607
  188SLPC  H11A21648   1.570   4.043   6.366  0.8881  0.2467  0.2074
  188SLPC  H11B21649   1.513   4.179   6.277 -0.6617  0.8269 -0.0537
  188SLPC     P21650   1.787   4.244   6.296 -0.2659  0.3158 -0.1753
  188SLPC   O1321651   1.925   4.214   6.335 -0.0374 -0.3134 -0.2391
  188SLPC   O1421652   1.768   4.353   6.198  0.0796  0.2934 -0.0249
  188SLPC   O1221653   1.716   4.119   6.237  0.0878  0.5208 -0.3777
  188SLPC   O1121654   1.696   4.276   6.420 -0.0652 -0.1692 -0.0632
  188SLPC    C121655   1.745   4.338   6.538 -0.0922  0.0966 -0.2978
  188SLPC    HA21656   1.855   4.352   6.541 -0.2105  1.0051  0.1612
  188SLPC    HB21657   1.708   4.442   6.550  2.5756  0.8633  2.3477
  188SLPC    C221658   1.700   4.270   6.670  0.1212 -0.1243 -0.2572
  188SLPC    HS21659   1.729   4.336   6.754 -1.0738 -0.4681  0.4498
  188SLPC   O2121660   1.747   4.130   6.684  0.2189 -0.0526  0.4447
  188SLPC   C2121661   1.878   4.121   6.694 -0.9003 -0.3266 -0.2276
  188SLPC   O2221662   1.954   4.211   6.730  0.3211  0.1072 -0.5267
  188SLPC   C2221663   1.918   3.976   6.659  1.0145  0.0925  0.9612
  188SLPC   H2R21664   1.826   3.915   6.673  0.4505 -0.1973 -3.0570
  188SLPC   H2S21665   1.931   3.964   6.550  1.0892 -2.5472  1.1864
  188SLPC    C321666   1.542   4.263   6.689 -0.6277 -0.0462 -0.5229
  188SLPC    HX21667   1.513   4.188   6.612  1.4792 -3.2148  1.5574
  188SLPC    HY21668   1.484   4.355   6.665 -2.4540 -1.3806 -1.5073
  188SLPC   O3121669   1.514   4.225   6.828  0.1537 -0.0256 -0.6476
  188SLPC   C3121670   1.470   4.094   6.844 -0.3206 -1.0103  0.3643
  188SLPC   O3221671   1.438   4.020   6.751  0.0077  0.3508 -0.3344
  188SLPC   C3221672   1.478   4.059   6.995  0.2667 -0.4098  0.4977
  188SLPC   H2X21673   1.472   3.948   7.007  4.5682 -0.8473 -0.0643
  188SLPC   H2Y21674   1.384   4.104   7.033 -0.0081 -1.0397  0.5767
  188SLPC   C2321675   2.026   3.916   6.747  0.0260 -0.1455  0.4417
  188SLPC   H3R21676   2.120   3.971   6.723 -0.3042  0.7064  1.0643
  188SLPC   H3S21677   2.045   3.811   6.716 -2.5610 -0.5063 -0.1734
  188SLPC   C2421678   1.995   3.919   6.894 -1.0912 -0.2656  0.0258
  188SLPC   H4R21679   1.895   3.877   6.918 -0.5793 -1.5749 -0.0413
  188SLPC   H4S21680   2.000   4.022   6.936 -1.0199 -1.1211  2.2485
  188SLPC   C2521681   2.106   3.846   6.980 -0.6230 -0.0123  0.1830
  188SLPC   H5R21682   2.115   3.901   7.076 -0.6271  0.7298 -0.2337
  188SLPC   H5S21683   2.206   3.858   6.934 -0.0856 -2.2813  0.6359
  188SLPC   C2621684   2.057   3.702   6.995 -0.4804  0.2641 -0.4205
  188SLPC   H6R21685   2.041   3.667   6.891 -1.0743 -0.3654 -0.1254
  188SLPC   H6S21686   1.958   3.697   7.045 -0.9493 -1.8225 -1.4320
  188SLPC   C2721687   2.144   3.616   7.091 -0.0270 -0.0482  0.1225
  188SLPC   H7R21688   2.145   3.650   7.197  1.9437 -0.9500  0.4382
  188SLPC   H7S21689   2.248   3.620   7.054  0.1263  1.8504  0.6421
  188SLPC   C2821690   2.103   3.468   7.093  0.8514  0.1162 -0.1594
  188SLPC   H8R21691   2.194   3.422   7.137  0.8027 -2.2260 -2.2881
  188SLPC   H8S21692   2.091   3.429   6.990 -0.9486  0.4935 -0.1371
  188SLPC   C2921693   1.978   3.448   7.176  0.3810 -0.0193 -0.7366
  188SLPC   H9R21694   1.883   3.446   7.121 -0.6046  0.6123  0.8658
  188SLPC  C21021695   1.963   3.429   7.314 -0.0288  0.5255 -0.1997
  188SLPC  H10R21696   1.864   3.425   7.363  0.6108 -1.5215  1.0601
  188SLPC  C21121697   2.074   3.412   7.413 -0.7299  0.0376 -0.0586
  188SLPC  H11R21698   2.086   3.501   7.478  0.4039 -1.6697  2.2160
  188SLPC  H11S21699   2.178   3.395   7.379 -0.7542  0.6362 -0.4395
  188SLPC  C21221700   2.040   3.300   7.511  1.5456 -0.4070  0.0498
  188SLPC  H12R21701   2.033   3.201   7.465  1.3626  0.1027 -1.0410
  188SLPC  C21321702   2.016   3.295   7.644  0.8457 -0.6158 -0.4984
  188SLPC  H13R21703   1.999   3.196   7.690  2.2242 -1.1099 -1.0078
  188SLPC  C21421704   2.033   3.414   7.732 -0.2859  0.2488  0.0922
  188SLPC  H14R21705   2.128   3.467   7.710  0.1028  0.6246  2.4140
  188SLPC  H14S21706   2.055   3.384   7.837  0.7995  1.1193  0.1384
  188SLPC  C21521707   1.919   3.521   7.741  0.0405  0.0010 -0.5813
  188SLPC  H15R21708   1.886   3.546   7.639  1.3220 -0.0711 -1.0345
  188SLPC  H15S21709   1.954   3.610   7.798  0.1584  1.2777 -2.5547
  188SLPC  C21621710   1.802   3.463   7.813  0.1335 -0.9665  0.4452
  188SLPC  H16R21711   1.819   3.450   7.922 -1.4044  0.0548  0.8343
  188SLPC  H16S21712   1.777   3.363   7.770 -3.0507 -0.3099  0.5341
  188SLPC  C21721713   1.675   3.542   7.796  0.1722 -0.2818 -0.2269
  188SLPC  H17R21714   1.654   3.543   7.687 -1.1890 -1.8002 -0.0235
  188SLPC  H17S21715   1.702   3.645   7.829  1.5797 -0.7657  0.1900
  188SLPC  C21821716   1.554   3.473   7.868 -0.0882 -0.3288  1.1214
  188SLPC  H18R21717   1.582   3.472   7.975  2.8848  0.0358  0.4216
  188SLPC  H18S21718   1.546   3.367   7.833  2.5345 -1.0437  2.3986
  188SLPC  H18T21719   1.455   3.519   7.850 -0.1318 -1.0318 -0.6494
  188SLPC   C3321720   1.606   4.113   7.061  0.2690  0.0248  0.1460
  188SLPC   H3X21721   1.609   4.223   7.047  0.7433 -0.1750 -1.6799
  188SLPC   H3Y21722   1.702   4.070   7.025 -0.6434 -0.5750 -1.7681
  188SLPC   C3421723   1.606   4.107   7.212  0.1130 -0.5229 -0.0462
  188SLPC   H4X21724   1.708   4.137   7.244  0.9456 -1.6657 -1.4586
  188SLPC   H4Y21725   1.591   4.011   7.267  3.5070 -0.5978  0.9603
  188SLPC   C3521726   1.504   4.206   7.274  0.0533 -0.2250 -0.2865
  188SLPC   H5X21727   1.404   4.165   7.248  0.6396 -1.0257 -1.3387
  188SLPC   H5Y21728   1.516   4.308   7.230 -2.9762  1.1930  1.8372
  188SLPC   C3621729   1.505   4.216   7.425  0.1764 -0.0578 -0.1839
  188SLPC   H6X21730   1.602   4.262   7.454 -0.5742  2.2511 -1.0636
  188SLPC   H6Y21731   1.486   4.115   7.466 -1.3201 -0.0148 -0.7064
  188SLPC   C3721732   1.404   4.311   7.480  0.8582 -0.2155  0.8668
  188SLPC   H7X21733   1.304   4.261   7.479  1.3083 -1.1395 -0.1832
  188SLPC   H7Y21734   1.412   4.404   7.421  0.0494 -1.0408 -0.6065
  188SLPC   C3821735   1.438   4.331   7.629  0.4264 -0.0807  0.0727
  188SLPC   H8X21736   1.546   4.354   7.637 -0.2389  2.9894  2.3875
  188SLPC   H8Y21737   1.431   4.236   7.685  2.1422 -0.0188  0.4515
  188SLPC   C3921738   1.358   4.442   7.697 -0.5947  0.2971 -0.3001
  188SLPC   H9X21739   1.256   4.399   7.690 -1.5451  2.5598 -1.1003
  188SLPC   H9Y21740   1.354   4.536   7.638 -1.1036  0.9342  0.7247
  188SLPC  C31021741   1.395   4.470   7.841 -0.1855 -0.2723  0.5107
  188SLPC  H10X21742   1.319   4.544   7.874  0.2606 -0.5529  2.2774
  188SLPC  H10Y21743   1.497   4.508   7.864  0.2310 -0.1714 -1.3283
  188SLPC  C31121744   1.357   4.349   7.933  0.1492 -0.7743  0.2803
  188SLPC  H11X21745   1.425   4.268   7.900  0.5631  0.1197 -1.1706
  188SLPC  H11Y21746   1.251   4.326   7.910 -0.8201  1.5711  1.9590
  188SLPC  C31221747   1.360   4.376   8.088 -0.0363  0.0681 -0.1275
  188SLPC  H12X21748   1.284   4.450   8.119 -0.1828 -0.3990  0.6604
  188SLPC  H12Y21749   1.458   4.417   8.120  0.6093  0.3127 -2.2550
  188SLPC  C31321750   1.355   4.241   8.165  0.6950  0.2096  0.1928
  188SLPC  H13X21751   1.459   4.202   8.173  0.5491  0.0093  1.1346
  188SLPC  H13Y21752   1.298   4.182   8.090 -0.2360  0.4947  0.6679
  188SLPC  C31421753   1.266   4.243   8.289 -0.0473 -0.8268 -0.1592
  188SLPC  H14X21754   1.169   4.290   8.260 -0.3616 -2.0890 -1.2611
  188SLPC  H14Y21755   1.312   4.299   8.373 -2.7017  0.7255  0.3722
  188SLPC  C31521756   1.224   4.107   8.343 -0.0759  0.4812  0.2057
  188SLPC  H15X21757   1.316   4.049   8.365 -0.6212 -0.8125 -0.7600
  188SLPC  H15Y21758   1.169   4.054   8.262 -0.1574  0.6424  0.1549
  188SLPC  C31621759   1.122   4.115   8.456  0.1871 -0.3509 -0.0793
  188SLPC  H16X21760   1.040   4.173   8.408  0.8037  1.2174  0.6744
  188SLPC  H16Y21761   1.169   4.172   8.539  0.5444 -0.7241 -0.0287
  188SLPC  C31721762   1.063   3.987   8.514 -0.2612  0.5213 -0.3267
  188SLPC  H17X21763   0.990   3.956   8.436 -0.3352 -1.0074  0.3224
  188SLPC  H17Y21764   1.010   4.011   8.609 -0.9799  1.8561 -1.0372
  188SLPC  C31821765   1.168   3.879   8.531  0.2393 -0.1803  0.0451
  188SLPC  H18X21766   1.247   3.922   8.596 -1.0860  0.4986  1.2585
  188SLPC  H18Y21767   1.205   3.845   8.432 -0.6263 -1.4537  0.1388
  188SLPC  H18Z21768   1.140   3.789   8.590  1.9733 -0.0897  1.1032
  189SLPC     N21769   4.236   5.178   6.341 -0.1857 -0.0964  0.4188
  189SLPC   C1321770   4.384   5.143   6.321  0.4529  0.1210  0.4956
  189SLPC  H13A21771   4.457   5.218   6.346 -0.4607  2.0494 -2.0836
  189SLPC  H13B21772   4.404   5.050   6.372 -0.1677  0.7051  1.8322
  189SLPC  H13C21773   4.395   5.135   6.213  0.4795 -2.6677  0.6439
  189SLPC   C1421774   4.155   5.061   6.315  0.4643 -0.1337 -0.8001
  189SLPC  H14A21775   4.170   5.022   6.215  1.0761 -0.1806 -0.6961
  189SLPC  H14B21776   4.194   4.988   6.385  1.1206 -0.4960 -1.5159
  189SLPC  H14C21777   4.052   5.082   6.336  0.8212  0.1533  0.7808
  189SLPC   C1521778   4.193   5.279   6.245  0.0605 -0.2234 -0.2989
  189SLPC  H15A21779   4.194   5.243   6.143 -0.2610  0.7576 -0.6601
  189SLPC  H15B21780   4.096   5.319   6.270  0.6248  0.2867  1.1594
  189SLPC  H15C21781   4.262   5.362   6.251  1.1926 -1.1196 -0.5622
  189SLPC   C1221782   4.219   5.217   6.494  0.2941 -0.3353 -0.4653
  189SLPC  H12A21783   4.283   5.302   6.508  1.1951 -1.2398  1.2662
  189SLPC  H12B21784   4.254   5.131   6.551  3.0781  0.3863 -0.9637
  189SLPC   C1121785   4.072   5.250   6.544  0.0367  0.0640  0.1136
  189SLPC  H11A21786   4.091   5.283   6.649  2.0263 -0.3945 -0.0661
  189SLPC  H11B21787   4.013   5.156   6.553 -2.3637  1.4479 -0.3298
  189SLPC     P21788   3.848   5.299   6.439  0.0338  0.2788  0.3151
  189SLPC   O1321789   3.773   5.412   6.385  0.1544  0.1955  0.1959
  189SLPC   O1421790   3.844   5.167   6.371  0.1228 -0.3642 -0.8968
  189SLPC   O1221791   4.003   5.348   6.472 -0.2023  0.5762  0.1014
  189SLPC   O1121792   3.805   5.269   6.584 -0.0876 -0.0524 -0.0093
  189SLPC    C121793   3.672   5.217   6.620 -0.6570 -0.3444  0.1261
  189SLPC    HA21794   3.644   5.133   6.553  1.0235  0.3293 -1.5220
  189SLPC    HB21795   3.692   5.185   6.725 -1.5637  0.8533  0.6892
  189SLPC    C221796   3.561   5.316   6.609  0.4301 -0.0501 -0.3498
  189SLPC    HS21797   3.551   5.342   6.501 -1.6200 -1.0994 -0.4675
  189SLPC   O2121798   3.594   5.427   6.693  0.2928  0.5539 -0.1215
  189SLPC   C2121799   3.531   5.542   6.672 -0.2868  0.1127  0.4174
  189SLPC   O2221800   3.446   5.558   6.593  0.2847 -0.1927  0.2011
  189SLPC   C2221801   3.580   5.645   6.770  0.2868  0.2907 -0.2173
  189SLPC   H2R21802   3.564   5.595   6.868  1.5584 -0.6716 -0.4824
  189SLPC   H2S21803   3.690   5.653   6.757  0.2447 -0.4003 -1.1043
  189SLPC    C321804   3.421   5.261   6.650 -0.9130  0.4469 -0.0337
  189SLPC    HX21805   3.394   5.182   6.577 -0.0969  1.2676 -1.2613
  189SLPC    HY21806   3.349   5.346   6.640  1.8896  3.0014 -0.1062
  189SLPC   O3121807   3.429   5.205   6.777  0.1681 -0.3708  0.3843
  189SLPC   C3121808   3.383   5.283   6.880  0.3781  0.6560  0.4846
  189SLPC   O3221809   3.332   5.395   6.858  0.2970  0.1053 -0.0536
  189SLPC   C3221810   3.403   5.219   7.011  0.3593  0.8688  0.1947
  189SLPC   H2X21811   3.511   5.225   7.037  0.4520  1.1207 -0.2313
  189SLPC   H2Y21812   3.373   5.113   7.001 -1.8132  1.5131 -0.7704
  189SLPC   C2321813   3.514   5.779   6.752  0.7544 -0.3018  0.5692
  189SLPC   H3R21814   3.407   5.750   6.742  0.6804 -2.1578  4.5591
  189SLPC   H3S21815   3.557   5.829   6.663  1.4706  1.3767  1.8023
  189SLPC   C2421816   3.522   5.879   6.871  0.6176 -0.4038 -0.0874
  189SLPC   H4R21817   3.466   5.968   6.836  0.8672  0.2620  1.1416
  189SLPC   H4S21818   3.627   5.908   6.892  1.5940 -0.6694 -3.9211
  189SLPC   C2521819   3.445   5.816   6.983  0.5126  0.0728 -0.6196
  189SLPC   H5R21820   3.508   5.736   7.026  1.4172  0.4521 -1.2208
  189SLPC   H5S21821   3.347   5.773   6.952  0.2103  1.7344 -2.1877
  189SLPC   C2621822   3.411   5.917   7.100  0.3334 -0.2535 -0.9232
  189SLPC   H6R21823   3.359   6.006   7.059  1.2746  0.5213 -0.4930
  189SLPC   H6S21824   3.503   5.958   7.149 -0.6249  0.4073  0.3844
  189SLPC   C2721825   3.327   5.860   7.216 -0.6473 -0.0373  0.0768
  189SLPC   H7R21826   3.358   5.758   7.247 -0.1298  0.2444  0.5042
  189SLPC   H7S21827   3.225   5.844   7.176 -1.3635 -1.4401  2.2810
  189SLPC   C2821828   3.327   5.955   7.332  0.2456  0.2689 -0.0024
  189SLPC   H8R21829   3.294   6.056   7.300  1.0514  0.3637 -0.5691
  189SLPC   H8S21830   3.424   5.987   7.377 -0.3219  3.5488 -0.8585
  189SLPC   C2921831   3.241   5.902   7.446  0.2701  0.4634 -0.7693
  189SLPC   H9R21832   3.134   5.923   7.430  0.7642  1.8774 -2.5838
  189SLPC  C21021833   3.275   5.830   7.556 -0.3185  0.2971 -0.4534
  189SLPC  H10R21834   3.200   5.813   7.635 -0.4561  2.7683  0.0163
  189SLPC  C21121835   3.414   5.780   7.609  0.1666 -0.1215  0.2665
  189SLPC  H11R21836   3.441   5.846   7.694  1.8889  0.0097 -0.3319
  189SLPC  H11S21837   3.493   5.806   7.535 -0.3313 -0.4913 -0.4089
  189SLPC  C21221838   3.408   5.632   7.638 -0.1490  0.1317 -0.3217
  189SLPC  H12R21839   3.383   5.560   7.559  3.6581 -2.4472  0.5101
  189SLPC  C21321840   3.442   5.566   7.753 -0.4327 -0.4213  0.8228
  189SLPC  H13R21841   3.417   5.459   7.768 -0.3150 -0.5784 -0.0590
  189SLPC  C21421842   3.486   5.635   7.876 -0.2927  0.2419 -0.2790
  189SLPC  H14R21843   3.452   5.740   7.882 -0.8270  0.1366 -1.3186
  189SLPC  H14S21844   3.597   5.639   7.871 -0.2874 -0.9220 -3.5161
  189SLPC  C21521845   3.438   5.572   8.001  0.7223  0.4015 -0.0479
  189SLPC  H15R21846   3.455   5.463   7.996 -0.3297  0.1646  1.2115
  189SLPC  H15S21847   3.327   5.573   7.998  0.6281 -2.5817 -1.1474
  189SLPC  C21621848   3.493   5.635   8.127  0.7140 -0.1472 -1.1472
  189SLPC  H16R21849   3.427   5.632   8.217  0.3164 -0.6129 -1.4472
  189SLPC  H16S21850   3.512   5.744   8.115  0.8740 -0.2303 -1.6582
  189SLPC  C21721851   3.621   5.561   8.176  0.5140  0.5442  0.4724
  189SLPC  H17R21852   3.655   5.613   8.268  0.7776 -0.2359  0.8210
  189SLPC  H17S21853   3.709   5.572   8.109  0.1194  0.5104 -0.0617
  189SLPC  C21821854   3.598   5.418   8.215  0.5480  0.4661 -0.7529
  189SLPC  H18R21855   3.567   5.351   8.131 -1.1210 -0.8458  0.8462
  189SLPC  H18S21856   3.524   5.420   8.297  1.7726  2.3459  0.3740
  189SLPC  H18T21857   3.692   5.380   8.261  0.1426  3.0502  2.5743
  189SLPC   C3321858   3.324   5.288   7.127  0.5622  0.4029  0.0764
  189SLPC   H3X21859   3.215   5.290   7.106  0.0368 -0.5941  2.3839
  189SLPC   H3Y21860   3.352   5.395   7.133  3.4755 -0.2450 -0.3525
  189SLPC   C3421861   3.338   5.210   7.258 -0.3474 -0.3370 -0.5117
  189SLPC   H4X21862   3.446   5.186   7.268 -0.2928 -1.2193 -2.7930
  189SLPC   H4Y21863   3.286   5.114   7.238 -2.5859  1.0587 -1.7692
  189SLPC   C3521864   3.292   5.273   7.388 -0.6489 -0.4781  0.4303
  189SLPC   H5X21865   3.185   5.296   7.370 -0.2103 -0.5515 -2.6514
  189SLPC   H5Y21866   3.344   5.370   7.403 -0.9470 -0.5395  2.1235
  189SLPC   C3621867   3.315   5.182   7.507  0.2443  0.2499 -0.2225
  189SLPC   H6X21868   3.419   5.199   7.543  0.3925 -0.6772 -0.1849
  189SLPC   H6Y21869   3.316   5.073   7.484 -1.0798  0.1774 -0.0000
  189SLPC   C3721870   3.221   5.208   7.630 -0.2013 -1.0553  0.6838
  189SLPC   H7X21871   3.121   5.188   7.587  0.0628 -1.3012  0.1808
  189SLPC   H7Y21872   3.234   5.318   7.640 -0.5396 -0.8394 -0.9552
  189SLPC   C3821873   3.265   5.135   7.752  0.3305  0.4032  0.1326
  189SLPC   H8X21874   3.376   5.132   7.748  0.3180 -1.7938  0.0121
  189SLPC   H8Y21875   3.224   5.033   7.732  0.6038  0.6315 -1.7699
  189SLPC   C3921876   3.208   5.208   7.871 -0.8406  0.9106  0.1582
  189SLPC   H9X21877   3.101   5.180   7.877 -0.6031 -0.1159 -0.1374
  189SLPC   H9Y21878   3.212   5.317   7.854 -1.0191  1.1207  1.3778
  189SLPC  C31021879   3.265   5.164   8.002 -0.1460 -0.1400 -1.2739
  189SLPC  H10X21880   3.376   5.149   8.002  0.4889  3.5893 -2.0254
  189SLPC  H10Y21881   3.214   5.072   8.039 -1.2564  0.9601 -0.0107
  189SLPC  C31121882   3.225   5.266   8.115 -0.2587 -0.3893  0.4211
  189SLPC  H11X21883   3.116   5.275   8.133 -0.2457  3.2054 -0.5101
  189SLPC  H11Y21884   3.258   5.366   8.078  0.6613 -1.2367 -1.1184
  189SLPC  C31221885   3.304   5.247   8.248  0.1704 -0.4677 -0.2764
  189SLPC  H12X21886   3.307   5.343   8.303  0.8277 -0.5775 -0.1066
  189SLPC  H12Y21887   3.407   5.213   8.225  0.0900 -0.7715 -0.1890
  189SLPC  C31321888   3.236   5.149   8.337  0.3853 -0.1167 -0.2868
  189SLPC  H13X21889   3.231   5.048   8.290  0.4706 -0.0124 -0.5220
  189SLPC  H13Y21890   3.135   5.192   8.357  1.0625  0.9018  1.0684
  189SLPC  C31421891   3.300   5.135   8.480 -0.8632 -0.0502  0.4184
  189SLPC  H14X21892   3.311   5.234   8.529 -1.7483 -0.5058  1.5834
  189SLPC  H14Y21893   3.402   5.096   8.457 -0.2807  1.3312  0.5561
  189SLPC  C31521894   3.244   5.020   8.563 -0.5580  0.7647 -0.1479
  189SLPC  H15X21895   3.245   4.924   8.507  0.5375  0.4313  0.4065
  189SLPC  H15Y21896   3.137   5.041   8.585 -1.3341  0.0989 -2.9526
  189SLPC  C31621897   3.318   5.011   8.693 -0.1972 -0.0300  0.6700
  189SLPC  H16X21898   3.308   5.107   8.747  0.1260  1.1415 -1.2740
  189SLPC  H16Y21899   3.427   5.001   8.672 -0.3061  1.4378 -0.7291
  189SLPC  C31721900   3.263   4.886   8.775  0.2332 -0.2174 -0.2181
  189SLPC  H17X21901   3.293   4.787   8.733  1.1883  0.0711 -0.2270
  189SLPC  H17Y21902   3.152   4.894   8.764  0.2582  0.1054 -0.2477
  189SLPC  C31821903   3.299   4.889   8.926  0.4051  0.1835  0.6823
  189SLPC  H18X21904   3.410   4.884   8.925  0.5748  0.8964 -3.6522
  189SLPC  H18Y21905   3.257   4.798   8.973 -2.0018 -1.1688 -3.5736
  189SLPC  H18Z21906   3.267   4.985   8.971  3.3693  1.4641  0.3376
  190SLPC     N21907   4.284   4.391   6.508 -0.2795  0.4026  0.6581
  190SLPC   C1321908   4.390   4.302   6.561 -0.2820 -0.0860 -1.1430
  190SLPC  H13A21909   4.449   4.253   6.485  3.0061 -0.0621  1.1503
  190SLPC  H13B21910   4.459   4.359   6.622  0.3270 -0.0304 -1.8769
  190SLPC  H13C21911   4.349   4.223   6.622  0.4355  0.0961 -0.3984
  190SLPC   C1421912   4.193   4.312   6.418 -0.1852  0.1540 -0.5987
  190SLPC  H14A21913   4.241   4.253   6.341 -0.3604  0.0170 -0.6030
  190SLPC  H14B21914   4.145   4.245   6.488  0.2697 -0.4597 -0.8590
  190SLPC  H14C21915   4.114   4.369   6.372  0.2205 -0.4958 -2.1866
  190SLPC   C1521916   4.358   4.488   6.427  0.3610  0.1767  0.4368
  190SLPC  H15A21917   4.404   4.435   6.345  1.0176 -0.0351  0.9404
  190SLPC  H15B21918   4.293   4.563   6.384 -0.6320 -0.3387  0.9948
  190SLPC  H15C21919   4.431   4.533   6.492 -1.4891  1.0141  2.0476
  190SLPC   C1221920   4.206   4.445   6.634  0.5558 -0.8762  0.7037
  190SLPC  H12A21921   4.275   4.508   6.688 -0.0349  3.2865 -2.8789
  190SLPC  H12B21922   4.186   4.361   6.699 -3.7006 -1.9931 -1.6713
  190SLPC   C1121923   4.070   4.523   6.604 -0.3631 -0.1106  0.6031
  190SLPC  H11A21924   4.031   4.555   6.703 -0.3991  0.1581  0.5033
  190SLPC  H11B21925   4.002   4.441   6.574 -0.1351 -0.5416  1.2273
  190SLPC     P21926   4.164   4.757   6.540  0.1896 -0.0394 -0.1438
  190SLPC   O1321927   4.230   4.747   6.667 -0.3422 -0.3340 -0.3694
  190SLPC   O1421928   4.246   4.780   6.418 -0.2060  0.3314  0.3564
  190SLPC   O1221929   4.084   4.628   6.504  0.4439  0.3138  0.0346
  190SLPC   O1121930   4.046   4.868   6.546 -0.2695  0.7389  0.1109
  190SLPC    C121931   3.905   4.835   6.548  0.3188  0.1704 -0.3280
  190SLPC    HA21932   3.850   4.883   6.464 -0.5940 -2.8047 -1.5572
  190SLPC    HB21933   3.878   4.728   6.535  0.6088 -0.0134  0.5330
  190SLPC    C221934   3.836   4.885   6.677 -0.2275 -0.7459  0.2209
  190SLPC    HS21935   3.857   4.994   6.671  0.0732 -0.8256 -0.1571
  190SLPC   O2121936   3.890   4.825   6.796  0.0278  0.2563  0.0054
  190SLPC   C2121937   3.983   4.884   6.857 -0.7010 -0.2992 -0.1683
  190SLPC   O2221938   4.026   5.000   6.842  0.1030  0.2993 -0.4294
  190SLPC   C2221939   4.023   4.800   6.979 -0.3711  0.2352 -0.8940
  190SLPC   H2R21940   3.955   4.822   7.064 -0.8575 -2.2345 -0.5507
  190SLPC   H2S21941   4.014   4.693   6.951  0.5702 -0.9968  2.9344
  190SLPC    C321942   3.682   4.867   6.693  0.7261 -0.0225 -0.0888
  190SLPC    HX21943   3.654   4.760   6.684 -0.4412 -0.0210  2.7266
  190SLPC    HY21944   3.624   4.923   6.616  1.2857 -1.0384 -1.2802
  190SLPC   O3121945   3.630   4.908   6.827  0.4583 -0.4072  0.0584
  190SLPC   C3121946   3.602   4.814   6.915  0.0173 -0.4983  1.5823
  190SLPC   O3221947   3.608   4.694   6.893 -0.7605 -0.2896  0.0628
  190SLPC   C3221948   3.560   4.880   7.053 -0.5849  0.0875  0.2163
  190SLPC   H2X21949   3.449   4.888   7.058 -0.6605 -1.2910  1.2030
  190SLPC   H2Y21950   3.616   4.976   7.058  1.9723 -1.3449  0.4080
  190SLPC   C2321951   4.169   4.832   7.022 -0.2655 -0.3975 -0.1772
  190SLPC   H3R21952   4.182   4.940   7.046  1.8588 -0.5405 -0.4688
  190SLPC   H3S21953   4.231   4.799   6.936  0.1304 -2.1277  0.7444
  190SLPC   C2421954   4.219   4.736   7.134  0.5358 -0.5512  0.4162
  190SLPC   H4R21955   4.320   4.777   7.155  1.7363 -1.9352 -2.2222
  190SLPC   H4S21956   4.230   4.639   7.082  0.7268  0.0171 -0.6353
  190SLPC   C2521957   4.128   4.726   7.253 -0.3346 -0.1360  0.9489
  190SLPC   H5R21958   4.054   4.646   7.230 -0.0203 -0.0790 -0.3841
  190SLPC   H5S21959   4.066   4.817   7.269 -1.2526 -1.0691  2.9895
  190SLPC   C2621960   4.204   4.673   7.377 -0.2064 -0.2396  0.1529
  190SLPC   H6R21961   4.300   4.728   7.385 -1.0423  1.0080  2.8294
  190SLPC   H6S21962   4.233   4.566   7.371  1.8700  0.2517  0.7141
  190SLPC   C2721963   4.133   4.691   7.518  0.1763  0.1840 -0.0642
  190SLPC   H7R21964   4.142   4.794   7.559 -1.2252  0.0941  0.5120
  190SLPC   H7S21965   4.184   4.619   7.585 -1.0463  0.9059  1.7084
  190SLPC   C2821966   3.985   4.654   7.526  0.2583  0.3940  0.1805
  190SLPC   H8R21967   3.966   4.552   7.485 -1.3313  1.6053 -2.3252
  190SLPC   H8S21968   3.931   4.720   7.455  1.5052  1.2260 -0.0105
  190SLPC   C2921969   3.936   4.685   7.667 -0.4079  0.4009 -0.1928
  190SLPC   H9R21970   3.859   4.764   7.674 -0.6305  0.0354  2.3869
  190SLPC  C21021971   3.967   4.619   7.786 -0.1087  0.0622  0.4510
  190SLPC  H10R21972   3.937   4.661   7.883  0.0258 -0.8093  0.8766
  190SLPC  C21121973   4.059   4.491   7.790 -0.3183 -0.0250 -0.8952
  190SLPC  H11R21974   4.095   4.455   7.691 -0.9082 -2.2785 -0.3437
  190SLPC  H11S21975   4.009   4.401   7.832  0.6598 -0.7120 -1.1625
  190SLPC  C21221976   4.179   4.519   7.880 -0.6192 -0.1722  0.0296
  190SLPC  H12R21977   4.264   4.565   7.827  0.0095  1.1962  2.1262
  190SLPC  C21321978   4.197   4.468   8.000  0.3191  0.6346  0.4487
  190SLPC  H13R21979   4.290   4.498   8.050  0.8755  1.4606 -1.0543
  190SLPC  C21421980   4.108   4.385   8.087 -0.8587 -0.3367 -0.5154
  190SLPC  H14R21981   4.004   4.389   8.048 -0.7779  3.3223 -0.7338
  190SLPC  H14S21982   4.112   4.443   8.182 -1.4516  0.4751 -0.9713
  190SLPC  C21521983   4.155   4.236   8.096  0.0144 -0.0887  0.1562
  190SLPC  H15R21984   4.261   4.240   8.129  0.5187  0.0504 -1.3882
  190SLPC  H15S21985   4.149   4.182   7.999  0.4194  0.3425 -0.1125
  190SLPC  C21621986   4.066   4.155   8.198 -0.3909 -0.8861  0.2705
  190SLPC  H16R21987   3.968   4.157   8.145  0.1159 -0.7266 -0.6716
  190SLPC  H16S21988   4.061   4.214   8.292  1.5617  1.0425 -0.7673
  190SLPC  C21721989   4.124   4.011   8.228  0.5166  0.4108  0.1523
  190SLPC  H17R21990   4.228   4.043   8.251  0.8606 -1.3525  1.2723
  190SLPC  H17S21991   4.116   3.942   8.141  0.0833 -0.8739  1.1773
  190SLPC  C21821992   4.050   3.949   8.341 -0.1687 -0.0347 -0.2855
  190SLPC  H18R21993   4.080   3.843   8.356  0.4643  0.4631  2.6085
  190SLPC  H18S21994   3.941   3.935   8.330 -0.1417 -0.0609 -0.5200
  190SLPC  H18T21995   4.075   4.012   8.429  0.5346 -0.2716 -0.3103
  190SLPC   C3321996   3.602   4.793   7.170 -0.1179  0.5610 -0.6709
  190SLPC   H3X21997   3.712   4.779   7.165 -0.4098 -1.7527 -2.5325
  190SLPC   H3Y21998   3.544   4.698   7.172  1.4434 -0.4405  1.2804
  190SLPC   C3421999   3.553   4.863   7.301 -0.7152 -0.0872 -0.3808
  190SLPC   H4X22000   3.445   4.875   7.280 -1.0888 -0.9757  0.9304
  190SLPC   H4Y22001   3.613   4.957   7.307 -0.0215 -0.5068 -0.7531
  190SLPC   C3522002   3.567   4.784   7.436  0.0324 -0.6677  0.0601
  190SLPC   H5X22003   3.672   4.781   7.472 -0.2157 -0.0142  0.8641
  190SLPC   H5Y22004   3.535   4.677   7.431  1.4458 -1.2281  1.8152
  190SLPC   C3622005   3.480   4.837   7.549  0.0929 -0.1778 -0.0278
  190SLPC   H6X22006   3.375   4.817   7.518 -0.2942  2.1971 -0.4978
  190SLPC   H6Y22007   3.495   4.946   7.565  0.5625  0.0955 -2.0524
  190SLPC   C3722008   3.503   4.757   7.677 -0.4564 -0.3875  0.0235
  190SLPC   H7X22009   3.611   4.756   7.703 -0.3256 -0.2829 -0.4866
  190SLPC   H7Y22010   3.474   4.652   7.657  0.2050 -0.8918  1.5807
  190SLPC   C3822011   3.419   4.807   7.791  0.2881  0.0419  0.4892
  190SLPC   H8X22012   3.317   4.780   7.757  0.2570 -2.2109  2.1767
  190SLPC   H8Y22013   3.426   4.918   7.799  0.0091  0.2371 -1.4228
  190SLPC   C3922014   3.454   4.744   7.924 -0.3656 -0.1539  0.5623
  190SLPC   H9X22015   3.472   4.638   7.895 -0.4770 -0.4261  1.4599
  190SLPC   H9Y22016   3.362   4.744   7.987 -1.2100 -0.9388 -0.6238
  190SLPC  C31022017   3.580   4.802   7.976 -0.7944 -0.7661  0.0587
  190SLPC  H10X22018   3.579   4.912   7.965  0.0699 -0.4946  2.1594
  190SLPC  H10Y22019   3.659   4.757   7.911 -0.3944  0.3588 -0.2559
  190SLPC  C31122020   3.593   4.759   8.125 -0.9780 -0.1497  0.9450
  190SLPC  H11X22021   3.689   4.793   8.169 -0.2226  3.1131 -2.6398
  190SLPC  H11Y22022   3.606   4.649   8.132  3.8898  0.1368 -0.0658
  190SLPC  C31222023   3.488   4.826   8.226 -0.2487  0.7671 -0.1791
  190SLPC  H12X22024   3.389   4.824   8.175 -0.6037 -0.8987  0.4906
  190SLPC  H12Y22025   3.520   4.929   8.252  1.6041 -0.0533  0.9764
  190SLPC  C31322026   3.484   4.730   8.355 -0.0894  0.6740  0.4400
  190SLPC  H13X22027   3.456   4.628   8.320 -0.7583  1.6790 -2.2083
  190SLPC  H13Y22028   3.405   4.758   8.429 -1.2136 -0.6850 -0.1886
  190SLPC  C31422029   3.616   4.735   8.436  0.2613  0.1059  0.6168
  190SLPC  H14X22030   3.648   4.838   8.460  0.1909  0.7590 -1.8676
  190SLPC  H14Y22031   3.700   4.686   8.382 -1.0660 -3.0745  1.2230
  190SLPC  C31522032   3.605   4.653   8.567  0.2186  0.1450  0.0394
  190SLPC  H15X22033   3.591   4.549   8.529  0.8565  0.0153  0.1429
  190SLPC  H15Y22034   3.510   4.682   8.617  0.7217  0.7215  0.6672
  190SLPC  C31622035   3.715   4.683   8.669  0.3484  0.0428 -0.2546
  190SLPC  H16X22036   3.684   4.777   8.720 -1.2635  0.2653 -1.5549
  190SLPC  H16Y22037   3.805   4.709   8.609  1.1969  3.1186  2.0592
  190SLPC  C31722038   3.732   4.567   8.766 -0.7299  0.2782 -1.2718
  190SLPC  H17X22039   3.839   4.571   8.798 -0.1773  2.0736 -3.0806
  190SLPC  H17Y22040   3.722   4.471   8.712  1.8623 -1.0293  0.3807
  190SLPC  C31822041   3.630   4.573   8.889 -0.6740  0.3221 -0.0379
  190SLPC  H18X22042   3.620   4.484   8.953 -4.0528  0.0521 -0.7486
  190SLPC  H18Y22043   3.530   4.583   8.841 -0.6598  1.2790  0.1053
  190SLPC  H18Z22044   3.638   4.669   8.945  0.4256 -0.2544  0.8266
  191SLPC     N22045   2.992   0.378   5.748  0.2182 -0.7379  0.1167
  191SLPC   C1322046   3.138   0.367   5.741  0.6082  0.5764  0.3724
  191SLPC  H13A22047   3.167   0.416   5.649  0.0827  0.1249 -0.0411
  191SLPC  H13B22048   3.180   0.412   5.830  1.5742 -0.4521  0.4468
  191SLPC  H13C22049   3.172   0.266   5.724  0.3428  0.7411 -1.3568
  191SLPC   C1422050   2.940   0.322   5.612  0.3635 -0.2110 -0.3948
  191SLPC  H14A22051   2.980   0.377   5.529  0.7831  1.6112  0.9606
  191SLPC  H14B22052   2.978   0.221   5.603 -0.8119 -0.6077 -1.1889
  191SLPC  H14C22053   2.832   0.321   5.618  0.3462  2.0948  4.0993
  191SLPC   C1522054   2.957   0.525   5.765 -0.0108  0.5957  0.0391
  191SLPC  H15A22055   3.006   0.571   5.850 -2.4254 -0.2853  2.0185
  191SLPC  H15B22056   2.986   0.581   5.677  1.9740  1.9111  1.4379
  191SLPC  H15C22057   2.850   0.531   5.772  0.0645  0.1994  2.0162
  191SLPC   C1222058   2.932   0.293   5.860 -0.6741  0.6269 -0.4555
  191SLPC  H12A22059   2.825   0.298   5.874 -1.1516 -3.2010 -1.5439
  191SLPC  H12B22060   2.975   0.341   5.946  2.0971 -1.8740 -0.2852
  191SLPC   C1122061   2.965   0.139   5.858  0.8596 -0.1016  0.1432
  191SLPC  H11A22062   2.914   0.102   5.767 -1.9258  3.2779  0.1302
  191SLPC  H11B22063   2.904   0.096   5.940  0.3601 -0.6775 -0.5203
  191SLPC     P22064   3.183   0.094   5.999 -0.2611 -0.1442 -0.0468
  191SLPC   O1322065   3.217  -0.047   6.024 -0.3471 -0.0112 -0.2751
  191SLPC   O1422066   3.296   0.189   6.000  0.1135 -0.5084 -0.0652
  191SLPC   O1222067   3.102   0.097   5.858  0.4308 -0.1078 -0.1335
  191SLPC   O1122068   3.083   0.155   6.100  0.0552  0.3184  0.1584
  191SLPC    C122069   3.020   0.085   6.207 -0.3525 -0.0126  0.0197
  191SLPC    HA22070   2.910   0.102   6.207 -0.0081  2.6101  0.4227
  191SLPC    HB22071   3.039  -0.024   6.198 -1.5352 -0.3473  1.1846
  191SLPC    C222072   3.061   0.133   6.350 -0.3105 -0.5941  0.0550
  191SLPC    HS22073   3.032   0.240   6.361 -0.1581 -0.7301  2.0724
  191SLPC   O2122074   3.202   0.115   6.367  0.0655  0.6398 -0.5903
  191SLPC   C2122075   3.256   0.189   6.461  0.5098  0.2259  0.0883
  191SLPC   O2222076   3.203   0.284   6.511  0.1008 -0.4246  0.4711
  191SLPC   C2222077   3.401   0.147   6.489 -0.1416 -0.5963  0.6022
  191SLPC   H2R22078   3.422   0.056   6.429 -1.3228 -0.3698 -0.1898
  191SLPC   H2S22079   3.465   0.230   6.450  0.7794 -0.8721  1.4925
  191SLPC    C322080   2.986   0.049   6.458 -1.0278 -0.0300 -0.0854
  191SLPC    HX22081   3.007  -0.059   6.444 -1.3459 -0.0397 -0.4845
  191SLPC    HY22082   2.879   0.067   6.437 -0.6892  2.2185 -0.1555
  191SLPC   O3122083   3.023   0.080   6.592  0.1563 -0.7558  0.0613
  191SLPC   C3122084   2.921   0.154   6.659  0.0865 -0.5669 -0.6718
  191SLPC   O3222085   2.817   0.189   6.608  0.2588 -0.1713  0.2671
  191SLPC   C3222086   2.952   0.162   6.810  0.1079  0.7264  0.5766
  191SLPC   H2X22087   2.953   0.267   6.846 -0.7513  0.5098  1.2593
  191SLPC   H2Y22088   3.055   0.120   6.814 -0.1687  0.1085  1.5121
  191SLPC   C2322089   3.437   0.128   6.641  0.3688  0.3630 -0.8383
  191SLPC   H3R22090   3.412   0.221   6.697  2.2235 -0.2408  1.0694
  191SLPC   H3S22091   3.546   0.108   6.641  0.1260 -1.0859 -0.2915
  191SLPC   C2422092   3.375  -0.005   6.699  0.0076 -0.2378  0.2213
  191SLPC   H4R22093   3.423  -0.091   6.647 -1.0160  1.1063 -3.2561
  191SLPC   H4S22094   3.266  -0.011   6.674  0.1484 -0.4571 -0.3547
  191SLPC   C2522095   3.388  -0.014   6.847  0.0661 -0.1649 -0.0352
  191SLPC   H5R22096   3.332  -0.103   6.884  1.9167 -1.0616  0.7341
  191SLPC   H5S22097   3.339   0.074   6.894  0.6228 -0.2913  0.8048
  191SLPC   C2622098   3.534  -0.018   6.900 -0.1466  0.2869  0.2237
  191SLPC   H6R22099   3.584   0.081   6.895  2.9178 -1.1650 -0.0255
  191SLPC   H6S22100   3.600  -0.083   6.839 -1.1507 -2.8612  2.2681
  191SLPC   C2722101   3.543  -0.065   7.042 -0.1766  0.3246  0.3966
  191SLPC   H7R22102   3.651  -0.078   7.064 -0.6262 -1.8896  1.6293
  191SLPC   H7S22103   3.497  -0.166   7.048  0.2913  0.0641 -0.2299
  191SLPC   C2822104   3.468   0.026   7.140  0.1585  0.4775 -0.1623
  191SLPC   H8R22105   3.469   0.128   7.097 -2.0606  0.7480  0.3130
  191SLPC   H8S22106   3.523   0.029   7.237 -0.9901  0.5059  0.4995
  191SLPC   C2922107   3.326  -0.019   7.168 -0.2834  0.1864 -0.4162
  191SLPC   H9R22108   3.265  -0.008   7.078  1.8315 -3.2955 -2.5074
  191SLPC  C21022109   3.278  -0.060   7.288  0.0681  0.4403 -0.0075
  191SLPC  H10R22110   3.171  -0.087   7.295  0.6166 -1.4832  1.9362
  191SLPC  C21122111   3.360  -0.074   7.413 -0.5252  0.5911 -0.0615
  191SLPC  H11R22112   3.471  -0.067   7.404 -0.1689 -0.6569  2.6540
  191SLPC  H11S22113   3.343  -0.171   7.464  1.9644 -0.7398 -1.5581
  191SLPC  C21222114   3.332   0.041   7.507  1.4716 -0.0632  0.2150
  191SLPC  H12R22115   3.307   0.134   7.455 -1.5375 -1.5524 -1.2728
  191SLPC  C21322116   3.344   0.043   7.640  0.7426 -0.1003 -0.4103
  191SLPC  H13R22117   3.328   0.141   7.687 -1.5058  0.1297 -1.5261
  191SLPC  C21422118   3.381  -0.069   7.733 -0.4957  0.5658  0.2338
  191SLPC  H14R22119   3.489  -0.086   7.714 -0.5426 -0.4946  0.8428
  191SLPC  H14S22120   3.328  -0.164   7.710 -0.0860 -0.7812  4.1234
  191SLPC  C21522121   3.350  -0.040   7.888 -0.4392 -0.3190  0.0560
  191SLPC  H15R22122   3.250   0.007   7.903 -0.7548 -1.4345  1.7747
  191SLPC  H15S22123   3.417   0.043   7.920 -0.3843 -0.1383 -0.5310
  191SLPC  C21622124   3.366  -0.160   7.980  0.0084  0.1621  0.8813
  191SLPC  H16R22125   3.475  -0.173   7.996  0.7781  0.5713 -3.1070
  191SLPC  H16S22126   3.337  -0.246   7.917  2.0280  0.1844 -0.1365
  191SLPC  C21722127   3.296  -0.142   8.115  0.0167 -0.5428 -0.0611
  191SLPC  H17R22128   3.190  -0.118   8.092  0.4896  2.4576  0.5591
  191SLPC  H17S22129   3.349  -0.064   8.174 -1.6121  0.7607 -0.2560
  191SLPC  C21822130   3.298  -0.272   8.195  0.8084  0.1081 -0.2350
  191SLPC  H18R22131   3.392  -0.327   8.170 -0.6406 -1.6889 -2.0188
  191SLPC  H18S22132   3.210  -0.332   8.165 -0.6775  0.1455  3.4850
  191SLPC  H18T22133   3.296  -0.242   8.302  1.6778  2.8997 -0.9289
  191SLPC   C3322134   2.872   0.076   6.907  0.2957  0.9002 -0.2595
  191SLPC   H3X22135   2.863  -0.029   6.871  2.3367  0.3894  0.5837
  191SLPC   H3Y22136   2.769   0.115   6.925 -0.2729  0.2895 -1.9294
  191SLPC   C3422137   2.936   0.058   7.048  1.3396  0.1101  0.3030
  191SLPC   H4X22138   3.046   0.043   7.052  1.3876  0.1402 -0.6686
  191SLPC   H4Y22139   2.881  -0.027   7.095  2.7594 -0.7449  0.5004
  191SLPC   C3522140   2.907   0.181   7.140 -0.2275 -0.4007  0.7898
  191SLPC   H5X22141   2.797   0.184   7.160 -0.0672 -2.1288  2.1982
  191SLPC   H5Y22142   2.931   0.271   7.079  2.2015  0.3080  2.6541
  191SLPC   C3622143   2.994   0.186   7.265 -0.3449  0.4142 -0.3199
  191SLPC   H6X22144   3.102   0.173   7.246 -0.6495 -1.7348 -0.8209
  191SLPC   H6Y22145   2.967   0.098   7.327  1.0482 -0.3276 -0.7257
  191SLPC   C3722146   2.961   0.299   7.358  0.3267 -0.5566  0.0755
  191SLPC   H7X22147   2.852   0.321   7.356  0.0259 -1.9676 -2.1646
  191SLPC   H7Y22148   2.997   0.396   7.318 -0.8756  0.7198  1.8675
  191SLPC   C3822149   3.025   0.292   7.496 -0.1515 -0.9702 -0.7713
  191SLPC   H8X22150   3.030   0.391   7.546  2.7457 -2.3726  2.0624
  191SLPC   H8Y22151   3.131   0.262   7.480  1.2817  3.1661 -0.4705
  191SLPC   C3922152   2.955   0.210   7.599  0.0126 -0.6424  0.5373
  191SLPC   H9X22153   2.968   0.102   7.576  2.6137 -0.4790  0.8658
  191SLPC   H9Y22154   2.847   0.232   7.611  0.7199  2.6817  1.8146
  191SLPC  C31022155   3.015   0.220   7.749 -0.0714  0.2293 -0.1156
  191SLPC  H10X22156   3.025   0.327   7.779  0.9162 -0.2349  1.2710
  191SLPC  H10Y22157   3.119   0.186   7.730 -0.2614 -0.9241  0.8204
  191SLPC  C31122158   2.953   0.130   7.855  0.6954  0.6716 -0.2899
  191SLPC  H11X22159   3.030   0.112   7.933  1.2234  0.1183 -0.9210
  191SLPC  H11Y22160   2.925   0.034   7.805  1.3632  0.3571 -0.0788
  191SLPC  C31222161   2.834   0.192   7.913  0.8784  0.0540 -0.1118
  191SLPC  H12X22162   2.775   0.213   7.821  1.3955  0.5892 -0.3278
  191SLPC  H12Y22163   2.856   0.290   7.960  0.8542  1.0163 -2.0123
  191SLPC  C31322164   2.759   0.116   8.024  0.3976  0.0745  0.4780
  191SLPC  H13X22165   2.825   0.109   8.113 -0.4594 -1.8404  1.0126
  191SLPC  H13Y22166   2.717   0.020   7.989 -1.4637  0.9778  0.0776
  191SLPC  C31422167   2.623   0.187   8.043 -0.0212  0.7851 -0.5099
  191SLPC  H14X22168   2.570   0.200   7.947  1.0600  0.5661 -1.1499
  191SLPC  H14Y22169   2.645   0.292   8.071  1.3200  0.7256 -1.2750
  191SLPC  C31522170   2.532   0.131   8.153 -0.3529 -0.1706  0.4500
  191SLPC  H15X22171   2.578   0.137   8.254 -0.1801 -1.6159  0.4773
  191SLPC  H15Y22172   2.518   0.022   8.141 -1.6567 -0.1070  1.2910
  191SLPC  C31622173   2.395   0.197   8.146  0.2208 -0.4118  0.6032
  191SLPC  H16X22174   2.364   0.205   8.039 -0.3702  0.1478  0.8132
  191SLPC  H16Y22175   2.402   0.301   8.185  0.5289 -0.7347  1.4147
  191SLPC  C31722176   2.291   0.137   8.239 -0.6205  0.6682  0.6117
  191SLPC  H17X22177   2.197   0.198   8.237  0.3081  2.1353 -0.3495
  191SLPC  H17Y22178   2.328   0.131   8.344  3.5787 -1.5400 -0.7855
  191SLPC  C31822179   2.253  -0.008   8.197  0.4640 -0.0146 -0.6107
  191SLPC  H18X22180   2.166  -0.049   8.252  0.7333 -0.7800 -0.7421
  191SLPC  H18Y22181   2.347  -0.069   8.197  0.2163 -0.4834  1.5848
  191SLPC  H18Z22182   2.223  -0.007   8.090  0.2819  0.9172 -0.5515
  192SLPC     N22183   4.202   0.676   6.289 -0.0526 -0.7837 -0.0910
  192SLPC   C1322184   4.289   0.613   6.188 -0.9313  0.2637  0.0020
  192SLPC  H13A22185   4.337   0.687   6.126  2.1626 -0.5888  1.1833
  192SLPC  H13B22186   4.367   0.543   6.214 -2.1145 -0.8286  0.7596
  192SLPC  H13C22187   4.224   0.555   6.124  0.0046  0.3383 -1.0462
  192SLPC   C1422188   4.142   0.573   6.374  0.0311 -0.3456 -0.3860
  192SLPC  H14A22189   4.061   0.615   6.431  0.7923 -0.6544  0.9579
  192SLPC  H14B22190   4.108   0.493   6.310  0.3564  0.1089 -1.1385
  192SLPC  H14C22191   4.208   0.539   6.452  1.7961  0.5624 -1.4230
  192SLPC   C1522192   4.098   0.752   6.211 -1.0079 -0.2869 -0.4142
  192SLPC  H15A22193   4.141   0.809   6.130 -0.2440  0.7121  0.6551
  192SLPC  H15B22194   4.020   0.689   6.172 -0.3639 -0.2461 -1.8259
  192SLPC  H15C22195   4.057   0.820   6.285  0.9831  0.9991 -0.4258
  192SLPC   C1222196   4.278   0.769   6.379 -0.4569  0.1484  0.1855
  192SLPC  H12A22197   4.338   0.838   6.322 -3.4369  1.6144 -1.4295
  192SLPC  H12B22198   4.346   0.709   6.437 -2.3091 -0.6181  1.6984
  192SLPC   C1122199   4.204   0.854   6.489 -0.0135  0.4221  0.7240
  192SLPC  H11A22200   4.293   0.894   6.542  1.3824 -1.3814 -0.1526
  192SLPC  H11B22201   4.161   0.778   6.556 -0.6443 -1.8067 -2.0042
  192SLPC     P22202   4.160   1.094   6.407  0.4745  0.0276 -0.3346
  192SLPC   O1322203   4.287   1.095   6.336 -0.1516  0.7632 -0.6261
  192SLPC   O1422204   4.048   1.158   6.337  0.6818  0.2852 -0.6498
  192SLPC   O1222205   4.112   0.943   6.436  0.4577  0.3217  0.7108
  192SLPC   O1122206   4.174   1.150   6.554  0.3504  0.6052 -0.4971
  192SLPC    C122207   4.060   1.152   6.645  0.3380  0.0159  0.4700
  192SLPC    HA22208   3.997   1.243   6.629  2.3293  1.1956 -1.1383
  192SLPC    HB22209   3.998   1.062   6.627 -0.9781  0.6553  1.5742
  192SLPC    C222210   4.122   1.147   6.780 -0.4431 -0.0464 -0.6067
  192SLPC    HS22211   4.041   1.138   6.855  0.2723  0.5192  0.2608
  192SLPC   O2122212   4.186   1.277   6.804  0.5456 -0.2655 -0.0344
  192SLPC   C2122213   4.194   1.312   6.932  0.0717 -0.1081  0.0148
  192SLPC   O2222214   4.135   1.264   7.025 -0.0755  0.4979  0.1069
  192SLPC   C2222215   4.302   1.413   6.940  0.6929 -0.4315 -0.2781
  192SLPC   H2R22216   4.392   1.358   6.907  0.4709 -0.8668 -0.1552
  192SLPC   H2S22217   4.275   1.488   6.863  0.9330  0.4911  0.5125
  192SLPC    C322218   4.231   1.037   6.801  0.5797  0.0422  0.5982
  192SLPC    HX22219   4.315   1.066   6.734  0.4051  0.4047  0.5334
  192SLPC    HY22220   4.177   0.948   6.762 -1.0631  1.1381  0.2578
  192SLPC   O3122221   4.281   1.011   6.935 -0.4155 -0.0792 -0.2910
  192SLPC   C3122222   4.194   0.945   7.016  0.6419  0.0180  0.1069
  192SLPC   O3222223   4.086   0.897   6.982  0.2344  0.4494 -0.9832
  192SLPC   C3222224   4.250   0.941   7.158 -0.5964  0.2519 -0.2572
  192SLPC   H2X22225   4.352   0.984   7.150 -1.4029  2.4240  0.5537
  192SLPC   H2Y22226   4.250   0.838   7.202  1.2122  0.2436 -0.1857
  192SLPC   C2322227   4.311   1.488   7.074 -0.6020 -0.1425  0.5535
  192SLPC   H3R22228   4.217   1.530   7.115 -0.6072 -0.0140  0.4106
  192SLPC   H3S22229   4.381   1.572   7.054  0.3987 -0.7716  1.3012
  192SLPC   C2422230   4.379   1.418   7.194 -0.4244  0.2198 -0.4791
  192SLPC   H4R22231   4.480   1.384   7.163  0.6191  0.4184  2.4060
  192SLPC   H4S22232   4.327   1.323   7.219  1.3856 -0.5050  0.7390
  192SLPC   C2522233   4.382   1.503   7.326  0.3491 -0.5659  0.3665
  192SLPC   H5R22234   4.282   1.546   7.349  1.4050  1.4164  1.5418
  192SLPC   H5S22235   4.447   1.588   7.293 -1.4388  0.4391 -0.7115
  192SLPC   C2622236   4.435   1.436   7.443  0.3343 -0.1712  0.2673
  192SLPC   H6R22237   4.383   1.338   7.457  2.6996 -1.5261  0.1875
  192SLPC   H6S22238   4.415   1.497   7.533 -3.2042  0.1143 -0.5903
  192SLPC   C2722239   4.587   1.395   7.429 -0.3750 -0.0210  0.0111
  192SLPC   H7R22240   4.644   1.476   7.379  0.8982  0.6023  2.3356
  192SLPC   H7S22241   4.603   1.305   7.366 -0.6874  0.7658 -1.2268
  192SLPC   C2822242   4.657   1.366   7.560 -0.9042 -0.5856 -0.2792
  192SLPC   H8R22243   4.663   1.454   7.627 -0.6649 -0.4534 -0.4740
  192SLPC   H8S22244   4.766   1.359   7.541 -0.5083  2.3125  0.4938
  192SLPC   C2922245   4.589   1.251   7.635 -0.5592  0.3398  0.5517
  192SLPC   H9R22246   4.601   1.151   7.591 -2.4904 -0.6640  2.0972
  192SLPC  C21022247   4.509   1.256   7.746 -0.0263  0.1337 -0.1776
  192SLPC  H10R22248   4.463   1.166   7.790 -2.5942  1.3749 -0.1918
  192SLPC  C21122249   4.474   1.381   7.817  0.0229 -0.7413 -0.0843
  192SLPC  H11R22250   4.429   1.451   7.743  2.6753  2.7491  1.3146
  192SLPC  H11S22251   4.564   1.418   7.870 -0.0531 -1.8047  0.8053
  192SLPC  C21222252   4.369   1.367   7.921 -0.3836  0.2120  0.7979
  192SLPC  H12R22253   4.271   1.412   7.898 -1.4605 -1.9831  0.8343
  192SLPC  C21322254   4.376   1.321   8.045 -0.4599  0.3099 -0.2141
  192SLPC  H13R22255   4.281   1.326   8.102  0.4487  0.8967  1.3238
  192SLPC  C21422256   4.495   1.255   8.116 -0.3248 -0.7197 -0.0689
  192SLPC  H14R22257   4.578   1.330   8.117 -1.1901  0.2815 -0.8908
  192SLPC  H14S22258   4.527   1.179   8.042 -0.9747 -0.5269 -0.5615
  192SLPC  C21522259   4.480   1.178   8.253  0.3978  0.1986 -0.4253
  192SLPC  H15R22260   4.579   1.142   8.288 -0.7342 -0.8284  1.9103
  192SLPC  H15S22261   4.415   1.091   8.234 -0.8060  1.0462 -0.2896
  192SLPC  C21622262   4.413   1.260   8.359  0.0835  0.4802  0.4011
  192SLPC  H16R22263   4.326   1.312   8.313  0.9829  0.1713 -1.7878
  192SLPC  H16S22264   4.491   1.329   8.397  0.8809  1.3321 -2.5326
  192SLPC  C21722265   4.356   1.184   8.481 -0.1537 -0.0304 -0.1834
  192SLPC  H17R22266   4.245   1.196   8.477 -0.1599  0.2618  0.6293
  192SLPC  H17S22267   4.391   1.079   8.472 -0.3627  0.0077 -1.6614
  192SLPC  C21822268   4.407   1.229   8.617  0.6538 -0.0482 -0.6664
  192SLPC  H18R22269   4.388   1.338   8.627  0.3421 -0.1013 -0.6696
  192SLPC  H18S22270   4.511   1.209   8.650  0.3051  0.5116  0.9039
  192SLPC  H18T22271   4.352   1.178   8.700 -2.0088  1.5772 -1.3197
  192SLPC   C3322272   4.171   1.029   7.258 -0.1790  0.2225  0.0272
  192SLPC   H3X22273   4.069   0.990   7.235  1.0120 -1.7431 -2.3159
  192SLPC   H3Y22274   4.176   1.138   7.239  3.2301 -0.1434 -2.0411
  192SLPC   C3422275   4.211   0.984   7.407  0.3138 -0.0244 -0.2100
  192SLPC   H4X22276   4.315   1.019   7.423  0.5953  0.5644 -2.8291
  192SLPC   H4Y22277   4.208   0.873   7.399  0.2560 -0.2013  1.8589
  192SLPC   C3522278   4.119   1.025   7.515  0.0473 -0.6575  0.4632
  192SLPC   H5X22279   4.141   0.972   7.610  0.7885  2.3431  2.0814
  192SLPC   H5Y22280   4.013   0.993   7.500 -0.6216  1.1482  1.0617
  192SLPC   C3622281   4.113   1.177   7.529  0.4505  0.3382  0.6959
  192SLPC   H6X22282   4.087   1.230   7.434 -2.6599 -1.0179  0.6759
  192SLPC   H6Y22283   4.214   1.214   7.556  0.6147  0.9180 -0.6208
  192SLPC   C3722284   4.012   1.209   7.635  0.1540 -0.4660  0.8585
  192SLPC   H7X22285   3.910   1.188   7.597  0.6884 -0.1356 -0.8245
  192SLPC   H7Y22286   4.006   1.320   7.638 -2.7552 -0.4841 -0.8674
  192SLPC   C3822287   4.024   1.146   7.769 -0.2223  0.0463 -0.4236
  192SLPC   H8X22288   4.130   1.160   7.798 -0.2272  1.7799 -1.1394
  192SLPC   H8Y22289   3.999   1.038   7.762  0.0214  0.0028 -0.6586
  192SLPC   C3922290   3.942   1.212   7.890  0.4380  0.4725 -0.3032
  192SLPC   H9X22291   3.837   1.236   7.866  0.3380  0.5058  0.1585
  192SLPC   H9Y22292   3.984   1.312   7.917 -0.5608  1.1237 -1.1173
  192SLPC  C31022293   3.959   1.117   8.010 -0.6379 -0.1414 -0.3643
  192SLPC  H10X22294   3.985   1.018   7.968  1.3570  0.5401 -0.8580
  192SLPC  H10Y22295   3.860   1.104   8.058 -0.7942  0.2815 -0.5601
  192SLPC  C31122296   4.059   1.164   8.115  0.5116 -0.3541  0.2288
  192SLPC  H11X22297   4.038   1.273   8.123 -0.4767 -0.3630 -1.6949
  192SLPC  H11Y22298   4.160   1.144   8.073  0.5260  0.1467  0.0232
  192SLPC  C31222299   4.044   1.081   8.248  0.0525 -0.1403 -0.0583
  192SLPC  H12X22300   3.935   1.073   8.269 -0.1711  1.2751 -0.5717
  192SLPC  H12Y22301   4.088   1.143   8.329 -0.0285  0.3935 -0.4161
  192SLPC  C31322302   4.109   0.941   8.233  0.5983 -0.1284  0.1418
  192SLPC  H13X22303   4.198   0.953   8.168  1.1056 -1.0531  0.6356
  192SLPC  H13Y22304   4.040   0.865   8.189  2.1959 -1.3636 -0.3442
  192SLPC  C31422305   4.167   0.875   8.361 -0.3851 -0.3422 -0.2411
  192SLPC  H14X22306   4.248   0.943   8.395 -0.5952 -0.7904  1.2089
  192SLPC  H14Y22307   4.217   0.779   8.336 -0.5764 -0.0902 -1.6482
  192SLPC  C31522308   4.062   0.858   8.465  0.2725  0.2142  0.6920
  192SLPC  H15X22309   3.983   0.798   8.415  0.0384  1.0979 -0.0222
  192SLPC  H15Y22310   4.014   0.956   8.489 -1.3106 -0.4871  0.5292
  192SLPC  C31622311   4.107   0.805   8.601 -0.0935  0.3859  0.5337
  192SLPC  H16X22312   4.164   0.710   8.591 -1.7915 -0.8631  1.9632
  192SLPC  H16Y22313   4.022   0.777   8.667 -0.1754  0.1987  0.3519
  192SLPC  C31722314   4.192   0.900   8.679  0.4894  0.1961  1.0026
  192SLPC  H17X22315   4.140   0.995   8.705 -1.9028 -0.0361 -2.3779
  192SLPC  H17Y22316   4.273   0.939   8.614  1.6639  1.0757  2.8865
  192SLPC  C31822317   4.262   0.823   8.791 -0.6379  0.2306 -0.6170
  192SLPC  H18X22318   4.289   0.721   8.756 -0.6851  0.0603 -0.1552
  192SLPC  H18Y22319   4.206   0.811   8.886 -3.0296  3.4619 -1.4248
  192SLPC  H18Z22320   4.362   0.863   8.816  0.0056 -3.3970  3.8164
  193SOD    SOD22321   5.529   3.992  11.180 -0.0129 -0.6432 -0.3538
  194SOD    SOD22322   6.349   4.441  13.413  0.4332 -0.2668 -0.8195
  195SOD    SOD22323   6.515   0.859  12.192  0.7186 -0.0114 -0.3395
  196SOD    SOD22324   0.632   6.317   5.611 -0.0009  0.3878 -0.0116
  197SOD    SOD22325   3.754   0.765   6.616 -0.4129  0.1197 -0.2299
  198SOD    SOD22326   6.110   5.244   3.990  0.3356  0.1331  0.2951
  199SOD    SOD22327   3.676   3.565   3.102 -0.3377  0.3150  0.0062
  200SOD    SOD22328   0.801   4.045   0.762  0.3922 -0.0523  0.1771
  201SOD    SOD22329   4.386   5.870  14.331 -0.2966  0.2422  0.0110
  202SOD    SOD22330   3.842   6.208   6.079  0.2736 -0.3668  0.2766
  203SOD    SOD22331   5.613   2.937   1.659  0.6425 -0.0585 -0.4018
  204SOD    SOD22332   5.363   4.621  14.365  0.2529 -0.2573  0.1668
  205SOD    SOD22333   4.826   5.541   6.066 -0.3188  0.0880 -0.3932
  206SOD    SOD22334   1.541   3.557   3.297  0.8684  0.2077  0.1591
  207SOD    SOD22335   0.722   6.242   0.491  0.2907  0.6155 -0.6647
  208SOD    SOD22336   1.223   2.611  14.261  0.3578  0.4285 -0.5030
  209SOD    SOD22337   2.210   3.007  15.069 -0.1706 -0.2317  0.5122
  210SOD    SOD22338   6.442   1.553  10.893  0.2321 -0.3044 -0.0113
  211SOD    SOD22339   1.553   5.606   2.236 -0.4506 -0.2538 -0.4523
  212SOD    SOD22340   0.915   2.465  16.124 -0.2599  0.0705 -0.0201
  213SOD    SOD22341   4.173   5.198   4.593  0.2321  0.3593  0.1038
  214SOD    SOD22342   3.751   5.598  11.579 -0.2517 -0.3393 -0.0246
  215SOD    SOD22343   5.445   5.470   3.694  0.5602  0.1826  0.2723
  216SOD    SOD22344   2.239   2.817   0.044  0.3135 -0.0780 -0.1992
  217SOD    SOD22345   0.201   2.237  15.539 -0.0620  0.2708  0.2935
  218SOD    SOD22346   6.778   4.428  10.980  0.0158  0.3489  0.3739
  219SOD    SOD22347   3.398   3.876  13.875  0.3323 -0.6618  0.1830
  220SOD    SOD22348   2.191   3.628  11.379 -0.0065  0.2358  0.3944
  221SOD    SOD22349   3.519   3.609   4.459  0.0385  0.1568 -0.3471
  222SOD    SOD22350   3.944   5.362  15.925 -0.3089  0.1508  0.4856
  223SOD    SOD22351   3.267   0.417  15.551 -0.2295  0.1118 -0.5093
  224SOD    SOD22352   3.300   4.807   4.615 -0.1805  0.2111  0.1352
  225SOD    SOD22353   4.590   3.130   1.202 -0.4040 -0.3400  0.5305
  226SOD    SOD22354   0.033   6.021   4.372 -0.4618 -0.1707  0.1496
  227SOD    SOD22355   3.857   2.960  10.441  0.0590 -0.0641 -0.0808
  228SOD    SOD22356   6.316   0.287  11.248  0.4660  0.3263  0.2937
  229SOD    SOD22357   4.941   6.677   0.206 -0.3812  0.1153 -0.3122
  230SOD    SOD22358   5.104   2.141   6.014 -0.4491 -0.3452 -0.0900
  231SOD    SOD22359   0.187   6.754   4.023  0.1938  0.3842  0.3563
  232SOD    SOD22360   1.862   6.177   5.300  0.0461  0.0833 -0.0242
  233SOD    SOD22361   1.171   0.620   6.227  0.2548  0.2499  0.0876
  234SOD    SOD22362   5.094   3.095   3.776  0.4001 -0.0575 -0.0474
  235SOD    SOD22363   5.812   4.259   2.504  0.1992  0.0231 -0.3074
  236SOD    SOD22364   6.190   4.428   2.111 -0.1569  0.2215  0.1010
  237SOD    SOD22365   4.208   4.181   2.440 -0.5211  0.2710 -0.4440
  238SOD    SOD22366   0.379   1.764  16.713  0.1375  0.7818 -0.4273
  239SOD    SOD22367   4.569   3.839   0.703 -0.2121  0.0579 -0.1722
  240SOD    SOD22368   6.597   3.342  15.674  0.2195 -0.3667 -0.1927
  241SOD    SOD22369   1.272   5.797  11.240 -0.1361 -0.1569 -0.2141
  242SOD    SOD22370   2.043   4.170  11.746  0.4277  0.1894 -0.6192
  243SOD    SOD22371   5.351   0.263   5.453 -0.2634  0.1817  0.1985
  244SOD    SOD22372   0.142   6.589   0.620 -0.1591  0.4871  0.5280
  245SOD    SOD22373   2.400   5.933  16.090  0.5333  0.1610 -0.8768
  246SOD    SOD22374   0.134   2.200   2.567 -0.0321  0.2437  0.0815
  247SOD    SOD22375   0.756   2.157   1.888 -0.2474  0.0435 -0.0175
  248SOD    SOD22376   3.961   3.100   5.951  0.5785  0.5714 -0.1089
  249SOD    SOD22377   1.419   2.360  11.406  0.7476 -0.0038  0.1156
  250SOD    SOD22378   4.061   5.133  10.925 -0.1846  0.0065 -0.3736
  251SOD    SOD22379   0.860   6.608   2.751  0.0888 -0.3584 -0.1166
  252SOD    SOD22380   5.935   4.061   1.456 -0.0713 -0.2215  0.7642
  253SOD    SOD22381   3.263   1.073   4.526  0.2535 -0.8640  0.0546
  254SOD    SOD22382   2.069   0.009   5.923  0.1832  0.0736  0.0871
  255SOD    SOD22383   1.319   6.686  12.764 -0.0606  0.4263  0.0556
  256SOD    SOD22384   5.439   3.195  15.204 -0.5241  0.0608 -0.2120
  257SOD    SOD22385   2.271   1.556   2.945  0.0623  0.1230 -0.3051
  258SOD    SOD22386   6.815   3.393  16.240 -0.1340 -0.2534 -0.0775
  259SOD    SOD22387   4.276   3.226  13.852  0.3184  0.5381  0.1393
  260SOD    SOD22388   4.407   6.235   1.183 -0.0832  0.2359 -0.1548
  261SOD    SOD22389   5.626   6.335   5.106  0.0683 -0.1507  0.4079
  262SOD    SOD22390   1.094   1.696  14.355 -0.0693 -0.0571  0.3243
  263SOD    SOD22391   3.939   1.173  10.919  0.1794 -0.5509  0.0085
  264SOD    SOD22392   6.059   1.419  15.478 -0.4099  0.3202  0.0842
  265SOD    SOD22393   1.934   2.376   5.688  0.0165 -0.0491 -0.2822
  266CLA    CLA22394   6.763   1.971   3.012 -0.1171 -0.1648 -0.1703
  267CLA    CLA22395   6.777   4.248  12.554  0.4267 -0.1437  0.1761
  268CLA    CLA22396   6.597   5.487   1.257  0.1174  0.2834 -0.2912
  269CLA    CLA22397   4.254   2.418   5.826  0.1883 -0.5180  0.0396
  270CLA    CLA22398   5.015   3.737  17.073  0.4187 -0.0284 -0.3134
  271CLA    CLA22399   6.736   0.348   4.123 -0.2635  0.1974  0.0773
  272CLA    CLA22400   3.527   2.200  14.196 -0.0998 -0.5929  0.2516
  273CLA    CLA22401   1.382   5.416  13.540  0.0329  0.1446 -0.2322
  274CLA    CLA22402   2.771   3.759   4.791 -0.2796  0.3532 -0.3326
  275CLA    CLA22403   4.729   5.844  15.264  0.0245 -0.0670  0.2930
  276CLA    CLA22404   1.113   2.854  14.328 -0.2945 -0.5299 -0.1277
  277CLA    CLA22405   5.576   3.799   2.493 -0.0868 -0.0652  0.3662
  278CLA    CLA22406   3.750   4.082  16.807 -0.3405  0.0730  0.3873
  279CLA    CLA22407   1.007   1.504  16.520 -0.1997 -0.3031 -0.1638
  280CLA    CLA22408   6.616   4.195  15.747 -0.0189  0.0235  0.1325
  281CLA    CLA22409   5.901   4.550   5.279  0.3087  0.2111  0.0680
  282CLA    CLA22410   4.096   0.221  14.385 -0.5220 -0.7442  0.0868
  283CLA    CLA22411   2.696   2.833  15.518 -0.0086 -0.1199  0.1043
  284CLA    CLA22412   2.725   3.562  15.410  0.0792 -0.0221 -0.2495
  285CLA    CLA22413   2.470   2.451   1.361 -0.2114 -0.3125 -0.2567
  286CLA    CLA22414   5.506   4.852   0.456  0.2015 -0.0704  0.0578
  287CLA    CLA22415   5.579   2.573  16.699 -0.1446  0.2668 -0.0653
  288CLA    CLA22416   2.053   1.279  11.448 -0.0903  0.0466  0.4706
  289CLA    CLA22417   6.169   5.663   5.227 -0.3413  0.4275 -0.4392
  290CLA    CLA22418   4.416   5.580  13.936  0.1891  0.2364  0.0454
  291CLA    CLA22419   3.655   3.989  14.336 -0.1250  0.0248 -0.3190
  292CLA    CLA22420   2.085   2.197   2.920 -0.3223  0.0003  0.0843
  293CLA    CLA22421   0.928   5.245  14.014  0.0613  0.1649 -0.0321
  294CLA    CLA22422   4.353   6.513  12.242  0.4122 -0.3562  0.2257
  295CLA    CLA22423   5.301   6.796   5.897 -0.0511  0.4022 -0.5242
  296CLA    CLA22424   6.044   3.311   1.111 -0.2635 -0.0873 -0.3435
  297CLA    CLA22425   6.378   5.741  15.720 -0.1166 -0.1845  0.2085
  298CLA    CLA22426   3.315   5.575   1.644 -0.1305  0.1806  0.0308
  299CLA    CLA22427   3.915   1.614  13.859  0.1378  0.2026  0.2255
  300CLA    CLA22428   0.073   3.720  15.137  0.0688  0.4290 -0.4203
  301CLA    CLA22429   1.450   3.767   3.715  0.1860 -0.4566 -0.1138
  302CLA    CLA22430   2.929   6.755   1.373  0.0854  0.5006  0.2296
  303CLA    CLA22431   5.655   1.808  12.279 -0.0269  0.1659 -0.2826
  304CLA    CLA22432   1.505   0.653   4.540  0.1812 -0.6029 -0.3649
  305CLA    CLA22433   1.562   0.237   0.135 -0.1424 -0.2823 -0.1290
  306CLA    CLA22434   6.605   2.500   1.332 -0.1404  0.0403 -0.3956
  307CLA    CLA22435   3.793   5.614   4.987  0.1372  0.3359  0.4446
  308CLA    CLA22436   2.514   5.389   3.024  0.0541 -0.0300  0.0161
  309CLA    CLA22437   2.384   4.806   0.300  0.0270  0.5136 -0.0737
  310CLA    CLA22438   4.548   2.892   4.876 -0.1359 -0.5443 -0.3519
  311CLA    CLA22439   2.829   4.747   2.911 -0.1938  0.3860  0.0672
  312CLA    CLA22440   5.168   3.957   2.941  0.5138 -0.4617  0.0135
  313CLA    CLA22441   4.407   2.442   0.691  0.1595 -0.0773  0.3158
  314CLA    CLA22442   3.247   1.153  15.500 -0.0705  0.0988  0.2018
  315CLA    CLA22443   6.283   0.821   1.747  0.1167  0.1442  0.0251
  316CLA    CLA22444   6.231   0.242   2.995 -0.7404 -0.6031  0.3312
  317CLA    CLA22445   2.504   1.082  14.745 -0.2295  0.0636  0.1621
  318CLA    CLA22446   1.677   0.556  16.018  0.1244 -0.2828 -0.0110
  319TIP3   OH222447   4.936   0.070  14.876  0.2042  0.2903 -0.4600
  319TIP3    H122448   4.851   0.096  14.911  0.4400 -1.0048  1.1972
  319TIP3    H222449   4.920  -0.012  14.830  0.6703 -0.4506  0.6497
  320TIP3   OH222450   0.146   5.526  11.739  0.1211 -0.1984  0.3632
  320TIP3    H122451   0.145   5.433  11.716  1.6560  0.0816 -1.0261
  320TIP3    H222452   0.212   5.565  11.681  0.9690  1.4093  2.2677
  321TIP3   OH222453   2.865   2.869  11.825  0.8126  0.3993  0.0284
  321TIP3    H122454   2.808   2.792  11.829  1.3613  0.0338  1.1679
  321TIP3    H222455   2.810   2.942  11.854  0.8219  0.1057  0.7959
  322TIP3   OH222456   2.001   3.194  16.066  0.0436  0.1425 -0.6240
  322TIP3    H122457   1.957   3.204  15.982  0.6254  1.4467 -0.7968
  322TIP3    H222458   2.064   3.124  16.053  0.4969  0.6913 -1.4399
  323TIP3   OH222459   3.793   4.277  14.319 -0.3488  0.5501 -0.6458
  323TIP3    H122460   3.760   4.188  14.323 -2.3124  1.2614  0.9986
  323TIP3    H222461   3.746   4.317  14.246 -3.6573  1.5969  1.7617
  324TIP3   OH222462   1.714   2.884   3.677 -0.0650 -0.0815 -0.3146
  324TIP3    H122463   1.658   2.828   3.732 -0.5060  0.0149 -0.6607
  324TIP3    H222464   1.680   2.872   3.588  0.4062  0.0548 -0.5128
  325TIP3   OH222465   0.279   1.489   5.909  0.6640  0.0720 -0.3245
  325TIP3    H122466   0.224   1.412   5.894 -0.9929  0.7623  1.6716
  325TIP3    H222467   0.327   1.468   5.989  1.3313  0.5289 -0.6030
  326TIP3   OH222468   4.199   1.708   2.330  0.4942 -0.2165  0.2942
  326TIP3    H122469   4.143   1.780   2.301  2.4973  1.1216 -0.5603
  326TIP3    H222470   4.167   1.686   2.417 -0.8611  0.9849  0.1430
  327TIP3   OH222471   0.080   2.372  12.921  0.3246 -0.3477  0.5219
  327TIP3    H122472   0.157   2.427  12.936  1.1274 -1.1637 -0.5036
  327TIP3    H222473   0.076   2.316  12.999 -0.8426  1.4975  1.8553
  328TIP3   OH222474   0.889   3.490   2.456 -0.8613 -0.2085 -0.0952
  328TIP3    H122475   0.850   3.418   2.506  1.0079 -1.4547 -0.2937
  328TIP3    H222476   0.983   3.471   2.456 -0.5428  0.9983 -2.0989
  329TIP3   OH222477   0.036   2.332  14.116 -0.0706  0.5803  0.6555
  329TIP3    H122478  -0.039   2.380  14.153 -0.5611  0.7747 -0.5513
  329TIP3    H222479   0.005   2.242  14.109  0.8287  0.0483  2.8606
  330TIP3   OH222480   1.986   3.531   1.873 -0.2861 -0.4163 -0.3226
  330TIP3    H122481   2.010   3.565   1.959 -1.7543  1.2983 -0.5270
  330TIP3    H222482   2.016   3.440   1.873  1.8206  0.2003  1.1138
  331TIP3   OH222483   1.488   4.675   2.053  0.4181 -0.2483 -0.1645
  331TIP3    H122484   1.530   4.660   2.138 -0.5777 -1.6918  0.1052
  331TIP3    H222485   1.540   4.745   2.014  1.8055 -0.5481  1.0123
  332TIP3   OH222486   6.527   4.795  17.220  0.0627 -0.0525 -0.2335
  332TIP3    H122487   6.458   4.730  17.207  0.2628 -0.6371  1.3243
  332TIP3    H222488   6.606   4.742  17.233  0.0864  0.4029  1.8851
  333TIP3   OH222489   2.088   1.468   3.655  0.0634 -0.5843  0.0431
  333TIP3    H122490   1.993   1.461   3.639  0.0777 -1.1152  0.1797
  333TIP3    H222491   2.128   1.434   3.575  0.1478  0.0882 -0.2120
  334TIP3   OH222492   2.500   4.356  16.831 -0.5564 -0.0332  0.6123
  334TIP3    H122493   2.524   4.295  16.762  2.7015  1.2462  0.4550
  334TIP3    H222494   2.411   4.384  16.808 -0.2350 -0.9120 -2.0655
  335TIP3   OH222495   3.284   3.572  13.219 -0.1085 -0.1403  0.1180
  335TIP3    H122496   3.221   3.543  13.285 -1.5704  1.4600 -0.4958
  335TIP3    H222497   3.350   3.620  13.268  0.8552 -2.0446  0.8037
  336TIP3   OH222498   1.811   2.551   1.521 -0.3528 -0.8117 -0.0891
  336TIP3    H122499   1.854   2.615   1.463 -1.7195 -0.2118 -0.4735
  336TIP3    H222500   1.881   2.523   1.580  0.5788  0.1255 -0.6930
  337TIP3   OH222501   4.532   0.378   3.449 -0.0596  0.2708  0.1136
  337TIP3    H122502   4.452   0.429   3.435 -2.2311 -2.4368  1.6812
  337TIP3    H222503   4.507   0.288   3.428  2.4532 -0.7466  1.1430
  338TIP3   OH222504   4.327   2.816  13.046 -0.4791 -0.6386 -0.1846
  338TIP3    H122505   4.417   2.828  13.017  0.1696 -3.6187  0.2739
  338TIP3    H222506   4.275   2.818  12.966  0.1634 -0.1816 -0.5992
  339TIP3   OH222507   0.274   3.792   3.588  0.1108  0.6507  0.2243
  339TIP3    H122508   0.217   3.798   3.665  0.4754 -2.1843  0.8372
  339TIP3    H222509   0.213   3.781   3.514 -0.2893 -1.8176  0.8105
  340TIP3   OH222510   0.364   0.438   1.964 -0.1281  0.1363  0.0725
  340TIP3    H122511   0.351   0.531   1.984 -0.9534  0.4517 -1.6782
  340TIP3    H222512   0.276   0.405   1.947  0.2349 -0.7868 -0.0492
  341TIP3   OH222513   0.008   0.036  11.495  0.1722 -0.0142  0.1391
  341TIP3    H122514  -0.067   0.034  11.554  0.3687  0.6753  0.4294
  341TIP3    H222515   0.081   0.005  11.548  0.1892 -0.1964  0.0096
  342TIP3   OH222516   2.930   5.895   3.916 -0.3163 -0.2908 -0.0521
  342TIP3    H122517   3.020   5.913   3.889 -0.3299  0.4868  0.4006
  342TIP3    H222518   2.876   5.925   3.842 -0.2061 -0.8593 -0.3697
  343TIP3   OH222519   1.159   5.029  14.035 -0.0509  0.2474 -0.3023
  343TIP3    H122520   1.097   4.991  13.973 -0.4941 -1.2703  1.0090
  343TIP3    H222521   1.105   5.078  14.097 -0.2729 -2.3904  1.8046
  344TIP3   OH222522   4.654   1.711   3.941  0.2922 -0.2463 -0.4722
  344TIP3    H122523   4.613   1.797   3.943 -1.1166 -0.8915  0.9118
  344TIP3    H222524   4.621   1.667   4.019  1.1128 -1.9827 -1.0470
  345TIP3   OH222525   6.201   5.543  14.409 -0.1878  0.2358 -0.7267
  345TIP3    H122526   6.137   5.613  14.426 -0.0503  0.3623 -0.7278
  345TIP3    H222527   6.286   5.585  14.421 -0.0931 -0.5880  1.9487
  346TIP3   OH222528   3.504   0.793  16.516  0.2115  0.2315 -0.0284
  346TIP3    H122529   3.488   0.881  16.551 -1.2148 -0.6854  1.8778
  346TIP3    H222530   3.583   0.764  16.562 -1.2279 -0.6782  2.0701
  347TIP3   OH222531   0.732   4.794   6.174  0.1787 -0.3866 -0.2837
  347TIP3    H122532   0.648   4.834   6.152  0.6097  0.3870 -0.5647
  347TIP3    H222533   0.774   4.858   6.233  0.2706 -1.0914  0.4358
  348TIP3   OH222534   6.237   3.719  10.453 -0.1577 -0.1203  0.5714
  348TIP3    H122535   6.209   3.646  10.397 -0.6916  1.6663 -1.6454
  348TIP3    H222536   6.189   3.706  10.535  0.2319 -2.5588  0.4940
  349TIP3   OH222537   6.147   0.571   4.219  0.2776 -0.0039  0.0269
  349TIP3    H122538   6.123   0.525   4.299  0.1049 -0.4348 -0.2688
  349TIP3    H222539   6.225   0.621   4.243 -0.4633  0.8220  0.7828
  350TIP3   OH222540   6.604   1.635  12.606  0.0498 -0.4562  0.5863
  350TIP3    H122541   6.523   1.632  12.555 -0.8912  0.3566  1.9823
  350TIP3    H222542   6.661   1.694  12.556 -0.1648 -1.0774 -0.4355
  351TIP3   OH222543   4.352   3.790  11.387  0.0126 -0.4273 -0.0945
  351TIP3    H122544   4.435   3.830  11.360 -0.4129  0.3640 -0.2514
  351TIP3    H222545   4.375   3.699  11.407  0.5954 -0.7080 -1.8562
  352TIP3   OH222546   1.547   2.001  13.510  0.2581 -0.2449 -0.2198
  352TIP3    H122547   1.588   2.055  13.442 -0.0213  0.8019  0.4189
  352TIP3    H222548   1.536   2.060  13.584 -0.0183 -1.2045  0.5286
  353TIP3   OH222549   1.067   4.277  13.208 -0.3012 -0.2222 -0.2431
  353TIP3    H122550   1.093   4.190  13.177  0.5816 -0.0618  0.0003
  353TIP3    H222551   1.086   4.276  13.302 -0.4179  0.1852 -0.2123
  354TIP3   OH222552   4.636   0.317   2.873  0.3214  0.1653 -0.2331
  354TIP3    H122553   4.593   0.402   2.877 -1.0644 -0.5332  0.6535
  354TIP3    H222554   4.699   0.319   2.945 -2.0255 -0.6708  2.0370
  355TIP3   OH222555   5.797   0.912   4.793  0.1574 -0.4950  0.8059
  355TIP3    H122556   5.855   0.974   4.837 -2.0309  0.8341  1.9796
  355TIP3    H222557   5.854   0.866   4.731  1.9864  2.4425  0.1095
  356TIP3   OH222558   4.276   0.681   4.091  0.7000 -0.1034  0.0154
  356TIP3    H122559   4.228   0.610   4.133 -0.3081  0.5952  0.0576
  356TIP3    H222560   4.307   0.736   4.163 -1.1363  1.1643 -0.0990
  357TIP3   OH222561   3.924   0.856   1.029  0.0975  1.0196  0.1547
  357TIP3    H122562   4.005   0.829   0.986 -0.4341 -1.7039  0.6731
  357TIP3    H222563   3.927   0.813   1.114 -3.7924 -3.2827 -1.4218
  358TIP3   OH222564   5.521   1.387  15.060  0.2874  0.3063  0.1123
  358TIP3    H122565   5.559   1.353  14.979 -0.9679 -0.7019 -0.0846
  358TIP3    H222566   5.572   1.346  15.130  1.5144  1.3418 -0.1354
  359TIP3   OH222567   5.120   4.033  12.621  0.9399 -0.7329  0.6671
  359TIP3    H122568   5.084   4.105  12.673 -1.0783 -1.9899  1.1297
  359TIP3    H222569   5.094   4.054  12.531  1.4461 -0.2782  0.6218
  360TIP3   OH222570   2.987   0.901  12.853  0.8903  0.7362 -0.3899
  360TIP3    H122571   2.928   0.928  12.923  1.5691 -0.3579  0.6415
  360TIP3    H222572   2.978   0.806  12.849  0.8069  0.7885 -1.8633
  361TIP3   OH222573   6.387   6.663   3.114  0.1480 -0.3398 -0.0008
  361TIP3    H122574   6.337   6.721   3.170  2.2287  0.5152  1.0845
  361TIP3    H222575   6.434   6.722   3.055  1.7326 -0.9125  0.6355
  362TIP3   OH222576   0.501   3.365  14.992  0.2137  0.0489 -0.2510
  362TIP3    H122577   0.453   3.400  14.917 -3.9083 -0.4384  1.8520
  362TIP3    H222578   0.474   3.273  14.996  0.8983 -0.0996  1.4066
  363TIP3   OH222579   3.357   1.001   2.522 -0.2921  0.5282  0.5236
  363TIP3    H122580   3.274   1.027   2.561 -0.6691 -0.0174  0.0988
  363TIP3    H222581   3.351   0.905   2.516  0.0154  0.5551 -0.2936
  364TIP3   OH222582   4.101   6.610  12.466 -0.2998  0.1615  0.6406
  364TIP3    H122583   4.077   6.681  12.406 -0.1370 -0.9302 -0.7466
  364TIP3    H222584   4.196   6.603  12.458 -0.5422 -1.8494 -1.1799
  365TIP3   OH222585   0.212   2.494   0.791 -0.0291 -0.7877 -0.0299
  365TIP3    H122586   0.233   2.586   0.777  0.9005 -1.1528 -1.1386
  365TIP3    H222587   0.225   2.481   0.885 -2.0337  0.6466  0.5322
  366TIP3   OH222588   2.365   6.559  15.057 -1.2399  0.4844  0.3165
  366TIP3    H122589   2.270   6.562  15.064 -1.3313 -0.2833 -0.3596
  366TIP3    H222590   2.387   6.466  15.064 -0.6547  0.5312 -0.6150
  367TIP3   OH222591   3.647   2.870  13.665 -0.4363  0.9938 -0.2079
  367TIP3    H122592   3.707   2.897  13.734  0.8556  1.7472 -1.5575
  367TIP3    H222593   3.664   2.931  13.593 -0.1447 -1.0768 -1.9972
  368TIP3   OH222594   2.180   0.542   3.890  0.5597 -0.3126  0.0177
  368TIP3    H122595   2.248   0.513   3.830 -0.0261  0.8912 -1.2717
  368TIP3    H222596   2.105   0.562   3.835 -1.2197 -2.4717  1.4775
  369TIP3   OH222597   4.769   0.608   6.789 -0.8907  0.0324 -0.2370
  369TIP3    H122598   4.794   0.641   6.702 -1.5946 -2.7077 -1.6052
  369TIP3    H222599   4.842   0.553   6.816 -1.2063 -0.1056  0.3526
  370TIP3   OH222600   5.245   2.093  12.583 -0.1970  0.1427 -0.4932
  370TIP3    H122601   5.202   2.010  12.599 -0.2501  0.3152  0.3256
  370TIP3    H222602   5.277   2.120  12.669  0.6373  0.5143 -0.9113
  371TIP3   OH222603   1.021   2.369  13.929 -0.1748 -0.1717  0.0742
  371TIP3    H122604   0.948   2.353  13.989  0.1979  0.9256  0.8511
  371TIP3    H222605   1.004   2.311  13.855 -0.1622 -2.2547  1.6231
  372TIP3   OH222606   4.089   5.397  14.342  0.2203 -0.8007  0.2769
  372TIP3    H122607   4.180   5.423  14.328 -0.0068 -0.1203  0.0120
  372TIP3    H222608   4.071   5.335  14.271  0.0489  0.1679 -0.5396
  373TIP3   OH222609   6.503   4.034   0.231  0.3305 -0.2327  0.1667
  373TIP3    H122610   6.428   3.982   0.203 -0.5650  1.8219 -1.5564
  373TIP3    H222611   6.574   4.009   0.172 -0.1833  0.6813 -0.8561
  374TIP3   OH222612   0.253   6.227  13.316 -0.1751 -0.0416  0.1092
  374TIP3    H122613   0.179   6.271  13.273  1.7473  1.8132 -1.5722
  374TIP3    H222614   0.254   6.263  13.405 -1.3540 -0.1750  0.1847
  375TIP3   OH222615   1.316   5.314  16.666  0.4889  0.0836 -0.3227
  375TIP3    H122616   1.387   5.251  16.680 -0.0964 -0.1192  2.3214
  375TIP3    H222617   1.241   5.259  16.643  0.6596  0.0981 -0.9265
  376TIP3   OH222618   2.229   3.339   1.615  0.0397  0.0115 -0.1902
  376TIP3    H122619   2.145   3.378   1.593  0.9484  0.5848 -3.0483
  376TIP3    H222620   2.232   3.257   1.565  1.3786  0.2574 -0.5446
  377TIP3   OH222621   1.883   6.752  12.020 -0.2977 -0.1591  0.2086
  377TIP3    H122622   1.956   6.733  12.079 -0.1951 -0.4372 -0.0072
  377TIP3    H222623   1.924   6.786  11.941 -0.2819 -1.7143 -0.4991
  378TIP3   OH222624   6.322   6.572   1.680  0.4587  0.1417 -0.6131
  378TIP3    H122625   6.291   6.613   1.599 -2.0402  1.0789  0.7038
  378TIP3    H222626   6.282   6.485   1.679  2.2346 -0.7101 -1.3637
  379TIP3   OH222627   3.347   0.397   1.934  0.2240 -0.3825 -0.1918
  379TIP3    H122628   3.392   0.433   2.010 -0.7970 -0.6992  0.5814
  379TIP3    H222629   3.255   0.420   1.947 -0.0226 -0.8071 -1.1139
  380TIP3   OH222630   2.306   0.795   2.242  0.5627 -0.0177  0.1083
  380TIP3    H122631   2.259   0.726   2.195  0.2911 -1.8627  2.8577
  380TIP3    H222632   2.238   0.848   2.282  0.7484 -0.8596  1.5996
  381TIP3   OH222633   5.219   2.823  15.035  0.4110 -0.3374  0.5993
  381TIP3    H122634   5.285   2.759  15.063  0.8285 -0.1380  0.0855
  381TIP3    H222635   5.192   2.793  14.948 -0.9734 -1.0312  1.2280
  382TIP3   OH222636   4.997   2.926   5.856  0.4091 -0.4252 -0.0112
  382TIP3    H122637   4.910   2.886   5.862  0.5021 -0.7165 -0.5887
  382TIP3    H222638   5.017   2.954   5.946  0.1788 -1.3132  0.3226
  383TIP3   OH222639   4.161   4.253   3.998 -0.6005  0.0700  0.1838
  383TIP3    H122640   4.232   4.204   4.041  0.5245  1.4951  0.0228
  383TIP3    H222641   4.082   4.229   4.047  0.2113 -0.4886  1.2607
  384TIP3   OH222642   2.430   1.029   5.852 -0.4195  0.1015  0.0750
  384TIP3    H122643   2.475   1.011   5.769 -0.6876  0.7642 -0.2265
  384TIP3    H222644   2.481   1.100   5.891  0.0713 -0.6244  0.7864
  385TIP3   OH222645   0.890   1.600  12.042 -0.6385 -0.0079  0.4388
  385TIP3    H122646   0.796   1.587  12.037 -0.5942 -0.0672 -0.4662
  385TIP3    H222647   0.909   1.608  12.135 -1.6495  0.8809  0.5844
  386TIP3   OH222648   4.742   4.257   1.253 -0.1489 -0.6645  0.3085
  386TIP3    H122649   4.662   4.206   1.266 -0.0347 -1.2266 -1.0403
  386TIP3    H222650   4.799   4.200   1.201  1.5618 -0.6963  2.1052
  387TIP3   OH222651   1.835   0.600   2.781 -0.2110 -0.3610  0.9556
  387TIP3    H122652   1.898   0.637   2.719 -1.1207  0.6999  0.6343
  387TIP3    H222653   1.870   0.513   2.801  0.9552 -0.0903  0.2156
  388TIP3   OH222654   1.973   1.512  16.105  0.8349 -0.4423 -0.4541
  388TIP3    H122655   2.037   1.500  16.036  0.6339  0.3494 -0.7957
  388TIP3    H222656   1.967   1.427  16.149  0.5123 -1.1276 -1.7926
  389TIP3   OH222657   3.734   0.383  14.248 -0.5324 -0.4281  0.3804
  389TIP3    H122658   3.804   0.345  14.194  0.3864  0.5059  0.8627
  389TIP3    H222659   3.702   0.310  14.300  0.7268 -0.7091  0.8092
  390TIP3   OH222660   1.171   5.514  14.676  0.0323  0.3851  0.6326
  390TIP3    H122661   1.238   5.533  14.610  0.9560  1.4281  1.8328
  390TIP3    H222662   1.202   5.556  14.756 -2.3258  1.4236  1.1018
  391TIP3   OH222663   0.783   4.334   2.229  0.7990  0.6422 -0.2631
  391TIP3    H122664   0.860   4.391   2.224  0.6703  0.7965 -0.5409
  391TIP3    H222665   0.801   4.264   2.166  1.0136  0.3049  0.1722
  392TIP3   OH222666   6.279   1.240   1.390  0.1580 -0.2588  0.2535
  392TIP3    H122667   6.341   1.285   1.448  0.6507 -1.1004  0.4009
  392TIP3    H222668   6.286   1.148   1.415  0.4647 -0.6571 -1.2354
  393TIP3   OH222669   3.116   0.757  11.618  0.0870  0.2347 -0.2783
  393TIP3    H122670   3.150   0.730  11.533  0.1823  0.7274 -0.3951
  393TIP3    H222671   3.099   0.674  11.664 -0.4036 -0.0395 -0.9433
  394TIP3   OH222672   3.743   2.080   2.686 -0.5780 -0.2516 -0.5476
  394TIP3    H122673   3.670   2.108   2.741 -0.9405 -1.2242 -0.5155
  394TIP3    H222674   3.727   1.987   2.670 -0.0216 -0.1845 -1.5965
  395TIP3   OH222675   1.750   1.233   1.784  0.2295 -0.3784 -0.0245
  395TIP3    H122676   1.657   1.230   1.762  0.3196  1.6480 -0.9474
  395TIP3    H222677   1.753   1.273   1.871  0.2700  1.9142 -1.0091
  396TIP3   OH222678   0.266   0.319  17.009  0.1280 -0.2238  0.4606
  396TIP3    H122679   0.333   0.263  17.049  0.7506  1.6372  2.2070
  396TIP3    H222680   0.290   0.323  16.917  1.4069 -0.9825  0.7281
  397TIP3   OH222681   6.731   1.884   3.527  0.1127 -0.1728 -0.5220
  397TIP3    H122682   6.660   1.826   3.554  0.6958 -0.0562  1.4227
  397TIP3    H222683   6.687   1.963   3.497 -0.6993  0.8536  2.8851
  398TIP3   OH222684   1.176   3.497   2.430  0.0680 -0.0310 -0.2426
  398TIP3    H122685   1.223   3.418   2.458 -0.3416  0.3507  1.6757
  398TIP3    H222686   1.234   3.537   2.365 -1.0432 -3.3881 -3.6630
  399TIP3   OH222687   6.298   0.708   4.877 -0.3493 -0.4880  0.1064
  399TIP3    H122688   6.297   0.641   4.808  1.1273 -0.8739  0.4451
  399TIP3    H222689   6.268   0.788   4.832 -0.6866 -1.0246 -0.6564
  400TIP3   OH222690   1.769   2.867  13.268 -0.4425  0.2042  0.1161
  400TIP3    H122691   1.728   2.783  13.289  2.0905 -1.5816 -1.3884
  400TIP3    H222692   1.746   2.925  13.341 -3.1958 -1.4189  0.6599
  401TIP3   OH222693   6.599   6.698   6.063  0.2894  0.1657  0.0043
  401TIP3    H122694   6.662   6.725   6.129  1.8498  0.0115 -1.3512
  401TIP3    H222695   6.613   6.604   6.054  0.1456  0.1969 -0.5928
  402TIP3   OH222696   1.467   2.843   3.838 -0.2172 -0.3274  0.2061
  402TIP3    H122697   1.488   2.921   3.786 -0.0446 -0.0684  0.6632
  402TIP3    H222698   1.371   2.840   3.837 -0.2923  0.8091  1.5096
  403TIP3   OH222699   4.997   1.392   2.231  0.4147  0.0400 -0.0362
  403TIP3    H122700   5.082   1.380   2.188 -0.1292 -0.8591 -0.9263
  403TIP3    H222701   4.934   1.358   2.167 -0.4597 -1.0719  1.3608
  404TIP3   OH222702   1.620   2.009   0.431 -0.0027  0.4855 -0.5809
  404TIP3    H122703   1.649   1.950   0.501  0.3782  0.5517 -0.6800
  404TIP3    H222704   1.525   1.996   0.426  0.0621 -0.0358 -0.5237
  405TIP3   OH222705   1.854   2.740  10.959 -0.9590 -0.3665  0.2105
  405TIP3    H122706   1.898   2.655  10.958 -2.4940 -1.1972  0.1037
  405TIP3    H222707   1.844   2.762  10.866  0.4729  0.5214  0.2404
  406TIP3   OH222708   0.615   1.483   4.881 -0.4351  0.0810  0.6301
  406TIP3    H122709   0.555   1.548   4.916  0.4697  1.0175  0.4702
  406TIP3    H222710   0.574   1.452   4.801 -1.2143 -0.0909  1.0836
  407TIP3   OH222711   0.453   1.579  16.843 -0.6299 -0.2710 -0.1354
  407TIP3    H122712   0.458   1.483  16.842  1.1650 -0.1966  0.0055
  407TIP3    H222713   0.450   1.602  16.935 -1.3085 -0.1858 -0.1729
  408TIP3   OH222714   3.675   3.832  10.277 -0.0186 -0.5593  0.2181
  408TIP3    H122715   3.729   3.904  10.308 -2.0213  0.6668  1.1215
  408TIP3    H222716   3.717   3.803  10.197  1.7489  0.5356  0.6928
  409TIP3   OH222717   2.097   5.796  11.537  0.6703 -0.1004  0.3048
  409TIP3    H122718   2.023   5.736  11.531 -0.6988  1.5738 -0.4424
  409TIP3    H222719   2.066   5.877  11.495  2.5711  0.9943  0.8829
  410TIP3   OH222720   0.760   1.850   5.476  0.0411  0.4578 -0.3151
  410TIP3    H122721   0.814   1.907   5.422  1.0663 -0.3418 -0.1648
  410TIP3    H222722   0.813   1.833   5.554 -0.4346 -0.3105 -0.1393
  411TIP3   OH222723   3.291   3.374  14.073  0.7376 -0.0837 -0.1470
  411TIP3    H122724   3.212   3.424  14.090  1.5449  1.9055 -1.7297
  411TIP3    H222725   3.260   3.293  14.034 -0.6211 -0.9459  2.4911
  412TIP3   OH222726   1.559   4.488  11.260 -0.2119 -0.0561 -0.2004
  412TIP3    H122727   1.495   4.554  11.234  1.1191  3.2654  3.8762
  412TIP3    H222728   1.642   4.519  11.222  0.5951  1.3368  2.4890
  413TIP3   OH222729   4.011   6.447  13.748 -0.1791 -0.1926  0.0722
  413TIP3    H122730   4.010   6.509  13.821 -0.2973  0.0537 -0.1367
  413TIP3    H222731   4.062   6.373  13.780 -2.0195 -1.0613  1.1949
  414TIP3   OH222732   1.423   5.417   4.450 -0.5641 -0.6150  0.4867
  414TIP3    H122733   1.416   5.422   4.545  1.3478  2.5123  0.5996
  414TIP3    H222734   1.361   5.483   4.418 -0.4592 -0.9294 -0.3973
  415TIP3   OH222735   1.249   6.315   4.306  0.2926 -0.0694  0.1280
  415TIP3    H122736   1.246   6.289   4.398  1.0404 -0.1125  0.1466
  415TIP3    H222737   1.237   6.410   4.307  0.0735 -0.0995  0.2541
  416TIP3   OH222738   3.738   3.728  12.947  0.2419  0.0480  0.7812
  416TIP3    H122739   3.732   3.698  13.038 -0.3681  0.5953  0.9317
  416TIP3    H222740   3.784   3.812  12.953 -2.4639  1.6565  0.9965
  417TIP3   OH222741   3.514   4.594   5.505 -0.2349  0.4460 -0.3027
  417TIP3    H122742   3.545   4.667   5.451  2.2697 -0.1085  0.2691
  417TIP3    H222743   3.578   4.588   5.576  0.7732 -3.4309 -1.2997
  418TIP3   OH222744   3.696   4.505  15.623 -0.1663 -0.2718 -0.5364
  418TIP3    H122745   3.644   4.431  15.593 -1.0546 -0.3572  1.1085
  418TIP3    H222746   3.750   4.469  15.693  0.3180  0.3675 -0.5713
  419TIP3   OH222747   1.193   2.996   4.019 -0.0617 -0.7046  0.0838
  419TIP3    H122748   1.216   3.081   4.057  2.0728 -1.5714  0.8709
  419TIP3    H222749   1.145   3.019   3.939 -0.3303  1.2170  0.7346
  420TIP3   OH222750   3.079   4.882   5.614 -0.6150  0.0644 -0.0440
  420TIP3    H122751   3.070   4.875   5.709 -0.3174 -0.2259 -0.0361
  420TIP3    H222752   2.990   4.891   5.582 -0.8197 -1.0514  0.1679
  421TIP3   OH222753   2.563   0.745   1.918  0.4858  0.4177  0.1418
  421TIP3    H122754   2.495   0.794   1.873 -1.5789 -0.1737  2.4160
  421TIP3    H222755   2.575   0.666   1.865 -0.4407  0.6317 -0.4061
  422TIP3   OH222756   0.299   0.553  10.499 -0.1301  0.1924 -0.1156
  422TIP3    H122757   0.377   0.502  10.478 -0.8975 -0.6792 -0.9390
  422TIP3    H222758   0.226   0.492  10.487 -1.0953  1.5213 -1.3716
  423TIP3   OH222759   2.414   2.751  15.344  0.5028  0.0124  0.1642
  423TIP3    H122760   2.486   2.767  15.405  1.5273  1.1848 -1.3069
  423TIP3    H222761   2.452   2.699  15.274 -0.7278 -1.5368  0.5730
  424TIP3   OH222762   2.252   4.333  13.604 -0.0397  0.2766  0.0567
  424TIP3    H122763   2.196   4.390  13.552 -1.0050  0.5041  1.2885
  424TIP3    H222764   2.204   4.250  13.608  1.3416 -0.6904 -1.7110
  425TIP3   OH222765   1.439   4.168   3.228  0.5127 -0.2936 -0.2216
  425TIP3    H122766   1.488   4.120   3.161  0.4033  1.2711 -1.4966
  425TIP3    H222767   1.507   4.213   3.279  0.6266 -1.8449  1.0835
  426TIP3   OH222768   2.377   3.847  13.573  0.1278 -0.5360  0.4485
  426TIP3    H122769   2.415   3.777  13.519  0.6148  1.9921 -2.8253
  426TIP3    H222770   2.442   3.917  13.570 -0.1174  0.0149  4.0195
  427TIP3   OH222771   6.642   1.555  13.885 -0.1915  0.0628  0.5730
  427TIP3    H122772   6.631   1.495  13.958 -0.0838 -1.1115 -0.3396
  427TIP3    H222773   6.560   1.604  13.881  0.3383  1.1871  2.3537
  428TIP3   OH222774   1.554   2.421   0.527  0.4658  0.5202 -0.3676
  428TIP3    H122775   1.635   2.370   0.521  1.0396  1.4184 -0.4730
  428TIP3    H222776   1.496   2.384   0.461  0.2079 -1.1394  0.7428
  429TIP3   OH222777   5.509   2.217   4.554 -0.0538  0.2046  0.5122
  429TIP3    H122778   5.574   2.158   4.591 -0.1326 -0.3221 -0.1624
  429TIP3    H222779   5.490   2.181   4.468 -1.6160  0.0393  0.8898
  430TIP3   OH222780   1.674   2.292  15.654  0.3393 -0.7320  0.5836
  430TIP3    H122781   1.593   2.309  15.702  0.3101 -0.0130  0.2944
  430TIP3    H222782   1.718   2.377  15.651  1.5633 -1.2942  1.5678
  431TIP3   OH222783   6.340   4.152   6.711 -0.4666 -0.4044  0.2134
  431TIP3    H122784   6.355   4.113   6.797 -0.7986 -1.1399 -0.0523
  431TIP3    H222785   6.428   4.170   6.678 -0.1485 -2.8084 -0.4815
  432TIP3   OH222786   2.884   2.783   4.184  0.5022 -0.8551 -0.5077
  432TIP3    H122787   2.907   2.760   4.094 -0.6568  0.6433 -1.2466
  432TIP3    H222788   2.816   2.850   4.175  1.2581  0.2905  1.4663
  433TIP3   OH222789   5.239   2.928  13.087  0.0527 -0.1765 -0.3397
  433TIP3    H122790   5.297   2.861  13.050  1.7421  0.4038  1.1077
  433TIP3    H222791   5.265   3.009  13.044  1.0242  0.2470  0.9892
  434TIP3   OH222792   4.462   4.296   2.555 -0.0803 -0.4793 -0.4235
  434TIP3    H122793   4.553   4.306   2.582  0.1885  0.6253 -1.6182
  434TIP3    H222794   4.466   4.251   2.470 -0.6201 -0.2019 -0.6063
  435TIP3   OH222795   5.209   2.073   2.325  0.1680  0.2303  0.1463
  435TIP3    H122796   5.167   2.154   2.353 -1.6818 -0.6134 -0.0354
  435TIP3    H222797   5.142   2.006   2.339 -0.0657 -0.6461 -4.0043
  436TIP3   OH222798   1.888   5.686  16.753 -0.0350  0.7711  0.4066
  436TIP3    H122799   1.948   5.704  16.681 -0.3087  0.8286  0.1875
  436TIP3    H222800   1.816   5.748  16.740 -0.8942 -0.3202 -0.2389
  437TIP3   OH222801   1.759   4.032   1.005 -0.4029  0.2695 -0.2495
  437TIP3    H122802   1.772   4.030   1.100  0.5889  1.5451 -0.3363
  437TIP3    H222803   1.847   4.037   0.968 -0.7718 -0.2417 -1.2475
  438TIP3   OH222804   0.793   2.012   4.746  0.1279  0.5492  0.2745
  438TIP3    H122805   0.742   1.932   4.734  0.0304  0.8043 -1.0839
  438TIP3    H222806   0.775   2.037   4.837 -0.0079 -0.8414  0.6499
  439TIP3   OH222807   4.302   1.350  14.608  0.6447 -0.3870  0.1337
  439TIP3    H122808   4.225   1.294  14.603  0.4629 -0.0150 -2.5599
  439TIP3    H222809   4.292   1.413  14.537  3.9329 -0.9838 -1.0461
  440TIP3   OH222810   0.411   3.061   2.155  0.1478 -0.4102 -0.3077
  440TIP3    H122811   0.375   3.126   2.094 -0.2831  0.3535  0.7198
  440TIP3    H222812   0.346   3.057   2.226  0.7866 -1.0364  0.2541
  441TIP3   OH222813   4.428   0.417  12.287 -0.3146  0.3481  0.0178
  441TIP3    H122814   4.478   0.421  12.205 -0.3457  1.3280  0.0343
  441TIP3    H222815   4.480   0.469  12.349 -1.3187  1.3411  0.0506
  442TIP3   OH222816   3.155   6.140   2.943 -1.1696  0.1759  0.0924
  442TIP3    H122817   3.116   6.129   3.030 -0.0739  0.0415  0.5808
  442TIP3    H222818   3.171   6.051   2.912 -0.2697  0.2349  0.3597
  443TIP3   OH222819   3.179   1.452   1.988  0.4583  0.4701  0.0991
  443TIP3    H122820   3.107   1.498   2.031  0.9808  1.2644  0.1431
  443TIP3    H222821   3.253   1.461   2.049  0.9997  0.9442 -0.6201
  444TIP3   OH222822   5.218   4.925  16.898 -0.0149 -0.6265  0.0954
  444TIP3    H122823   5.276   4.934  16.974  1.7807 -1.2517 -1.1314
  444TIP3    H222824   5.212   5.013  16.861  1.1925 -0.7435 -0.4491
  445TIP3   OH222825   3.442   6.470  13.879  0.3641 -0.4416  0.1101
  445TIP3    H122826   3.509   6.522  13.924 -0.3206 -0.6668  1.4277
  445TIP3    H222827   3.420   6.521  13.801  1.7838 -0.1835 -0.1388
  446TIP3   OH222828   4.776   5.492  12.910  0.1523 -0.4160  0.4582
  446TIP3    H122829   4.753   5.417  12.964  0.5835  0.3481  1.7341
  446TIP3    H222830   4.863   5.472  12.877  0.4594 -0.2847  1.1727
  447TIP3   OH222831   3.878   3.957   3.280  1.0356  0.1562  0.2325
  447TIP3    H122832   3.962   3.972   3.323  0.3607  0.1049  1.6074
  447TIP3    H222833   3.813   3.995   3.339  0.2623  3.5339 -2.4484
  448TIP3   OH222834   3.045   0.710  15.038  0.0675  0.0433 -0.2490
  448TIP3    H122835   2.995   0.733  14.959 -0.9708  1.8021  0.8588
  448TIP3    H222836   3.002   0.759  15.108  2.0620 -0.0909  1.1246
  449TIP3   OH222837   3.288   5.257   2.105  0.1031  0.1556  0.5755
  449TIP3    H122838   3.262   5.348   2.093  1.3139  0.3523 -0.8890
  449TIP3    H222839   3.210   5.207   2.081  0.7472  0.7361 -3.3164
  450TIP3   OH222840   6.383   5.554  15.475 -0.6275 -0.2095  0.8554
  450TIP3    H122841   6.384   5.592  15.563  2.4863  1.3657  0.3119
  450TIP3    H222842   6.385   5.460  15.489 -1.8968 -0.0386  2.4175
  451TIP3   OH222843   5.523   0.611  12.370 -0.1608 -0.1052  0.2712
  451TIP3    H122844   5.446   0.653  12.407 -0.4705 -0.2577 -0.2001
  451TIP3    H222845   5.507   0.517  12.379 -0.4138 -0.1524 -0.5941
  452TIP3   OH222846   6.605   5.309   0.664 -0.0650  0.3611 -0.2677
  452TIP3    H122847   6.519   5.323   0.702 -0.3420 -0.6845 -0.4847
  452TIP3    H222848   6.656   5.386   0.691 -0.5640  0.1877  1.2949
  453TIP3   OH222849   1.874   6.082   4.348  0.1734  0.8519  0.0619
  453TIP3    H122850   1.800   6.061   4.404  0.5083 -1.2717 -0.2332
  453TIP3    H222851   1.926   6.144   4.399 -0.3590  0.2151  1.4142
  454TIP3   OH222852   6.221   2.388   0.883 -0.1217  0.0523  0.1584
  454TIP3    H122853   6.276   2.466   0.894 -1.8010  1.3296 -0.1828
  454TIP3    H222854   6.233   2.363   0.792  0.1660  0.1163  0.1781
  455TIP3   OH222855   1.713   4.720   4.933 -0.2130 -0.0717  0.5117
  455TIP3    H122856   1.732   4.645   4.877 -0.7577  1.1080 -1.3415
  455TIP3    H222857   1.798   4.760   4.949 -0.0972 -0.1705  0.1572
  456TIP3   OH222858   4.224   2.555   3.942 -0.3893 -0.2981 -0.4243
  456TIP3    H122859   4.168   2.598   4.007  2.1964  1.6879  0.6699
  456TIP3    H222860   4.275   2.491   3.993  0.1535 -0.2434 -0.8835
  457TIP3   OH222861   6.417   6.518   3.360  0.2382 -0.0263 -0.4667
  457TIP3    H122862   6.450   6.433   3.389  1.3859  1.0675  1.6833
  457TIP3    H222863   6.442   6.523   3.267  0.7826 -1.7249 -0.4473
  458TIP3   OH222864   5.679   4.873   2.518  0.1952  0.3592 -0.1706
  458TIP3    H122865   5.657   4.783   2.493  1.8180  0.3571 -1.7576
  458TIP3    H222866   5.717   4.865   2.605  0.6056 -0.5281 -0.4202
  459TIP3   OH222867   1.867   6.378  11.856 -0.0541 -0.6570  0.1372
  459TIP3    H122868   1.906   6.308  11.804 -0.4305 -1.5296  1.0090
  459TIP3    H222869   1.815   6.428  11.792 -0.1913 -1.4777 -0.4122
  460TIP3   OH222870   3.969   6.610   0.788  0.3879 -0.3799  0.3995
  460TIP3    H122871   4.058   6.639   0.805  0.4825 -0.5204  0.1373
  460TIP3    H222872   3.921   6.634   0.867  1.1122 -2.2543  1.4781
  461TIP3   OH222873   6.601   6.012  15.234 -0.8276  0.0606 -0.5010
  461TIP3    H122874   6.508   6.003  15.211 -0.9993 -1.1892  0.5692
  461TIP3    H222875   6.613   5.953  15.309  0.4655  1.4711  0.4479
  462TIP3   OH222876   2.052   5.820  13.996  0.0755 -0.0382  0.0995
  462TIP3    H122877   1.998   5.747  13.965  0.9510 -1.4684  1.7044
  462TIP3    H222878   2.126   5.823  13.935 -0.7410  0.5680 -0.8884
  463TIP3   OH222879   4.970   5.074  12.593  0.4457 -0.1691 -0.3742
  463TIP3    H122880   4.948   5.093  12.684  0.3405  1.5029 -0.7001
  463TIP3    H222881   5.063   5.052  12.595  0.0259 -2.0020  0.3476
  464TIP3   OH222882   2.409   5.797  12.454  0.6936  0.1695 -0.0300
  464TIP3    H122883   2.470   5.723  12.460 -0.0203 -0.4509 -0.1556
  464TIP3    H222884   2.407   5.833  12.542  0.2650 -0.6196  0.2920
  465TIP3   OH222885   1.054   2.419  16.489 -0.2420  0.7467 -0.2781
  465TIP3    H122886   1.010   2.388  16.568 -0.7559  0.0711 -0.8246
  465TIP3    H222887   1.103   2.343  16.458  1.3608  1.4845  0.3339
  466TIP3   OH222888   6.161   1.209  11.877 -0.1588  0.6915 -0.6481
  466TIP3    H122889   6.206   1.191  11.960  0.2788 -0.7470 -1.1708
  466TIP3    H222890   6.204   1.287  11.844  1.1156  0.0669 -0.5196
  467TIP3   OH222891   1.991   3.547  16.837 -0.0300 -0.4390  0.7295
  467TIP3    H122892   2.065   3.582  16.885  1.0533 -0.0218 -1.1712
  467TIP3    H222893   1.944   3.624  16.804  0.6558 -0.6807 -0.9163
  468TIP3   OH222894   4.644   5.940   3.917 -0.3825  1.0720 -0.4681
  468TIP3    H122895   4.637   6.004   3.988 -2.6346  1.9235 -1.4078
  468TIP3    H222896   4.659   5.857   3.963  1.0918  1.9898  0.8368
  469TIP3   OH222897   6.741   1.348   3.848  0.5612  0.4168  0.0413
  469TIP3    H122898   6.685   1.420   3.820  0.8168  0.6218  0.0493
  469TIP3    H222899   6.681   1.275   3.864  0.3028  0.6234  0.0186
  470TIP3   OH222900   2.071   1.927   5.077  0.5399  0.0472 -0.3657
  470TIP3    H122901   2.097   1.838   5.054 -0.2495 -0.1681 -0.4730
  470TIP3    H222902   2.129   1.983   5.026  1.8302 -0.3778  0.5940
  471TIP3   OH222903   5.362   6.573   5.700  0.1914  0.1150 -0.1309
  471TIP3    H122904   5.455   6.575   5.724  0.2295  0.5510 -0.3123
  471TIP3    H222905   5.321   6.636   5.759 -0.2535 -1.2153  1.0364
  472TIP3   OH222906   3.271   6.152  14.340 -0.4854  0.4856  0.0975
  472TIP3    H122907   3.190   6.202  14.334 -0.5148  0.4236 -0.0211
  472TIP3    H222908   3.243   6.061  14.344 -0.4040  0.4386 -0.3998
  473TIP3   OH222909   3.858   2.963  11.574  0.6220  0.0843  0.0654
  473TIP3    H122910   3.916   2.887  11.577 -2.2623 -2.3690 -1.4848
  473TIP3    H222911   3.858   2.989  11.481  0.0802  0.7687  0.2488
  474TIP3   OH222912   2.585   5.961  11.988  0.1301  0.0194 -0.2422
  474TIP3    H122913   2.657   5.978  11.927 -0.5007 -0.7088 -1.2111
  474TIP3    H222914   2.536   6.043  11.990  0.1604  0.0500 -0.6999
  475TIP3   OH222915   5.562   3.197  16.727  0.1026 -0.5121  0.1414
  475TIP3    H122916   5.538   3.156  16.644  0.4910 -0.6139  0.0778
  475TIP3    H222917   5.502   3.158  16.791 -2.0514  1.5035 -0.4983
  476TIP3   OH222918   1.045   3.837   2.123 -0.2131  0.3171 -0.1240
  476TIP3    H122919   1.048   3.921   2.077 -1.2738 -0.1727 -1.1564
  476TIP3    H222920   1.101   3.849   2.199  2.8683  0.6937 -2.2843
  477TIP3   OH222921   3.272   5.200   1.786  0.0156 -0.3014 -0.2551
  477TIP3    H122922   3.197   5.259   1.798  0.4404  0.0612  0.7991
  477TIP3    H222923   3.293   5.206   1.693 -1.6933 -0.9473 -0.7184
  478TIP3   OH222924   5.766   3.205  12.765 -0.1718  0.1041  0.0735
  478TIP3    H122925   5.671   3.206  12.751  0.0460 -0.4953 -1.7597
  478TIP3    H222926   5.796   3.127  12.718  1.4097  1.2233 -0.8876
  479TIP3   OH222927   3.362   4.245   5.141  0.6749  0.3099 -0.0705
  479TIP3    H122928   3.276   4.283   5.152  0.3793  0.2196 -1.8209
  479TIP3    H222929   3.421   4.303   5.190 -0.2565  0.7905  0.5044
  480TIP3   OH222930   2.058   4.268  12.881 -0.1578  0.1448 -0.3637
  480TIP3    H122931   2.092   4.346  12.838 -0.6261  0.8725  0.5445
  480TIP3    H222932   2.048   4.294  12.973  1.0728 -1.4511  0.2477
  481TIP3   OH222933   2.199   5.178  14.550  0.8267  0.2873 -0.0760
  481TIP3    H122934   2.199   5.270  14.522  1.5767 -0.0156 -1.1218
  481TIP3    H222935   2.183   5.129  14.469 -1.2715 -0.4671  0.7196
  482TIP3   OH222936   6.238   6.609   3.891 -0.0547 -0.5078 -0.5429
  482TIP3    H122937   6.317   6.637   3.844  0.5305 -2.6114 -0.9477
  482TIP3    H222938   6.174   6.592   3.821 -0.9376  1.2284 -0.2156
  483TIP3   OH222939   3.368   2.029  11.216 -0.5833 -0.1320  1.0549
  483TIP3    H122940   3.365   2.110  11.267  0.2759  0.4569  0.2104
  483TIP3    H222941   3.452   2.033  11.170 -1.7963 -0.0230 -1.3318
  484TIP3   OH222942   5.264   1.875  14.534  0.2534 -0.1891 -0.1212
  484TIP3    H122943   5.274   1.782  14.555  0.0219  0.0428  1.0794
  484TIP3    H222944   5.207   1.876  14.457  0.5951 -1.0542 -0.4031
  485TIP3   OH222945   0.509   3.617   4.120  0.2845  0.3676  0.8701
  485TIP3    H122946   0.447   3.687   4.097  1.9692  1.9518  0.9683
  485TIP3    H222947   0.463   3.536   4.097 -0.3033  1.5711 -2.9289
  486TIP3   OH222948   0.786   2.274  14.627  0.2021 -0.2568  0.0959
  486TIP3    H122949   0.735   2.353  14.610  0.8161 -0.0706 -0.9695
  486TIP3    H222950   0.863   2.282  14.571  0.6089 -1.2951  0.4741
  487TIP3   OH222951   3.379   3.870  15.190  0.1664 -0.3101 -0.2137
  487TIP3    H122952   3.380   3.900  15.281  0.6417  0.4723 -0.4629
  487TIP3    H222953   3.287   3.881  15.162  0.1925  0.2904 -0.0875
  488TIP3   OH222954   6.050   4.349   1.117  0.3480 -0.6682 -0.2665
  488TIP3    H122955   6.030   4.411   1.047 -0.7375  0.1687  0.7327
  488TIP3    H222956   6.144   4.357   1.130  0.1767  1.1856  0.1693
  489TIP3   OH222957   4.290   4.615   2.496  0.2538  0.3659 -0.0326
  489TIP3    H122958   4.263   4.616   2.404 -0.1853  0.4714  0.0931
  489TIP3    H222959   4.347   4.692   2.505  1.2301 -0.2830 -0.4815
  490TIP3   OH222960   5.055   6.276  12.357  0.6427 -0.4247 -0.1978
  490TIP3    H122961   5.118   6.285  12.429 -0.8552  0.6019  1.0326
  490TIP3    H222962   4.973   6.254  12.400 -0.2149 -0.1227 -1.6443
  491TIP3   OH222963   5.418   4.753  12.642  0.1526 -0.1970  0.2146
  491TIP3    H122964   5.469   4.828  12.672 -0.5161  0.6526 -0.6553
  491TIP3    H222965   5.361   4.731  12.716 -0.0291  0.5242  0.3023
  492TIP3   OH222966   3.980   1.585   3.305 -0.0192  0.1997 -0.6428
  492TIP3    H122967   3.890   1.583   3.338 -0.3514  0.4875 -1.5139
  492TIP3    H222968   3.971   1.584   3.210  0.9144 -0.2377 -0.7387
  493TIP3   OH222969   3.652   1.789   2.680  0.1219  0.2435 -0.3151
  493TIP3    H122970   3.685   1.774   2.768  0.7431 -0.7708 -0.6876
  493TIP3    H222971   3.557   1.784   2.688  0.1648  0.4861  0.3472
  494TIP3   OH222972   3.740   4.956   0.654  0.9039 -0.0926  0.4635
  494TIP3    H122973   3.669   4.894   0.674  0.1371  0.8950  0.8759
  494TIP3    H222974   3.716   4.993   0.569  0.6788  0.5652  0.8046
  495TIP3   OH222975   0.670   0.840  13.681 -0.1614  0.3122 -0.4402
  495TIP3    H122976   0.662   0.926  13.723 -0.5594  0.7312 -1.3330
  495TIP3    H222977   0.585   0.798  13.696 -0.4540  0.6282 -1.1506
  496TIP3   OH222978   6.371   1.866   3.370 -0.6900  0.4408  0.1612
  496TIP3    H122979   6.306   1.803   3.341  0.0714 -0.1061 -0.4021
  496TIP3    H222980   6.446   1.853   3.311  1.2969 -1.3357  2.8570
  497TIP3   OH222981   0.995   2.857   3.186 -0.4255 -0.5959  0.3812
  497TIP3    H122982   0.945   2.800   3.127 -1.3543 -0.2208  0.7944
  497TIP3    H222983   1.087   2.835   3.169 -0.4572  1.2994 -3.1103
  498TIP3   OH222984   2.650   5.671   5.035 -0.2717 -0.2282  0.0751
  498TIP3    H122985   2.702   5.665   5.115 -0.5205  0.8045  0.3360
  498TIP3    H222986   2.559   5.660   5.064 -0.6823  3.1824  0.4769
  499TIP3   OH222987   5.989   1.166   5.161  0.7079  0.3594 -0.0250
  499TIP3    H122988   5.929   1.137   5.229  0.1497  0.0292 -0.6432
  499TIP3    H222989   5.998   1.261   5.175 -3.3340  1.3267 -2.4160
  500TIP3   OH222990   5.554   2.908   0.616 -0.0212  0.0185 -0.0590
  500TIP3    H122991   5.549   2.977   0.683  0.0167  0.1708 -0.2128
  500TIP3    H222992   5.464   2.897   0.587 -0.3314 -1.3083  1.2851
  501TIP3   OH222993   0.385   2.369  15.651  0.0024  0.3249  0.0545
  501TIP3    H122994   0.399   2.442  15.592 -1.5633  0.1270 -0.5897
  501TIP3    H222995   0.318   2.399  15.713  2.2534  0.8822  2.4126
  502TIP3   OH222996   2.210   1.559  15.377  0.1735 -0.2227 -0.3520
  502TIP3    H122997   2.139   1.580  15.317 -1.2570  0.5855  1.5072
  502TIP3    H222998   2.278   1.624  15.358 -1.3574  1.7724  0.6352
  503TIP3   OH222999   3.430   0.935  12.486 -0.1969  0.4275 -0.3218
  503TIP3    H123000   3.384   0.961  12.405  1.8168  1.4939 -1.1921
  503TIP3    H223001   3.475   0.854  12.462 -0.7554 -0.0516  0.2121
  504TIP3   OH223002   5.785   4.819   6.004  0.3114  0.1878  0.3438
  504TIP3    H123003   5.753   4.803   6.092 -1.1664 -1.0041 -0.3481
  504TIP3    H223004   5.880   4.818   6.012  0.2077  1.0335  2.0526
  505TIP3   OH223005   0.354   4.692   3.723 -0.1916  0.6675  0.4136
  505TIP3    H123006   0.427   4.698   3.784  0.3801 -0.4218 -0.1428
  505TIP3    H223007   0.276   4.703   3.778  0.2479 -1.6537  1.6107
  506TIP3   OH223008   6.558   2.955   6.574 -0.9207  0.0518  0.6326
  506TIP3    H123009   6.585   2.925   6.487  0.8326  1.0884  0.7581
  506TIP3    H223010   6.530   3.046   6.560 -0.1428  0.3946  1.2010
  507TIP3   OH223011   3.051   5.932  13.174  0.1329  0.1085 -0.2785
  507TIP3    H123012   2.958   5.930  13.198  0.5608  2.5332  2.0036
  507TIP3    H223013   3.094   5.880  13.241  0.6133  0.7004 -0.1229
  508TIP3   OH223014   3.055   1.878   0.955 -0.1454  0.0456 -0.0050
  508TIP3    H123015   3.119   1.948   0.943 -0.1993  0.0088 -0.5243
  508TIP3    H223016   2.976   1.924   0.983  0.1583  0.0713  0.8294
  509TIP3   OH223017   0.125   3.974   0.088 -0.5761 -0.3799 -0.8264
  509TIP3    H123018   0.129   4.049   0.148 -1.0240 -0.7327 -0.3512
  509TIP3    H223019   0.042   3.985   0.043 -0.4976 -0.4229 -0.9816
  510TIP3   OH223020   1.787   3.979   0.469  0.3093 -0.1567  0.4425
  510TIP3    H123021   1.831   3.904   0.508 -0.4732 -1.0401 -0.3122
  510TIP3    H223022   1.768   4.037   0.542 -1.4357 -1.9215  1.4991
  511TIP3   OH223023   4.171   1.355   1.806 -0.0302 -0.2568 -0.2007
  511TIP3    H123024   4.077   1.342   1.814  0.2972 -3.1598 -0.0113
  511TIP3    H223025   4.189   1.433   1.859 -2.1631 -0.2669  0.6403
  512TIP3   OH223026   4.384   0.289   4.410 -0.4226  0.2286  0.5187
  512TIP3    H123027   4.469   0.277   4.453  0.1322  1.1073 -0.3038
  512TIP3    H223028   4.375   0.211   4.355 -0.4702 -0.1981  1.1221
  513TIP3   OH223029   1.275   1.889  15.925  0.5723 -0.0335  0.1606
  513TIP3    H123030   1.185   1.862  15.947 -0.0656  1.7461 -0.0976
  513TIP3    H223031   1.330   1.823  15.966 -0.7709  0.1011  2.3666
  514TIP3   OH223032   2.009   0.967  12.406  0.5708 -0.1525 -0.6242
  514TIP3    H123033   1.956   1.010  12.339 -1.7332  0.1724  1.2902
  514TIP3    H223034   2.040   0.887  12.364 -1.9026 -0.6356 -1.6860
  515TIP3   OH223035   3.435   6.054  12.026  0.1613 -0.2868 -0.5705
  515TIP3    H123036   3.360   6.041  11.967 -0.2641 -0.3254 -0.0263
  515TIP3    H223037   3.401   6.109  12.096  1.1967  1.5107 -1.3891
  516TIP3   OH223038   2.715   1.925   2.494  0.6930  0.5641  0.7062
  516TIP3    H123039   2.773   1.859   2.531  0.8743  0.5743  0.4412
  516TIP3    H223040   2.734   1.925   2.401  0.2256  0.5242  0.6057
  517TIP3   OH223041   4.384   6.664   1.002  0.5522  0.6147  0.4594
  517TIP3    H123042   4.362   6.633   1.090  3.1249 -1.8122  0.3604
  517TIP3    H223043   4.474   6.695   1.009  0.7210  0.5925 -1.2728
  518TIP3   OH223044   4.225   4.801   6.143  0.1767 -0.3050 -0.3460
  518TIP3    H123045   4.156   4.780   6.206  0.3870  0.1909  0.0643
  518TIP3    H223046   4.306   4.793   6.194  0.3541  0.0126 -0.5770
  519TIP3   OH223047   1.561   1.780   2.426 -0.3734 -0.1462  0.1237
  519TIP3    H123048   1.526   1.869   2.430  0.5520  0.2832 -0.7002
  519TIP3    H223049   1.588   1.770   2.335  0.5292 -0.8724  0.4610
  520TIP3   OH223050   5.322   0.190   4.539 -0.0728 -0.2914 -0.0139
  520TIP3    H123051   5.352   0.196   4.448  0.0785  1.7065  0.1178
  520TIP3    H223052   5.356   0.269   4.581 -1.4205 -0.4054  1.3980
  521TIP3   OH223053   3.858   0.885   1.436  0.0722  0.2457  0.0286
  521TIP3    H123054   3.825   0.914   1.350  3.8158 -0.4174 -1.8049
  521TIP3    H223055   3.948   0.916   1.439 -0.5044  2.2262  4.8329
  522TIP3   OH223056   5.824   1.394  16.164 -0.1249  0.0335 -0.1482
  522TIP3    H123057   5.734   1.425  16.168 -0.2155 -0.0965 -0.9506
  522TIP3    H223058   5.864   1.423  16.246 -0.5926  1.0241 -0.2629
  523TIP3   OH223059   3.592   5.944  15.032  0.2653  0.1755  0.5431
  523TIP3    H123060   3.566   5.936  15.124 -1.9132  3.1501  0.3111
  523TIP3    H223061   3.516   5.915  14.983  1.6738 -2.1159 -0.4639
  524TIP3   OH223062   4.191   4.804  11.976  0.6994 -0.7058 -0.5312
  524TIP3    H123063   4.266   4.846  11.935 -1.3731  1.2694 -2.5952
  524TIP3    H223064   4.185   4.719  11.933  1.8515 -0.9925 -0.1592
  525TIP3   OH223065   5.669   0.600  14.987  0.0636  0.2184  0.4935
  525TIP3    H123066   5.581   0.632  15.008 -1.5225 -2.9565 -0.6560
  525TIP3    H223067   5.690   0.643  14.904 -1.1419 -0.1936 -0.0559
  526TIP3   OH223068   3.950   1.633  11.118 -0.2262  0.2346  0.3386
  526TIP3    H123069   3.934   1.598  11.206  0.0692 -2.4553 -0.5770
  526TIP3    H223070   4.040   1.607  11.098 -0.9254 -1.0234 -1.4757
  527TIP3   OH223071   0.352   6.742  12.484 -0.2212 -0.0171 -0.1102
  527TIP3    H123072   0.420   6.727  12.550 -1.7161 -1.7734  1.1477
  527TIP3    H223073   0.339   6.656  12.443  0.5016  0.9870 -2.6080
  528TIP3   OH223074   6.633   5.843   3.543  0.2986  0.2170 -0.0194
  528TIP3    H123075   6.727   5.857   3.529  0.8037 -1.7259  1.1337
  528TIP3    H223076   6.624   5.833   3.638 -0.5043 -2.8858 -0.3206
  529TIP3   OH223077   5.407   3.384  12.902  0.0436 -0.3329  0.0028
  529TIP3    H123078   5.426   3.329  12.826 -0.4192 -0.9485  0.3213
  529TIP3    H223079   5.446   3.469  12.880 -0.0061 -0.5230 -0.8810
  530TIP3   OH223080   6.086   4.184  11.776 -0.2730 -0.3944 -0.0938
  530TIP3    H123081   6.008   4.137  11.807 -0.3618  0.1413  0.5263
  530TIP3    H223082   6.096   4.257  11.838  0.4976 -0.2352 -0.3951
  531TIP3   OH223083   2.812   1.701   3.404 -0.3340  0.3043 -0.0045
  531TIP3    H123084   2.753   1.656   3.344 -1.0872  0.3560  0.6741
  531TIP3    H223085   2.759   1.772   3.440  0.9225  2.0399 -1.3449
  532TIP3   OH223086   0.070   5.667   4.564 -0.0117 -0.1535  0.4509
  532TIP3    H123087   0.071   5.654   4.658  0.9218 -1.0308  0.3321
  532TIP3    H223088   0.005   5.736   4.550  0.8051  0.9312  1.8444
  533TIP3   OH223089   5.383   1.583  14.249 -0.3782  0.5256 -0.0393
  533TIP3    H123090   5.341   1.579  14.163  0.4413 -1.8088 -0.4135
  533TIP3    H223091   5.323   1.536  14.307  0.2821 -0.1898  0.0776
  534TIP3   OH223092   6.156   0.482  13.684 -0.1738 -0.1349 -0.2702
  534TIP3    H123093   6.170   0.570  13.720  0.0149  0.0259 -0.7285
  534TIP3    H223094   6.244   0.443  13.681 -0.0716  0.1534 -1.3140
  535TIP3   OH223095   5.966   4.622  16.668  0.1382 -0.2911 -0.0577
  535TIP3    H123096   5.909   4.670  16.607  0.1794  2.2249  1.7496
  535TIP3    H223097   6.049   4.613  16.621 -0.2531  0.3290 -0.9012
  536TIP3   OH223098   0.721   4.033   5.698 -0.4502  0.5228 -0.6466
  536TIP3    H123099   0.657   3.967   5.724  0.9036 -0.8571 -0.7258
  536TIP3    H223100   0.668   4.108   5.670 -1.9947  0.2610  1.3991
  537TIP3   OH223101   3.521   3.430  13.744  0.1129  0.2211  0.4070
  537TIP3    H123102   3.492   3.390  13.826 -0.5401 -0.4289 -0.1296
  537TIP3    H223103   3.491   3.370  13.676  2.5316 -0.3694 -0.2325
  538TIP3   OH223104   2.698   3.284  12.663  0.2116 -0.4188 -0.2752
  538TIP3    H123105   2.685   3.374  12.633  0.5598 -1.0372 -2.4807
  538TIP3    H223106   2.791   3.278  12.682 -0.0401  0.0262  1.2784
  539TIP3   OH223107   4.760   3.601   0.894  0.5220  0.6879  0.0113
  539TIP3    H123108   4.763   3.508   0.871 -3.3973  0.6530 -1.0500
  539TIP3    H223109   4.834   3.640   0.848 -0.9670 -1.0858 -4.3864
  540TIP3   OH223110   0.842   3.082   1.464  1.1263  0.7477  0.4054
  540TIP3    H123111   0.811   3.073   1.554 -0.3458  0.5451 -0.0847
  540TIP3    H223112   0.830   3.174   1.444  0.1414  0.5485 -0.0007
  541TIP3   OH223113   1.595   0.463  16.293  0.2767  0.0400  0.3481
  541TIP3    H123114   1.555   0.528  16.351  0.4816  0.7477 -0.2761
  541TIP3    H223115   1.587   0.502  16.205  2.4173  0.2605  0.2043
  542TIP3   OH223116   2.193   6.638   3.884  0.5572  0.3164 -0.7071
  542TIP3    H123117   2.226   6.725   3.864 -1.6851  1.1967 -0.8870
  542TIP3    H223118   2.173   6.599   3.799 -0.2285  0.3972 -0.5679
  543TIP3   OH223119   5.721   6.186  13.997 -0.4293  0.0327 -0.4676
  543TIP3    H123120   5.753   6.218  14.081  0.5616 -0.7251 -0.5378
  543TIP3    H223121   5.800   6.160  13.949 -1.1104 -2.0293 -0.5938
  544TIP3   OH223122   6.533   4.914  13.820  0.7195  0.1345 -0.0018
  544TIP3    H123123   6.510   5.006  13.806  1.0024  0.8165  3.3717
  544TIP3    H223124   6.545   4.905  13.914  1.5325 -3.2104 -0.2776
  545TIP3   OH223125   6.107   4.989  12.367 -0.3083  0.3807  0.1291
  545TIP3    H123126   6.031   4.938  12.396  0.2378  0.5462  2.0159
  545TIP3    H223127   6.179   4.959  12.423  0.5858  1.5293 -0.3620
  546TIP3   OH223128   6.181   0.247   5.854  0.4460  0.6557  0.1749
  546TIP3    H123129   6.223   0.162   5.864  1.5022  1.2325  0.7338
  546TIP3    H223130   6.175   0.259   5.759 -1.7784 -1.0119  0.0271
  547TIP3   OH223131   4.388   1.676   4.864  0.1748 -0.6065  0.3624
  547TIP3    H123132   4.305   1.705   4.827 -1.0590 -2.1129  1.8158
  547TIP3    H223133   4.373   1.673   4.959  1.1432 -3.0616  0.5080
  548TIP3   OH223134   3.889   5.142  14.311  0.7210  0.1443  0.3286
  548TIP3    H123135   3.914   5.057  14.346  2.0131 -0.4779 -1.9180
  548TIP3    H223136   3.830   5.122  14.239 -0.2454  1.2632  0.7805
  549TIP3   OH223137   2.022   6.592   2.912  0.1230 -0.1970  0.9559
  549TIP3    H123138   1.954   6.526   2.921 -0.0001 -0.2192  0.0072
  549TIP3    H223139   2.092   6.548   2.862 -0.5406  0.7653 -0.9209
  550TIP3   OH223140   5.307   3.507  13.461  0.4656  0.3014  0.3233
  550TIP3    H123141   5.357   3.428  13.443 -1.2332 -0.7597  0.0677
  550TIP3    H223142   5.239   3.480  13.523 -1.4175  0.9999 -1.3089
  551TIP3   OH223143   0.874   0.583  14.064 -0.1886 -0.8163 -0.0522
  551TIP3    H123144   0.905   0.631  13.988  0.6861 -0.2226  0.6556
  551TIP3    H223145   0.824   0.647  14.115  0.5771 -0.7678  0.6593
  552TIP3   OH223146   2.215   5.132   5.853  0.8878 -0.0841  0.2890
  552TIP3    H123147   2.274   5.074   5.901  0.4736 -0.7665 -0.0215
  552TIP3    H223148   2.128   5.113   5.888  0.7482  0.3570  0.1902
  553TIP3   OH223149   0.241   1.199  15.831  0.1932  0.4016  0.0722
  553TIP3    H123150   0.302   1.196  15.757  1.5644 -2.6378  1.1351
  553TIP3    H223151   0.171   1.139  15.806  1.0790 -1.3049  1.4441
  554TIP3   OH223152   5.385   6.044  16.821  0.7188 -0.5239 -0.1448
  554TIP3    H123153   5.439   6.062  16.744  1.3264 -1.4283  0.0431
  554TIP3    H223154   5.427   5.968  16.862 -0.7118 -1.2830  0.0001
  555TIP3   OH223155   2.832   3.955  13.554  0.0850  0.0425  0.0219
  555TIP3    H123156   2.842   3.872  13.601  1.0341  0.6181  0.8476
  555TIP3    H223157   2.742   3.982  13.573  0.3736  0.1470  1.3119
  556TIP3   OH223158   1.391   3.570  11.234  0.0897  0.7930  0.1935
  556TIP3    H123159   1.363   3.544  11.146 -0.3945 -0.0139  0.5722
  556TIP3    H223160   1.486   3.560  11.233 -0.0162 -0.3191  0.0928
  557TIP3   OH223161   6.081   3.218  13.557  0.1793  0.0965  0.9267
  557TIP3    H123162   6.111   3.279  13.490 -0.3102 -0.2076  0.4288
  557TIP3    H223163   6.135   3.140  13.544 -1.2995 -0.7508 -0.4797
  558TIP3   OH223164   6.470   3.177   2.956 -0.0264 -0.0504  0.2464
  558TIP3    H123165   6.438   3.237   2.889  0.7959 -0.6148 -0.6707
  558TIP3    H223166   6.543   3.223   2.998  0.7049 -0.4489 -0.5615
  559TIP3   OH223167   1.493   5.263  15.601 -0.3328 -0.2872  0.2796
  559TIP3    H123168   1.420   5.208  15.629 -0.8308  0.5681  0.6930
  559TIP3    H223169   1.549   5.269  15.678 -1.4714  1.6882  1.0241
  560TIP3   OH223170   3.613   5.328   5.534 -0.2971  0.4714  0.1548
  560TIP3    H123171   3.598   5.411   5.580 -2.3043 -0.9992  2.3892
  560TIP3    H223172   3.665   5.276   5.595 -0.2394 -0.4217 -0.6390
  561TIP3   OH223173   0.446   6.103  16.691 -0.3646  0.1321  0.1242
  561TIP3    H123174   0.443   6.063  16.604  1.6149 -0.6088  0.3404
  561TIP3    H223175   0.479   6.191  16.675 -0.8936  0.3199  0.0466
  562TIP3   OH223176   2.209   2.638   5.856 -0.6741 -0.3385  0.7547
  562TIP3    H123177   2.264   2.605   5.927 -0.9419  0.2354  1.2390
  562TIP3    H223178   2.165   2.715   5.893  0.6107  1.1252 -0.6142
  563TIP3   OH223179   5.492   6.239   3.083 -0.0819  0.2086  0.0210
  563TIP3    H123180   5.514   6.226   2.991  1.4309 -1.4764  0.5686
  563TIP3    H223181   5.577   6.236   3.128 -0.9838 -1.4638  1.7261
  564TIP3   OH223182   3.311   3.227   0.386 -0.4460  0.4515  0.8060
  564TIP3    H123183   3.327   3.229   0.481  2.0807  2.6796  0.4724
  564TIP3    H223184   3.382   3.173   0.352 -0.5983  0.7063  0.0812
  565TIP3   OH223185   6.000   1.451  15.040 -0.1493  0.4027 -0.5150
  565TIP3    H123186   5.944   1.502  14.981  0.0444  0.8514 -0.3142
  565TIP3    H223187   5.964   1.467  15.127 -0.1237  0.1443 -0.4550
  566TIP3   OH223188   4.749   1.906  15.792 -0.0716  0.8986  0.2011
  566TIP3    H123189   4.679   1.898  15.728  0.0417 -0.0452  0.1797
  566TIP3    H223190   4.704   1.901  15.877 -0.1964  1.9293  0.2136
  567TIP3   OH223191   3.675   2.755  16.327 -0.3612  0.2213  0.6392
  567TIP3    H123192   3.741   2.741  16.259 -0.1643 -3.6987  1.4296
  567TIP3    H223193   3.598   2.786  16.279 -0.1568 -2.1701 -1.4680
  568TIP3   OH223194   2.811   1.105  10.768 -0.4132  0.2704 -0.2832
  568TIP3    H123195   2.879   1.051  10.727 -0.1661  0.8301 -0.6162
  568TIP3    H223196   2.749   1.041  10.805  0.0288 -0.2407 -0.4107
  569TIP3   OH223197   0.860   5.700   1.840 -0.1333 -0.0087 -0.1447
  569TIP3    H123198   0.888   5.712   1.749 -1.9089  1.3818 -0.5440
  569TIP3    H223199   0.923   5.752   1.891 -1.3402  2.3646 -0.9472
  570TIP3   OH223200   0.148   5.490   1.235  0.5125 -0.4760 -0.0993
  570TIP3    H123201   0.223   5.438   1.263  0.3086 -0.2690  0.8571
  570TIP3    H223202   0.083   5.480   1.305  0.0065  0.0917 -0.4694
  571TIP3   OH223203   5.755   3.829   1.996  0.5255  0.3785 -0.0752
  571TIP3    H123204   5.752   3.915   2.039 -1.4517  1.8758 -2.8861
  571TIP3    H223205   5.684   3.780   2.037 -0.7172  1.4461 -0.8735
  572TIP3   OH223206   2.890   1.641  13.787 -0.3883  0.0478 -0.9044
  572TIP3    H123207   2.974   1.612  13.752  0.5503  1.5246  0.0004
  572TIP3    H223208   2.878   1.588  13.866 -0.4378 -0.3425 -1.1722
  573TIP3   OH223209   3.726   0.873   3.110 -0.0565  0.2591 -0.0225
  573TIP3    H123210   3.720   0.837   3.198  0.5243 -2.5680 -1.0341
  573TIP3    H223211   3.809   0.919   3.108 -0.2155  0.6144  0.9694
  574TIP3   OH223212   4.539   4.147  15.945 -0.2597 -0.1110 -0.3942
  574TIP3    H123213   4.553   4.052  15.948  1.6023  0.0409 -1.9016
  574TIP3    H223214   4.450   4.159  15.977  0.1039 -2.1692  1.7227
  575TIP3   OH223215   4.577   3.158  16.173  0.1654  0.3326 -0.0907
  575TIP3    H123216   4.623   3.205  16.242  0.8187 -0.7321  0.2251
  575TIP3    H223217   4.504   3.115  16.217 -0.1334  0.6330 -0.2876
  576TIP3   OH223218   0.296   1.125   5.165  0.3727  0.2946 -0.7561
  576TIP3    H123219   0.382   1.151   5.134 -0.1540 -0.2534 -2.8728
  576TIP3    H223220   0.249   1.100   5.085 -1.5617  0.0657  0.3988
  577TIP3   OH223221   5.759   0.573   0.940 -0.4716 -0.4482  0.0319
  577TIP3    H123222   5.845   0.589   0.978  0.2964  1.8398 -2.3411
  577TIP3    H223223   5.712   0.656   0.951 -1.4350 -0.8395 -0.9475
  578TIP3   OH223224   0.757   2.428  17.032  0.5289  0.1103  0.1681
  578TIP3    H123225   0.832   2.486  17.045  0.0469  0.5947  0.8670
  578TIP3    H223226   0.753   2.414  16.937  1.8767 -0.4421  0.1756
  579TIP3   OH223227   1.958   4.315  15.996  0.6827  0.3221 -0.1679
  579TIP3    H123228   2.009   4.388  16.032 -1.9461  2.2686 -0.0384
  579TIP3    H223229   1.999   4.296  15.912  1.0312  2.5639 -0.5807
  580TIP3   OH223230   4.940   3.725   0.716 -0.3910  0.2094  0.5970
  580TIP3    H123231   5.018   3.779   0.702 -0.2261 -0.3061 -0.6674
  580TIP3    H223232   4.943   3.662   0.644 -2.1041  0.3349  0.3955
  581TIP3   OH223233   1.110   0.088  15.763 -0.6174  0.1143 -1.0179
  581TIP3    H123234   1.175   0.156  15.745 -0.0600 -0.2233 -0.3161
  581TIP3    H223235   1.113   0.076  15.858  0.0078 -1.5785 -1.2136
  582TIP3   OH223236   2.158   4.962   5.460 -0.3153  0.1260  0.4252
  582TIP3    H123237   2.077   4.921   5.431  0.2577  0.0831 -1.1721
  582TIP3    H223238   2.132   5.051   5.485 -0.3644  1.3521 -3.4532
  583TIP3   OH223239   5.612   4.798  16.969 -0.3178 -0.0179  0.7071
  583TIP3    H123240   5.667   4.875  16.960 -0.9784  0.4190  0.3672
  583TIP3    H223241   5.561   4.794  16.887 -0.0218 -1.0266  0.5500
  584TIP3   OH223242   0.479   5.110   4.962  0.1142 -0.2910 -0.4804
  584TIP3    H123243   0.422   5.145   4.894  0.7786 -0.3546 -1.0785
  584TIP3    H223244   0.560   5.088   4.917  0.0353 -1.7712  0.0386
  585TIP3   OH223245   0.924   1.318  12.073  0.1433  0.3975  0.0304
  585TIP3    H123246   0.985   1.373  12.026  1.3348  0.3793  1.4685
  585TIP3    H223247   0.845   1.372  12.084  0.3235  0.8427 -0.8221
  586TIP3   OH223248   0.281   0.091   6.057  0.1820  0.2219 -0.5284
  586TIP3    H123249   0.274   0.006   6.013  1.8605  0.1233 -0.6671
  586TIP3    H223250   0.374   0.103   6.072  0.0979  2.4925 -1.3982
  587TIP3   OH223251   5.875   0.555  13.892  0.3656 -0.1105  0.2269
  587TIP3    H123252   5.824   0.635  13.906  1.3574  0.5820  0.0172
  587TIP3    H223253   5.813   0.494  13.851 -0.7142  0.1461  1.4235
  588TIP3   OH223254   6.240   4.467  11.247  0.3961 -0.2997 -0.5237
  588TIP3    H123255   6.152   4.503  11.248 -0.5344 -2.4237 -0.6649
  588TIP3    H223256   6.248   4.425  11.161  0.6867 -2.0475  0.3168
  589TIP3   OH223257   4.815   5.064  15.413 -0.5243  0.1129  0.0971
  589TIP3    H123258   4.834   5.106  15.329  0.7830 -0.9789 -0.1848
  589TIP3    H223259   4.881   5.099  15.473 -0.8999  0.2189  0.4535
  590TIP3   OH223260   5.573   4.450  15.652  0.5620 -0.6000  0.0063
  590TIP3    H123261   5.573   4.407  15.567 -1.1993  0.9242 -0.8541
  590TIP3    H223262   5.645   4.513  15.647 -1.3973  1.7263 -1.7169
  591TIP3   OH223263   3.689   6.779  14.227 -0.0625 -0.2290 -0.4568
  591TIP3    H123264   3.616   6.830  14.264 -0.0199  2.4007 -3.4710
  591TIP3    H223265   3.757   6.782  14.294 -1.3083  0.7858  0.8349
  592TIP3   OH223266   3.628   1.743   3.933 -0.3863 -0.2593 -0.9835
  592TIP3    H123267   3.609   1.733   4.027 -2.1483 -0.1131 -1.2809
  592TIP3    H223268   3.721   1.723   3.925  0.2137  1.3783  1.0394
  593TIP3   OH223269   6.487   5.418   3.754  0.0783 -0.2157 -0.6627
  593TIP3    H123270   6.506   5.476   3.680  3.5957 -1.8182 -1.2687
  593TIP3    H223271   6.489   5.475   3.831  0.0183  0.9490 -1.4945
  594TIP3   OH223272   1.207   3.821   2.342  0.2856  0.5710  0.2594
  594TIP3    H123273   1.228   3.763   2.416  0.0878  0.8530  0.5433
  594TIP3    H223274   1.292   3.848   2.308  0.3979  1.1815  0.9835
  595TIP3   OH223275   6.310   4.056  13.469  0.3454 -0.1053  0.1973
  595TIP3    H123276   6.327   3.992  13.538  1.9235 -0.4491 -0.4560
  595TIP3    H223277   6.362   4.133  13.494 -1.0028  0.6919  0.6270
  596TIP3   OH223278   0.143   4.834  13.183  0.0691 -0.0441  0.3408
  596TIP3    H123279   0.057   4.792  13.182  1.0921 -2.2945 -0.6408
  596TIP3    H223280   0.163   4.850  13.091  0.7163  0.3736  0.5461
  597TIP3   OH223281   0.178   0.207   4.982  0.1017  0.4529  0.2663
  597TIP3    H123282   0.251   0.266   5.001  1.8236 -1.0353 -1.3559
  597TIP3    H223283   0.122   0.256   4.923  0.5531  1.1034  0.3640
  598TIP3   OH223284   5.358   6.162   5.535 -0.4031 -0.3781 -0.5265
  598TIP3    H123285   5.266   6.136   5.532 -0.4259 -0.2285 -1.9469
  598TIP3    H223286   5.360   6.239   5.591 -0.9571 -1.0674  0.4567
  599TIP3   OH223287   5.311   0.834  12.803 -0.9253  0.0738 -0.1359
  599TIP3    H123288   5.236   0.857  12.859 -0.8067  0.3313 -0.0802
  599TIP3    H223289   5.308   0.739  12.797 -0.7374  0.0159  0.5986
  600TIP3   OH223290   2.190   3.101   4.027  0.1988 -0.8846 -0.0200
  600TIP3    H123291   2.192   3.049   4.107  0.7726  1.3473  1.4937
  600TIP3    H223292   2.242   3.179   4.047 -0.3217  0.1414 -2.3003
  601TIP3   OH223293   3.863   2.115  14.179 -0.3343 -0.4861 -0.0302
  601TIP3    H123294   3.891   2.026  14.159 -0.4841 -0.7690  0.9290
  601TIP3    H223295   3.768   2.113  14.172 -0.4891 -0.8857  1.6785
  602TIP3   OH223296   4.625   3.658   0.568 -0.2127 -0.0220 -0.5906
  602TIP3    H123297   4.657   3.688   0.483  0.7980 -1.2231 -0.6619
  602TIP3    H223298   4.696   3.604   0.603 -0.5848  0.5212  1.0636
  603TIP3   OH223299   2.921   3.326  13.421  0.1222  0.0123  0.5309
  603TIP3    H123300   2.873   3.369  13.492 -2.1595  1.1802 -1.5578
  603TIP3    H223301   2.901   3.233  13.431 -2.2415  0.4039  0.0852
  604TIP3   OH223302   4.413   0.788  15.137 -0.5549  0.4078  0.2593
  604TIP3    H123303   4.431   0.813  15.046  0.6706 -0.8635  0.1049
  604TIP3    H223304   4.358   0.858  15.171  1.0272  2.2215 -0.7158
  605TIP3   OH223305   3.866   3.915  13.997 -0.0378 -0.4648 -0.1408
  605TIP3    H123306   3.823   3.915  13.911 -0.5912  0.5224  0.1193
  605TIP3    H223307   3.816   3.851  14.048 -0.5707 -0.0507 -0.1406
  606TIP3   OH223308   4.422   0.635  13.970 -0.3148  0.3164 -0.1159
  606TIP3    H123309   4.461   0.685  13.899  2.7136 -2.9492 -1.0480
  606TIP3    H223310   4.380   0.560  13.927  1.1968 -1.5079  1.3955
  607TIP3   OH223311   2.796   5.962  16.634 -0.0018  0.9150 -0.7969
  607TIP3    H123312   2.844   6.035  16.594 -0.3583  0.6089 -1.8033
  607TIP3    H223313   2.850   5.937  16.710  0.3811  1.8926 -0.7232
  608TIP3   OH223314   3.511   5.720   3.094  0.5624 -0.3145  0.6699
  608TIP3    H123315   3.469   5.662   3.030 -1.9816  1.7456  0.3068
  608TIP3    H223316   3.491   5.681   3.179 -1.0639 -0.0803  0.4263
  609TIP3   OH223317   0.857   1.673  14.364 -0.2297 -0.3537 -0.7222
  609TIP3    H123318   0.785   1.613  14.346  0.0673 -0.9590  0.0791
  609TIP3    H223319   0.819   1.739  14.422 -0.6862  0.5446 -1.9819
  610TIP3   OH223320   5.800   6.445  15.469 -0.2276  0.1554  0.3125
  610TIP3    H123321   5.741   6.488  15.407 -0.4539 -0.4625  0.0928
  610TIP3    H223322   5.795   6.353  15.446  0.5891  0.0649  0.4983
  611TIP3   OH223323   2.919   4.090   2.079  0.4513  0.0897 -0.3089
  611TIP3    H123324   2.825   4.091   2.057  0.9205 -0.5625 -2.6153
  611TIP3    H223325   2.961   4.140   2.009  1.7905  1.0459  1.1165
  612TIP3   OH223326   3.553   3.471   3.767  0.1237  0.1137  0.4353
  612TIP3    H123327   3.460   3.450   3.761  0.1666  0.1335 -0.3632
  612TIP3    H223328   3.588   3.451   3.680  0.2152  3.2806 -0.3692
  613TIP3   OH223329   0.819   0.330  10.946 -0.5242  0.4102  0.2128
  613TIP3    H123330   0.747   0.357  11.003 -0.4626  0.2262  0.3768
  613TIP3    H223331   0.778   0.269  10.884 -0.3155 -0.4959  0.9344
  614TIP3   OH223332   0.453   4.679   0.434 -0.0212  0.4259 -0.5540
  614TIP3    H123333   0.482   4.762   0.471  3.3429  0.0573 -2.0284
  614TIP3    H223334   0.520   4.656   0.370 -0.5971 -3.6218  0.0375
  615TIP3   OH223335   0.928   1.214   1.661 -0.2721 -0.2716 -0.3045
  615TIP3    H123336   1.011   1.182   1.626  0.9891  0.3968  1.8657
  615TIP3    H223337   0.899   1.144   1.719 -0.4826  0.0793  0.0200
  616TIP3   OH223338   6.137   2.316  13.227 -0.1851  0.0685  0.6363
  616TIP3    H123339   6.162   2.375  13.298 -2.0406 -0.1481  1.5201
  616TIP3    H223340   6.142   2.229  13.266  1.9571 -0.3677 -0.4909
  617TIP3   OH223341   4.664   6.368   5.788 -0.1373  0.0498  0.4304
  617TIP3    H123342   4.629   6.366   5.877 -0.8227 -0.8856  0.1545
  617TIP3    H223343   4.678   6.461   5.769  0.0170  0.2532  1.5084
  618TIP3   OH223344   1.461   5.096  14.601 -0.9560  0.2023 -0.7079
  618TIP3    H123345   1.453   5.029  14.669 -1.1572  0.8963 -0.0402
  618TIP3    H223346   1.403   5.065  14.530  0.5312 -1.3803 -1.3066
  619TIP3   OH223347   1.973   5.870  17.049 -0.6139  0.4090  0.3633
  619TIP3    H123348   1.908   5.925  17.092 -1.1159  1.1408 -1.2518
  619TIP3    H223349   1.935   5.782  17.049 -2.1750  1.0016 -1.5034
  620TIP3   OH223350   0.027   4.347  13.454 -0.0582 -0.0762  0.2433
  620TIP3    H123351   0.055   4.434  13.483 -2.0667  1.2155 -1.4204
  620TIP3    H223352   0.020   4.354  13.359 -1.1915 -1.7813  0.1496
  621TIP3   OH223353   5.249   6.178   3.677  0.4665 -0.4465  0.1526
  621TIP3    H123354   5.199   6.250   3.639  1.9156  0.8658  0.6200
  621TIP3    H223355   5.185   6.107   3.687 -1.1239  0.9020  0.0802
  622TIP3   OH223356   1.991   0.264  16.849  0.2420  0.4488  0.5345
  622TIP3    H123357   1.975   0.317  16.771  2.4930 -0.3734 -0.5897
  622TIP3    H223358   1.930   0.191  16.842  0.3973  0.4040 -0.4632
  623TIP3   OH223359   4.315   1.564   5.872 -0.1364 -0.1769 -0.0223
  623TIP3    H123360   4.315   1.570   5.967 -0.3545 -0.5145  0.0038
  623TIP3    H223361   4.245   1.623   5.844  1.8320  2.2392 -0.1682
  624TIP3   OH223362   5.985   6.328   0.922  0.3679  0.0188  0.8728
  624TIP3    H123363   6.038   6.382   0.980  2.5375  0.0054 -0.9382
  624TIP3    H223364   6.005   6.238   0.948  0.3973  0.0314  0.8943
  625TIP3   OH223365   5.065   2.748  13.897  0.2150  0.0570  0.3823
  625TIP3    H123366   5.087   2.664  13.936  0.1541  0.1784  0.6812
  625TIP3    H223367   4.977   2.768  13.930 -0.1057 -0.1379 -0.3231
  626TIP3   OH223368   0.140   5.282  16.804 -0.4027  0.0344  0.0200
  626TIP3    H123369   0.100   5.365  16.827 -2.4020 -0.6329 -0.7942
  626TIP3    H223370   0.201   5.303  16.733  0.2547  0.9886  0.8478
  627TIP3   OH223371   4.328   6.662   1.280  0.3645 -0.6667 -0.1452
  627TIP3    H123372   4.330   6.750   1.317  0.2794 -0.0100 -1.6387
  627TIP3    H223373   4.249   6.622   1.316  0.1588  0.0309  0.1780
  628TIP3   OH223374   0.346   5.618  14.053 -0.3682 -0.0815  0.5842
  628TIP3    H123375   0.391   5.599  14.135  2.6060  1.0963 -0.6433
  628TIP3    H223376   0.356   5.538  14.002 -1.9241 -0.6938  1.1856
  629TIP3   OH223377   2.612   3.827  11.222  0.3814  0.0312 -0.4869
  629TIP3    H123378   2.562   3.820  11.303  0.4938 -2.1690 -0.5400
  629TIP3    H223379   2.556   3.788  11.155 -0.0755  2.5994 -1.7191
  630TIP3   OH223380   6.647   1.760   1.050  0.7448 -0.6659 -0.1528
  630TIP3    H123381   6.637   1.665   1.055  0.1066 -0.6075 -0.2373
  630TIP3    H223382   6.570   1.789   1.001  1.0042 -0.1171 -0.2382
  631TIP3   OH223383   2.032   5.848   4.542  0.1153  0.6249  0.4662
  631TIP3    H123384   2.112   5.799   4.562 -0.7107 -1.0504 -0.0511
  631TIP3    H223385   1.971   5.825   4.612 -0.7446 -0.2615 -0.5302
  632TIP3   OH223386   1.259   4.727  16.615  0.0211  0.1044 -0.3797
  632TIP3    H123387   1.297   4.762  16.696  1.5853 -1.3630 -0.4165
  632TIP3    H223388   1.312   4.765  16.545  0.6901 -1.0098 -0.5061
  633TIP3   OH223389   1.914   0.003  11.263 -0.4738  0.0382 -0.5087
  633TIP3    H123390   1.894   0.074  11.201  1.2661 -0.2178 -1.4126
  633TIP3    H223391   1.932  -0.073  11.208 -0.9485 -0.7663  0.4078
  634TIP3   OH223392   0.834   4.132   1.176 -0.1451  0.0122 -0.3500
  634TIP3    H123393   0.832   4.152   1.269  1.1561  0.1413 -0.3294
  634TIP3    H223394   0.809   4.040   1.170  1.3290 -0.4562  0.3029
  635TIP3   OH223395   4.967   4.950  14.003  0.5976 -0.3675 -0.3327
  635TIP3    H123396   4.897   4.890  14.028  0.4472  0.2072  0.7177
  635TIP3    H223397   4.991   4.924  13.914 -1.6643  0.1001 -1.1333
  636TIP3   OH223398   5.474   2.089   4.277 -0.4888 -0.1045  0.1877
  636TIP3    H123399   5.535   2.016   4.268 -1.5588 -0.9353 -0.4809
  636TIP3    H223400   5.437   2.101   4.189 -1.5466  0.1617  0.6545
  637TIP3   OH223401   2.986   6.609   3.965  0.2070 -0.2190  0.6473
  637TIP3    H123402   2.934   6.555   3.906 -0.3370  2.1442 -1.1896
  637TIP3    H223403   3.074   6.573   3.960  0.1669 -0.0929 -1.6700
  638TIP3   OH223404   4.453   5.432   1.631 -0.7726 -0.5306 -0.5100
  638TIP3    H123405   4.379   5.492   1.626  0.6813  2.0454  3.4559
  638TIP3    H223406   4.527   5.481   1.594 -0.0353 -0.7749  0.5692
  639TIP3   OH223407   6.775   2.844  15.171 -0.2293 -0.2008 -0.5015
  639TIP3    H123408   6.725   2.909  15.219  0.9636  1.1985 -1.0485
  639TIP3    H223409   6.713   2.774  15.153 -1.2994  0.3189  0.9918
  640TIP3   OH223410   6.276   1.911   1.564  0.5674  0.4262  0.0906
  640TIP3    H123411   6.308   1.842   1.621 -2.7747 -1.3172  0.0457
  640TIP3    H223412   6.236   1.866   1.490  0.0591  2.4818 -0.9862
  641TIP3   OH223413   2.026   1.404   0.209 -0.0178 -0.4894  0.2901
  641TIP3    H123414   2.055   1.342   0.275 -0.2101 -0.5756  0.2938
  641TIP3    H223415   1.935   1.422   0.231 -0.5831 -1.7141 -0.8390
  642TIP3   OH223416   5.636   6.733  13.018 -0.2603  0.4649 -0.1747
  642TIP3    H123417   5.635   6.734  13.114  1.4194  2.2757 -0.0994
  642TIP3    H223418   5.550   6.699  12.993 -0.2895 -1.1812  1.9486
  643TIP3   OH223419   6.248   0.987   5.196 -0.3983  0.7453  0.4910
  643TIP3    H123420   6.178   1.053   5.192 -0.8454  0.2388 -2.1711
  643TIP3    H223421   6.327   1.036   5.173 -0.0961  1.0107  2.0044
  644TIP3   OH223422   4.762   6.705   4.759  0.2595 -0.1551  0.2633
  644TIP3    H123423   4.830   6.667   4.815  0.2338  1.2271  1.2813
  644TIP3    H223424   4.686   6.716   4.818  0.1334  1.0354 -0.1016
  645TIP3   OH223425   0.331   2.137   2.455  0.7168  0.3164  0.6979
  645TIP3    H123426   0.419   2.115   2.485  1.6843  0.6569 -1.7271
  645TIP3    H223427   0.336   2.135   2.360 -2.0907 -0.3472  0.4542
  646TIP3   OH223428   1.213   0.501  13.569 -0.0632  0.2024  0.5569
  646TIP3    H123429   1.133   0.551  13.577  0.2622  0.5767  1.6954
  646TIP3    H223430   1.187   0.410  13.586 -0.3957  0.1839 -0.0285
  647TIP3   OH223431   0.981   5.599  17.076 -0.7392  0.1780  0.2226
  647TIP3    H123432   0.903   5.613  17.023 -1.0311 -2.1831 -0.0880
  647TIP3    H223433   0.972   5.509  17.108  1.2936  0.2508  1.1473
  648TIP3   OH223434   0.967   0.652  12.355 -0.3364 -0.0908 -0.1042
  648TIP3    H123435   1.011   0.737  12.351 -0.0234 -0.2202  0.4162
  648TIP3    H223436   1.026   0.597  12.407  0.8628 -1.4771 -2.7017
  649TIP3   OH223437   1.372   5.513   0.212  0.2555 -0.0028  0.4913
  649TIP3    H123438   1.365   5.607   0.197  3.0297  0.3401  0.9893
  649TIP3    H223439   1.385   5.476   0.124  1.1346  0.3080  0.4855
  650TIP3   OH223440   1.031   5.128  15.178 -0.1430  0.1449 -0.6097
  650TIP3    H123441   0.979   5.208  15.187 -0.9450 -0.5387  1.2919
  650TIP3    H223442   0.967   5.057  15.182  0.6154 -0.6354 -1.7029
  651TIP3   OH223443   4.605   2.867  12.018  0.2100  0.1582  0.3084
  651TIP3    H123444   4.517   2.844  11.987 -0.8473  2.2615  1.4934
  651TIP3    H223445   4.596   2.868  12.114  1.2850  1.2278  0.4109
  652TIP3   OH223446   2.761   4.617  13.463  0.6652 -0.3593  0.1610
  652TIP3    H123447   2.699   4.680  13.500 -1.2634 -2.2381  0.3197
  652TIP3    H223448   2.744   4.620  13.368  1.2433 -0.0041  0.0596
  653TIP3   OH223449   5.658   1.962  16.412 -0.0420 -1.5122 -0.4989
  653TIP3    H123450   5.628   2.003  16.494  3.1234 -0.5052  0.2997
  653TIP3    H223451   5.627   2.020  16.343 -1.5079 -1.5765  0.0827
  654TIP3   OH223452   3.611   4.024  15.152  0.2141  0.1517 -0.6210
  654TIP3    H123453   3.522   3.990  15.142  0.2033  0.4121 -1.5367
  654TIP3    H223454   3.628   4.069  15.069  1.2970 -0.1409 -0.5682
  655TIP3   OH223455   4.126   1.106  11.023  0.4155  0.1174 -0.5960
  655TIP3    H123456   4.209   1.154  11.023  0.9842 -0.8365 -0.3241
  655TIP3    H223457   4.128   1.054  11.103 -1.2101  1.3342  0.2842
  656TIP3   OH223458   5.839   4.751  14.242  0.1215 -0.4437 -0.4664
  656TIP3    H123459   5.766   4.813  14.242 -0.6897 -1.3492  0.9564
  656TIP3    H223460   5.873   4.753  14.152 -1.1101  0.6231 -0.9262
  657TIP3   OH223461   3.346   6.385  13.292 -0.0049  0.7523 -0.1753
  657TIP3    H123462   3.324   6.454  13.229  0.0288 -0.8422 -2.0147
  657TIP3    H223463   3.299   6.308  13.261  1.6033 -0.5992  0.5950
  658TIP3   OH223464   5.119   1.179  14.531  0.3727 -0.0741 -0.0437
  658TIP3    H123465   5.123   1.219  14.444  0.3622  0.0391  0.0077
  658TIP3    H223466   5.208   1.149  14.548  0.7450  1.2441  0.5353
  659TIP3   OH223467   4.799   5.555   0.173 -0.2060  0.2003  0.4911
  659TIP3    H123468   4.711   5.586   0.154  0.9252  3.2503 -0.3688
  659TIP3    H223469   4.812   5.573   0.266 -0.8195 -1.2382  0.8689
  660TIP3   OH223470   1.652   3.821   5.665 -0.2409 -0.1337 -0.0468
  660TIP3    H123471   1.691   3.880   5.601 -1.0693 -0.3625 -0.7859
  660TIP3    H223472   1.597   3.762   5.613  0.4721 -1.4847  0.6904
  661TIP3   OH223473   0.999   5.550  12.679 -0.3677 -0.0779 -0.1370
  661TIP3    H123474   1.029   5.562  12.769  0.1736 -0.7044 -0.2313
  661TIP3    H223475   1.007   5.638  12.640 -1.4008  0.3853  0.6428
  662TIP3   OH223476   5.473   0.086   0.621 -0.9025 -0.0888 -0.0900
  662TIP3    H123477   5.427   0.165   0.650 -1.6868 -0.7090  0.3873
  662TIP3    H223478   5.490   0.038   0.702 -0.5418 -0.4756 -0.3935
  663TIP3   OH223479   5.228   3.299  14.410 -0.3731  0.1936 -0.1276
  663TIP3    H123480   5.311   3.307  14.457 -0.5332  0.8406  0.0642
  663TIP3    H223481   5.165   3.275  14.479 -0.3109 -0.5184 -0.3106
  664TIP3   OH223482   0.126   6.453   1.392  0.7562 -0.6020 -0.1513
  664TIP3    H123483   0.208   6.502   1.385  0.5356 -0.1569  0.3687
  664TIP3    H223484   0.058   6.520   1.398  0.5590 -0.9224  2.0049
  665TIP3   OH223485   3.861   0.612   3.814  0.1880  0.1149  0.1784
  665TIP3    H123486   3.936   0.667   3.837  0.0559  0.3607  0.0268
  665TIP3    H223487   3.844   0.561   3.893  0.1003  0.5350  0.4370
  666TIP3   OH223488   2.538   1.747  14.124  0.4323  0.2163 -0.6847
  666TIP3    H123489   2.614   1.757  14.181 -0.5699  3.1412  0.2931
  666TIP3    H223490   2.574   1.745  14.036  1.6911  0.6031 -0.1970
  667TIP3   OH223491   2.594   5.930  16.454  0.0071 -0.0246 -0.1739
  667TIP3    H123492   2.658   5.952  16.386 -0.0568  1.2131  0.1492
  667TIP3    H223493   2.637   5.953  16.536 -0.7101  0.4988  0.0696
  668TIP3   OH223494   4.071   0.900   4.919 -0.3848 -1.1838  0.2303
  668TIP3    H123495   4.000   0.890   4.983 -0.3640  0.1208  0.4914
  668TIP3    H223496   4.026   0.902   4.835 -1.0675  2.4452  0.5308
  669TIP3   OH223497   5.977   2.277   2.125 -0.3991  0.1129  0.0590
  669TIP3    H123498   5.915   2.349   2.114  0.0539  0.1439 -3.3386
  669TIP3    H223499   6.061   2.314   2.100  0.2637 -1.0271  0.5215
  670TIP3   OH223500   6.220   6.520  15.087  0.6710  0.8211  0.1126
  670TIP3    H123501   6.262   6.577  15.023  0.7341 -0.0029 -0.5935
  670TIP3    H223502   6.233   6.432  15.053 -0.2316  0.4392  0.7214
  671TIP3   OH223503   0.554   2.000  10.821  0.2881  0.0515  0.0834
  671TIP3    H123504   0.606   1.938  10.770 -0.2178  0.6025 -1.1415
  671TIP3    H223505   0.528   2.068  10.758 -0.9879  0.3669  0.9041
  672TIP3   OH223506   6.158   4.144  12.636 -0.3312  0.0998  0.1713
  672TIP3    H123507   6.215   4.194  12.578 -0.5080  0.1495  0.0394
  672TIP3    H223508   6.200   4.058  12.642 -0.3904  0.0495 -0.1474
  673TIP3   OH223509   2.760   6.001  17.220 -0.1506  0.4510 -0.0997
  673TIP3    H123510   2.820   5.934  17.184 -0.8549 -0.6775  0.7524
  673TIP3    H223511   2.725   6.045  17.143 -2.2000 -2.3965 -0.9704
  674TIP3   OH223512   4.466   6.603   0.294  0.2452 -0.2767  0.2825
  674TIP3    H123513   4.417   6.686   0.298 -0.2728 -0.6065  0.9523
  674TIP3    H223514   4.442   6.564   0.210  1.0375  0.5728 -0.3660
  675TIP3   OH223515   1.469   1.022  14.285  0.2777 -0.0613  0.2993
  675TIP3    H123516   1.496   0.934  14.312  1.1746 -1.4747 -4.2241
  675TIP3    H223517   1.376   1.014  14.265  0.7069 -0.6603 -1.7854
  676TIP3   OH223518   1.773   2.846  11.968  0.4582 -0.3543 -0.1257
  676TIP3    H123519   1.832   2.821  11.897 -0.2074 -2.1002 -0.0910
  676TIP3    H223520   1.778   2.942  11.970  0.9702 -0.2958 -2.1041
  677TIP3   OH223521   5.509   6.680   2.750 -0.0275  0.0213 -0.0035
  677TIP3    H123522   5.566   6.613   2.712  0.6919  0.6075  0.0200
  677TIP3    H223523   5.457   6.633   2.816  0.6721 -0.4646  0.2167
  678TIP3   OH223524   1.992   4.631   5.184  0.5635  0.4339  0.5563
  678TIP3    H123525   2.003   4.706   5.126  2.4057  0.1633  0.4702
  678TIP3    H223526   1.976   4.669   5.270  1.3242  0.9564  0.4830
  679TIP3   OH223527   3.784   0.731   6.175 -0.4230  0.4767 -0.2687
  679TIP3    H123528   3.827   0.815   6.156 -0.3414  0.8966  1.5131
  679TIP3    H223529   3.691   0.747   6.159 -0.4906  1.1404  0.6458
  680TIP3   OH223530   1.231   1.362   1.838 -0.2484 -0.2832 -0.1418
  680TIP3    H123531   1.224   1.269   1.816 -0.8723  0.0125 -1.2643
  680TIP3    H223532   1.174   1.372   1.915 -1.3308 -0.5692 -0.8819
  681TIP3   OH223533   0.832   3.053   3.006  0.2697  0.4634  0.0982
  681TIP3    H123534   0.742   3.032   2.979  0.4629  0.5868 -0.6876
  681TIP3    H223535   0.885   2.984   2.965  0.4821  0.0971  0.9823
  682TIP3   OH223536   6.654   4.540   5.613 -0.3767  0.0715  0.3766
  682TIP3    H123537   6.558   4.537   5.615 -0.3963  0.2534 -0.0362
  682TIP3    H223538   6.673   4.610   5.550  0.0293 -0.4518 -0.0806
  683TIP3   OH223539   5.747   6.323  11.107 -0.0143 -0.0771  0.0746
  683TIP3    H123540   5.689   6.256  11.072  0.2298 -0.0869 -0.3185
  683TIP3    H223541   5.797   6.354  11.031 -0.2623  0.6900  0.2127
  684TIP3   OH223542   1.554   0.068  11.092  0.4563  0.3947 -0.2985
  684TIP3    H123543   1.468   0.041  11.061  0.6405 -0.2332 -0.2809
  684TIP3    H223544   1.549   0.163  11.098  0.1955  0.4724 -1.5735
  685TIP3   OH223545   2.512   1.066  11.518 -0.5706  0.0081  0.3788
  685TIP3    H123546   2.583   1.020  11.564  0.1990  0.1364 -0.6412
  685TIP3    H223547   2.454   1.095  11.588  0.2917 -0.2598  1.2384
  686TIP3   OH223548   1.816   3.382   0.585 -0.1969  0.0118  0.1884
  686TIP3    H123549   1.848   3.454   0.531  2.6714 -1.4277 -0.2127
  686TIP3    H223550   1.881   3.372   0.655 -1.5210 -0.9891  1.3547
  687TIP3   OH223551   1.133   5.312  13.392  0.6373  0.1238 -0.1360
  687TIP3    H123552   1.202   5.359  13.439  0.2154 -0.5998  1.2943
  687TIP3    H223553   1.135   5.347  13.303  2.4494  0.5203  0.0277
  688TIP3   OH223554   3.447   0.212   0.966  0.1511  0.2225  0.0559
  688TIP3    H123555   3.442   0.269   1.043 -0.6670  0.4757 -0.1801
  688TIP3    H223556   3.429   0.270   0.892  1.3661  0.0768 -0.3835
  689TIP3   OH223557   3.997   4.357  13.663  0.5168  0.1525  0.2501
  689TIP3    H123558   3.949   4.307  13.729  0.8705  0.2174  0.5623
  689TIP3    H223559   4.017   4.440  13.707  0.2383  0.4315 -0.1430
  690TIP3   OH223560   4.231   6.666   6.615 -0.1702  0.4573 -0.3237
  690TIP3    H123561   4.181   6.747   6.615 -0.5196  0.2883  1.8331
  690TIP3    H223562   4.249   6.648   6.707 -0.6883 -2.2541 -0.6496
  691TIP3   OH223563   1.575   0.032   0.361  0.1808 -0.2654  0.0211
  691TIP3    H123564   1.584   0.108   0.304  2.7806  1.5194  2.5479
  691TIP3    H223565   1.631  -0.035   0.320 -0.1407  0.0134 -0.9074
  692TIP3   OH223566   6.664   5.392  11.235  0.4781 -0.0030 -0.4322
  692TIP3    H123567   6.697   5.404  11.324 -1.9559 -0.0382  0.5651
  692TIP3    H223568   6.638   5.300  11.232  0.1341  0.1144 -1.0295
  693TIP3   OH223569   5.351   4.415  16.940 -0.1970  0.2883 -0.4853
  693TIP3    H123570   5.373   4.461  16.859  1.2342  0.7698  0.1564
  693TIP3    H223571   5.259   4.391  16.929 -0.4774  1.7151 -1.5955
  694TIP3   OH223572   0.683   4.161  14.870 -0.5208  0.0067  0.2627
  694TIP3    H123573   0.698   4.186  14.961 -1.3889  2.2514 -0.1360
  694TIP3    H223574   0.767   4.177  14.827  0.0080 -1.4528  0.7253
  695TIP3   OH223575   3.708   0.990  16.663  0.2499  0.3233  0.8093
  695TIP3    H123576   3.617   1.015  16.676 -0.1989 -0.2727 -0.9344
  695TIP3    H223577   3.723   0.919  16.725 -0.1278  1.1451  1.8638
  696TIP3   OH223578   3.554   3.202   6.514 -0.2135  0.2024 -0.4268
  696TIP3    H123579   3.641   3.163   6.505 -0.2902 -0.1168  0.1982
  696TIP3    H223580   3.532   3.192   6.606 -2.3545 -2.8342 -1.1202
  697TIP3   OH223581   0.577   0.763   1.693 -0.5257 -0.4744  0.3705
  697TIP3    H123582   0.639   0.716   1.749 -0.1198 -0.0276  0.3019
  697TIP3    H223583   0.619   0.847   1.676 -0.1156 -1.0300 -1.5605
  698TIP3   OH223584   2.179   5.325   5.251  0.2065  0.3291  0.0763
  698TIP3    H123585   2.125   5.290   5.181 -0.1286  1.5601 -0.3084
  698TIP3    H223586   2.135   5.298   5.332  0.1160 -0.3556 -0.1994
  699TIP3   OH223587   3.573   1.913  13.561  0.4597  0.1691 -0.3018
  699TIP3    H123588   3.560   2.005  13.587  1.4141  0.5886 -1.2428
  699TIP3    H223589   3.488   1.872  13.578 -0.7069  1.7365 -1.8701
  700TIP3   OH223590   5.911   3.428  12.952  0.6338 -0.1420  0.2424
  700TIP3    H123591   5.858   3.360  12.911  0.0865  1.9722 -2.8585
  700TIP3    H223592   5.996   3.386  12.968  0.7647 -1.2646 -2.7841
  701TIP3   OH223593   5.546   3.653   1.002  0.1792  0.0245  0.3322
  701TIP3    H123594   5.542   3.558   1.014  0.5779  0.0500  0.6793
  701TIP3    H223595   5.594   3.665   0.920 -0.0127 -0.0784  0.2051
  702TIP3   OH223596   2.112   5.733   4.288  0.4285  0.1716 -0.4540
  702TIP3    H123597   2.198   5.692   4.281  0.2598 -0.2472 -0.0870
  702TIP3    H223598   2.111   5.775   4.374 -0.2353 -0.9996  0.1330
  703TIP3   OH223599   3.371   6.143   0.934 -0.2253  0.2034 -0.0771
  703TIP3    H123600   3.398   6.139   1.026  2.2610 -0.0822 -0.7419
  703TIP3    H223601   3.410   6.223   0.901 -0.1903 -0.2352 -1.1298
  704TIP3   OH223602   6.734   0.882   5.343  0.5725 -0.1255  0.3368
  704TIP3    H123603   6.719   0.961   5.395  1.3119  0.2000  0.0840
  704TIP3    H223604   6.700   0.811   5.396 -1.5834  0.5059 -0.1191
  705TIP3   OH223605   0.557   6.592   1.183  0.3075 -0.4319 -0.5191
  705TIP3    H123606   0.501   6.658   1.224 -0.3338 -0.1501 -1.8038
  705TIP3    H223607   0.540   6.512   1.235  1.6964  0.5291  1.5450
  706TIP3   OH223608   3.768   0.928  14.190  0.0764  0.4128 -0.0909
  706TIP3    H123609   3.847   0.894  14.233 -0.7675 -1.5112  0.0339
  706TIP3    H223610   3.800   0.964  14.108  1.2370  0.7936  0.5019
  707TIP3   OH223611   6.773   1.546  11.866  0.6125  0.3337  0.3774
  707TIP3    H123612   6.748   1.553  11.958 -0.8471  0.2870 -0.0005
  707TIP3    H223613   6.771   1.452  11.848  1.5294  0.2899  0.4525
  708TIP3   OH223614   5.792   1.891   2.017  0.1804  0.6994  0.3406
  708TIP3    H123615   5.728   1.857   2.079 -0.0802  0.6186  0.0302
  708TIP3    H223616   5.753   1.972   1.983 -0.8069 -0.4778 -1.5196
  709TIP3   OH223617   0.894   3.259   1.161  0.1392 -0.1238  0.6040
  709TIP3    H123618   0.897   3.310   1.242 -0.6565 -1.8399  1.7982
  709TIP3    H223619   0.885   3.168   1.191  1.9176 -1.0349 -1.4025
  710TIP3   OH223620   4.354   4.160   6.207  0.0670 -0.3427  0.1245
  710TIP3    H123621   4.348   4.068   6.181 -0.0802 -0.3360  0.1313
  710TIP3    H223622   4.305   4.207   6.139  0.6313 -0.2097 -0.1942
  711TIP3   OH223623   6.668   0.673   0.095 -0.3546 -0.0291 -0.0233
  711TIP3    H123624   6.627   0.679   0.009  0.2259  1.1195 -0.2365
  711TIP3    H223625   6.749   0.623   0.079  0.1176  0.7990 -0.3031
  712TIP3   OH223626   0.807   5.598  11.986 -0.1684  0.6440  0.0099
  712TIP3    H123627   0.739   5.658  12.015 -0.4642  0.4448 -0.2728
  712TIP3    H223628   0.834   5.552  12.066 -2.4609 -1.4416 -0.2882
  713TIP3   OH223629   3.270   4.622  16.268  0.5452  0.1877 -0.4991
  713TIP3    H123630   3.290   4.639  16.176  2.3581  1.1243  0.0213
  713TIP3    H223631   3.223   4.700  16.297  2.2709  1.0876 -0.0084
  714TIP3   OH223632   6.739   4.051  11.893 -0.0037  0.1222 -0.3652
  714TIP3    H123633   6.832   4.052  11.869 -0.0782  0.7798 -0.6396
  714TIP3    H223634   6.693   4.049  11.809 -0.2462 -2.0846 -0.2476
  715TIP3   OH223635   3.180   6.038   5.015  0.3118  0.0531  0.1127
  715TIP3    H123636   3.133   6.033   4.933 -0.5100  0.2555  0.5643
  715TIP3    H223637   3.191   6.132   5.031  1.9454  0.0142 -0.5795
  716TIP3   OH223638   0.667   1.041   0.443  0.4087  0.5319 -0.0206
  716TIP3    H123639   0.716   1.026   0.362  1.8226  0.6103  0.7815
  716TIP3    H223640   0.720   1.103   0.493 -0.1638  0.0981  1.1841
  717TIP3   OH223641   2.220   1.701  16.808 -0.5129 -0.4697  0.3166
  717TIP3    H123642   2.197   1.609  16.818 -1.0461 -0.3627  0.1090
  717TIP3    H223643   2.189   1.724  16.720 -3.2061  0.7146  1.4590
  718TIP3   OH223644   5.114   3.468  13.993  0.5703  0.0981 -0.8194
  718TIP3    H123645   5.063   3.388  14.005 -1.9477  1.9127  2.4062
  718TIP3    H223646   5.055   3.527  13.946  2.1115  0.4110 -2.4785
  719TIP3   OH223647   3.444   0.563   3.860 -0.7462  0.2477  0.5842
  719TIP3    H123648   3.469   0.498   3.926 -0.9026 -2.0256 -1.4285
  719TIP3    H223649   3.348   0.569   3.867 -0.7083  0.4312  0.9352
  720TIP3   OH223650   1.691   5.043   0.174  0.4008  0.1878 -0.2132
  720TIP3    H123651   1.657   5.133   0.185 -0.8646 -0.4843  2.0109
  720TIP3    H223652   1.786   5.054   0.170  0.5557  1.4744  3.3545
  721TIP3   OH223653   4.523   4.954  11.060 -1.1044  0.0675 -0.2133
  721TIP3    H123654   4.500   4.937  10.969  0.0496 -0.4943 -0.4261
  721TIP3    H223655   4.546   5.047  11.063 -1.8245  0.2533 -0.3340
  722TIP3   OH223656   3.245   3.063  15.073 -0.1760  0.0144 -0.3916
  722TIP3    H123657   3.334   3.041  15.045 -0.3212 -1.9395  0.4858
  722TIP3    H223658   3.242   3.037  15.166 -1.4525  0.6900 -0.2208
  723TIP3   OH223659   6.101   5.906  14.222 -0.5248 -0.0571  0.2637
  723TIP3    H123660   6.006   5.900  14.216 -0.5958  0.6755  0.5060
  723TIP3    H223661   6.118   5.949  14.306 -0.0482  1.0934 -0.3912
  724TIP3   OH223662   3.828   5.823  15.301  0.0192 -0.7608  0.3212
  724TIP3    H123663   3.807   5.888  15.368 -1.8950 -1.9125  0.9250
  724TIP3    H223664   3.885   5.760  15.346  1.6321  0.3018 -0.1808
  725TIP3   OH223665   6.261   2.331  11.233  0.3906 -1.0343 -0.2082
  725TIP3    H123666   6.321   2.363  11.166 -0.7314 -0.8088 -1.1564
  725TIP3    H223667   6.317   2.289  11.298  1.5184 -1.4575 -1.4007
  726TIP3   OH223668   6.360   6.015  16.439 -0.0886  0.6914  0.1636
  726TIP3    H123669   6.347   6.066  16.359 -1.6400 -0.7910 -0.5914
  726TIP3    H223670   6.298   6.051  16.501 -0.6350  0.2585 -0.1204
  727TIP3   OH223671   2.810   3.007   2.385 -0.2392 -0.1635  0.4710
  727TIP3    H123672   2.880   3.042   2.330 -0.7784 -0.0682 -0.1661
  727TIP3    H223673   2.758   2.953   2.326 -2.2802  1.9078  0.2449
  728TIP3   OH223674   2.243   3.382   5.076  0.0861  0.3745  0.3676
  728TIP3    H123675   2.250   3.477   5.079  0.3072  0.3452  1.6774
  728TIP3    H223676   2.150   3.365   5.059 -0.3989  0.8625  2.2245
  729TIP3   OH223677   4.433   0.690   4.979  0.0176  0.6071  0.3530
  729TIP3    H123678   4.435   0.705   5.073  1.5161  0.2458  0.4037
  729TIP3    H223679   4.425   0.777   4.941 -3.8649  0.6159  0.7958
  730TIP3   OH223680   3.159   5.236   6.366 -0.6376 -0.2169 -0.3148
  730TIP3    H123681   3.208   5.293   6.306 -2.4643  1.3401 -0.4178
  730TIP3    H223682   3.070   5.237   6.333 -1.1803 -1.3538  1.0161
  731TIP3   OH223683   1.507   2.425  13.954  0.5103  0.1823 -0.0135
  731TIP3    H123684   1.601   2.432  13.974  0.7720 -1.9304 -0.3549
  731TIP3    H223685   1.490   2.332  13.948 -1.0633  0.5385 -2.6070
  732TIP3   OH223686   5.022   3.851   2.648 -0.0535 -0.0674 -0.5332
  732TIP3    H123687   5.106   3.868   2.605  0.5541 -0.6285  0.4025
  732TIP3    H223688   5.045   3.802   2.727 -1.1851  0.5487  0.2019
  733TIP3   OH223689   5.237   3.277   2.126 -0.0879 -0.2239  0.0760
  733TIP3    H123690   5.261   3.264   2.217  0.8325  0.6679 -0.0270
  733TIP3    H223691   5.165   3.340   2.129  1.6481  1.8809  0.0992
  734TIP3   OH223692   0.919   4.707   0.111 -0.1266  0.3122 -0.4090
  734TIP3    H123693   0.986   4.757   0.064 -0.8107 -0.4994 -2.3863
  734TIP3    H223694   0.943   4.615   0.095 -1.2484  0.0168 -0.4653
  735TIP3   OH223695   1.524   1.993   1.250 -0.4135 -0.4602 -0.0605
  735TIP3    H123696   1.516   1.912   1.199 -0.0626 -0.9632  0.6737
  735TIP3    H223697   1.518   2.063   1.185  1.3889 -1.1054 -0.9806
  736TIP3   OH223698   5.368   3.817  11.578 -0.1674  0.3232  0.2964
  736TIP3    H123699   5.329   3.873  11.511 -0.7593  0.0272  0.3910
  736TIP3    H223700   5.437   3.769  11.532 -1.7237 -1.1962 -0.5550
  737TIP3   OH223701   3.634   4.929  12.923  0.8602  0.1968  0.0086
  737TIP3    H123702   3.689   4.995  12.965  1.3542 -0.7881  0.9491
  737TIP3    H223703   3.563   4.913  12.984  0.7259 -0.1258 -0.2259
  738TIP3   OH223704   0.738   5.094   4.845  0.5983 -0.1843  0.3282
  738TIP3    H123705   0.802   5.085   4.916  2.6913  0.3269 -1.3958
  738TIP3    H223706   0.760   5.178   4.804 -1.4907  0.2194 -0.0992
  739TIP3   OH223707   0.517   5.914  11.191 -0.7485  0.0170  0.1152
  739TIP3    H123708   0.427   5.934  11.165 -0.5978 -0.7962 -1.1171
  739TIP3    H223709   0.561   5.890  11.109  1.6385  4.0133 -0.0659
  740TIP3   OH223710   3.699   0.486   3.588  0.7244 -0.5007 -0.6340
  740TIP3    H123711   3.676   0.556   3.650 -3.3215 -1.3084 -0.9375
  740TIP3    H223712   3.679   0.522   3.502  0.7055 -1.2989 -0.9733
  741TIP3   OH223713   3.738   5.663  15.691 -0.2001  0.3809 -0.0433
  741TIP3    H123714   3.670   5.705  15.638 -0.4161 -0.2026 -0.2327
  741TIP3    H223715   3.699   5.654  15.777  0.0209  1.0032  0.1247
  742TIP3   OH223716   1.042   1.220   1.163 -0.2339 -0.5994 -0.3171
  742TIP3    H123717   1.008   1.180   1.083  0.0303  0.2194 -0.8542
  742TIP3    H223718   0.972   1.211   1.227 -1.4262  0.8958 -1.3433
  743TIP3   OH223719   6.540   3.191  11.936  0.5489  0.0476  0.0255
  743TIP3    H123720   6.490   3.125  11.889 -0.5101  1.3994 -0.8192
  743TIP3    H223721   6.534   3.164  12.028  1.5835 -1.9317 -0.4285
  744TIP3   OH223722   0.790   1.598  13.198 -0.6084 -0.1049 -0.2351
  744TIP3    H123723   0.839   1.674  13.167 -1.3451  0.9320  1.0219
  744TIP3    H223724   0.722   1.585  13.132 -0.6966  0.5723 -0.2907
  745TIP3   OH223725   0.190   6.552   4.366  0.6462 -0.3125  0.0123
  745TIP3    H123726   0.163   6.635   4.328  1.2237 -0.7976 -1.4960
  745TIP3    H223727   0.107   6.510   4.390  0.3037  0.2658 -0.1288
  746TIP3   OH223728   2.682   1.915   2.973  0.1027  0.8452 -0.2268
  746TIP3    H123729   2.699   2.008   2.961  0.6480  0.7131 -0.5210
  746TIP3    H223730   2.625   1.891   2.900  0.9252  0.7051 -0.8510
  747TIP3   OH223731   4.598   0.934  14.584 -0.1743  0.6979 -0.5100
  747TIP3    H123732   4.641   0.854  14.554  0.2879  0.4038  0.8645
  747TIP3    H223733   4.658   1.004  14.558  1.3238  0.2731  1.5986
  748TIP3   OH223734   1.368   4.840   3.853  0.3143  0.0406  0.0449
  748TIP3    H123735   1.295   4.891   3.889  1.5584  1.1224  1.1798
  748TIP3    H223736   1.361   4.754   3.894 -1.2489 -0.4340 -1.1399
  749TIP3   OH223737   1.618   0.125   3.292  0.4000  0.4592  0.8067
  749TIP3    H123738   1.543   0.129   3.352  0.5115  1.0139  0.9175
  749TIP3    H223739   1.670   0.052   3.324  0.4880  0.7826  1.4261
  750TIP3   OH223740   2.709   3.478   4.596 -0.3270 -0.6191 -0.6587
  750TIP3    H123741   2.639   3.535   4.630  0.2373  0.4711 -1.2460
  750TIP3    H223742   2.750   3.531   4.527  1.4275 -1.0301  0.0426
  751TIP3   OH223743   6.330   0.219  12.725 -0.0268 -0.1993  0.6881
  751TIP3    H123744   6.379   0.226  12.807 -0.4336 -2.7350  1.2386
  751TIP3    H223745   6.238   0.220  12.751 -0.1646 -0.8951  0.2575
  752TIP3   OH223746   6.074   1.644   3.971  0.2535 -0.2189 -0.0758
  752TIP3    H123747   6.005   1.710   3.981 -0.7016 -0.9947 -1.1689
  752TIP3    H223748   6.143   1.672   4.031 -0.0441  1.8446 -0.6038
  753TIP3   OH223749   4.174   5.771   3.481  0.7802 -0.3877 -0.6717
  753TIP3    H123750   4.100   5.830   3.489  1.1123 -0.1407  0.8230
  753TIP3    H223751   4.233   5.796   3.552  2.2229 -0.6875 -1.7171
  754TIP3   OH223752   0.351   2.178   2.191  0.2790 -0.1119 -0.1664
  754TIP3    H123753   0.269   2.181   2.141  0.7072 -0.4560 -0.9088
  754TIP3    H223754   0.418   2.160   2.125  0.7981 -1.0747  0.6068
  755TIP3   OH223755   0.007   2.549   2.634 -0.6235  0.5011  0.5488
  755TIP3    H123756  -0.020   2.459   2.654 -0.8376  0.3071 -0.5329
  755TIP3    H223757   0.074   2.569   2.699  0.2633 -0.8694  0.1046
  756TIP3   OH223758   3.573   3.204  12.188  0.2636 -0.0219 -0.2743
  756TIP3    H123759   3.608   3.198  12.099  0.3235  0.1099 -0.2591
  756TIP3    H223760   3.644   3.170  12.243  1.0445  1.7955 -0.0787
  757TIP3   OH223761   3.132   0.131   2.756  0.4110  0.1420  0.5958
  757TIP3    H123762   3.206   0.071   2.745  1.7270  1.9479 -1.1563
  757TIP3    H223763   3.091   0.136   2.670 -1.6249 -0.5497  1.4536
  758TIP3   OH223764   2.384   5.060  15.036  0.0918  0.2908  0.0810
  758TIP3    H123765   2.468   5.095  15.006 -0.9864  1.9807 -1.1517
  758TIP3    H223766   2.326   5.136  15.038 -1.0144 -0.5294  2.5412
  759TIP3   OH223767   4.507   0.959   5.742 -0.3022 -0.2457 -0.3906
  759TIP3    H123768   4.586   0.990   5.786  1.4582 -2.5158 -1.7273
  759TIP3    H223769   4.488   1.027   5.677 -0.3355  0.9773  0.8248
  760TIP3   OH223770   5.213   2.145   3.756 -0.0912 -0.1589  0.4013
  760TIP3    H123771   5.155   2.078   3.793  0.1496  0.1971  1.4645
  760TIP3    H223772   5.164   2.226   3.762  0.9145  0.3585  2.4280
  761TIP3   OH223773   0.577   2.394  11.886  0.1694 -0.0235 -0.0692
  761TIP3    H123774   0.579   2.471  11.941  3.0962  0.7413 -1.0526
  761TIP3    H223775   0.650   2.340  11.917 -0.7261 -1.5548 -0.5315
  762TIP3   OH223776   0.438   5.256   2.487 -0.3716 -0.1778  0.3461
  762TIP3    H123777   0.476   5.293   2.566  0.4318  0.3733 -0.2882
  762TIP3    H223778   0.387   5.180   2.517 -0.8775  0.5977  1.4939
  763TIP3   OH223779   2.853   3.277  10.841  0.3894  0.2573  0.1722
  763TIP3    H123780   2.852   3.263  10.935  2.2838  1.5117  0.4246
  763TIP3    H223781   2.764   3.306  10.820  0.1010  0.5094  1.6581
  764TIP3   OH223782   0.306   1.188   5.733 -0.0792  0.7527  0.0853
  764TIP3    H123783   0.306   1.189   5.638 -0.1500  0.6469  0.0839
  764TIP3    H223784   0.330   1.098   5.756 -0.5942  0.6290  0.1627
  765TIP3   OH223785   1.989   6.816   2.606 -0.0200 -0.4418  0.2242
  765TIP3    H123786   2.037   6.880   2.554 -0.2575  0.0711  0.6260
  765TIP3    H223787   2.047   6.740   2.610  1.1167  0.4365  1.3469
  766TIP3   OH223788   2.305   5.386   2.481 -0.1153  0.0430  0.2251
  766TIP3    H123789   2.391   5.422   2.461 -0.7249  1.1046 -0.6489
  766TIP3    H223790   2.303   5.380   2.576  0.1791  2.0506  0.4132
  767TIP3   OH223791   1.811   4.758  15.135  1.0458  0.2643  0.1968
  767TIP3    H123792   1.721   4.790  15.144  0.8504 -0.3525  0.5272
  767TIP3    H223793   1.832   4.772  15.042 -0.2050 -1.5640 -0.4383
  768TIP3   OH223794   0.431   4.603   2.742 -0.1666  0.5139 -0.0388
  768TIP3    H123795   0.416   4.689   2.704 -1.4903 -0.3443 -1.6077
  768TIP3    H223796   0.435   4.544   2.667 -0.1893 -0.9220  1.0323
  769TIP3   OH223797   4.845   0.118   1.195 -0.9624 -0.0959 -0.0761
  769TIP3    H123798   4.868   0.029   1.222 -0.9011 -0.1512 -0.3073
  769TIP3    H223799   4.852   0.117   1.099 -1.1353  0.1082 -0.0928
  770TIP3   OH223800   2.083   5.213  16.147  0.0448 -0.1273  0.2073
  770TIP3    H123801   2.089   5.281  16.080  2.2709 -0.9348 -0.5033
  770TIP3    H223802   2.174   5.191  16.167 -0.6020 -1.9198  1.4219
  771TIP3   OH223803   3.614   0.528   0.238 -0.4022 -0.2842 -0.7731
  771TIP3    H123804   3.619   0.455   0.176  0.0951 -1.2722  0.3782
  771TIP3    H223805   3.617   0.606   0.184  1.4457 -1.0804 -1.9365
  772TIP3   OH223806   4.956   2.884  15.706  0.0981  0.1321  0.5888
  772TIP3    H123807   4.923   2.810  15.655 -0.9748  0.3733  0.9198
  772TIP3    H223808   4.989   2.945  15.641 -1.4193  0.5126  0.1456
  773TIP3   OH223809   5.082   4.956   1.507  0.4966 -0.2099 -0.7001
  773TIP3    H123810   5.130   5.024   1.555 -0.5805  0.6492 -0.7821
  773TIP3    H223811   5.149   4.895   1.478  1.5100  0.8280 -0.6149
  774TIP3   OH223812   2.834   4.996   0.183  0.3332 -0.1798 -0.4511
  774TIP3    H123813   2.813   5.073   0.129  0.6003  0.7875  0.7812
  774TIP3    H223814   2.807   5.021   0.271  1.4663 -1.0631  0.1653
  775TIP3   OH223815   6.456   2.761   1.374  0.3233  0.5631 -0.0356
  775TIP3    H123816   6.371   2.759   1.331 -0.3909  0.5217  1.3249
  775TIP3    H223817   6.490   2.672   1.363 -0.4418  0.1748  0.6014
  776TIP3   OH223818   0.867   1.144  11.642  0.1427  0.3532 -0.6419
  776TIP3    H123819   0.805   1.193  11.696  0.0493  0.8178 -1.1518
  776TIP3    H223820   0.947   1.196  11.643  1.3800 -1.4365  1.9678
  777TIP3   OH223821   5.074   0.357  13.164  0.4506  0.8605 -0.0626
  777TIP3    H123822   5.053   0.447  13.190 -0.5436  0.3798  0.8519
  777TIP3    H223823   5.164   0.363  13.131  0.7729  2.0159  0.9268
  778TIP3   OH223824   3.456   3.837   5.757 -0.2682  0.2170 -0.0049
  778TIP3    H123825   3.458   3.778   5.682 -1.0000 -0.5880  0.5850
  778TIP3    H223826   3.424   3.920   5.722 -0.8362 -0.2213 -0.5454
  779TIP3   OH223827   5.918   6.239  16.068  0.4136 -0.5279  0.0160
  779TIP3    H123828   5.948   6.283  15.989  1.1649 -1.0910 -0.0278
  779TIP3    H223829   5.868   6.164  16.036  0.3987 -0.5402  0.0688
  780TIP3   OH223830   3.652   4.017  12.290  0.1491  0.5421  0.5980
  780TIP3    H123831   3.578   3.966  12.257 -2.1132  2.6633  1.9537
  780TIP3    H223832   3.687   4.061  12.214 -0.2759 -0.1540 -0.0168
  781TIP3   OH223833   3.209   5.034  16.679  0.1965  0.3556  0.5616
  781TIP3    H123834   3.245   4.957  16.636  2.4402  1.8539 -0.3973
  781TIP3    H223835   3.183   5.003  16.766 -0.2040 -1.7256 -0.2431
  782TIP3   OH223836   4.908   2.755   5.550 -0.4894  0.8469 -0.3505
  782TIP3    H123837   4.995   2.738   5.585 -0.7504 -1.4064 -0.6722
  782TIP3    H223838   4.857   2.677   5.572 -1.7544  1.0616 -2.2533
  783TIP3   OH223839   1.043   1.725  14.105  0.5524  0.0012 -1.1774
  783TIP3    H123840   0.996   1.781  14.044  1.6003  0.2726 -1.7652
  783TIP3    H223841   1.097   1.669  14.049  1.1041 -0.1360 -0.5259
  784TIP3   OH223842   3.489   0.679  14.344 -0.2992 -0.1604  0.5484
  784TIP3    H123843   3.583   0.668  14.328 -0.1546 -0.5873  1.6464
  784TIP3    H223844   3.447   0.627  14.275  0.3263 -2.5381  1.8379
  785TIP3   OH223845   0.524   5.166  14.397  0.3660 -0.6685  0.5078
  785TIP3    H123846   0.536   5.149  14.491  1.6149 -0.1559  0.4630
  785TIP3    H223847   0.606   5.137  14.357  0.0547 -0.3794 -0.3470
  786TIP3   OH223848   5.052   6.690  12.036  0.2514  0.3703  0.1366
  786TIP3    H123849   5.134   6.641  12.031  0.2610  0.2019  1.5245
  786TIP3    H223850   5.010   6.659  12.116 -1.3400  0.2105 -0.7107
  787TIP3   OH223851   6.463   6.418   0.640  0.6534 -0.1905  0.4737
  787TIP3    H123852   6.390   6.359   0.661  1.8544 -1.9390 -0.0403
  787TIP3    H223853   6.470   6.413   0.544  1.9528 -0.7266  0.5757
  788TIP3   OH223854   5.347   6.201  12.358 -0.5207 -0.0292 -0.0853
  788TIP3    H123855   5.324   6.164  12.273 -0.8584  1.1894 -0.5496
  788TIP3    H223856   5.383   6.288  12.338  1.0883 -0.4272  0.8934
  789TIP3   OH223857   0.609   1.957   1.817 -0.0840 -0.0749  0.7826
  789TIP3    H123858   0.630   1.918   1.902 -0.1212 -1.4541  0.1836
  789TIP3    H223859   0.527   1.915   1.791 -0.1179  0.3939  0.1099
  790TIP3   OH223860   4.956   4.427   3.419 -0.3131  0.4136  0.3041
  790TIP3    H123861   5.046   4.461   3.419 -0.3956  0.7132  2.0321
  790TIP3    H223862   4.950   4.377   3.338  0.9123  1.6633 -0.6215
  791TIP3   OH223863   0.365   2.972  17.152  0.1428  0.5170 -0.0200
  791TIP3    H123864   0.327   3.045  17.199 -1.1224 -0.0853 -0.0607
  791TIP3    H223865   0.293   2.909  17.143  1.2595 -0.8510  0.2645
  792TIP3   OH223866   2.777   2.669   4.642  0.0529 -0.0422  0.0586
  792TIP3    H123867   2.714   2.740   4.631  0.3520  0.3706  0.8433
  792TIP3    H223868   2.858   2.714   4.669 -0.0390 -0.7417  1.6345
  793TIP3   OH223869   2.191   5.207   0.966  0.1914 -0.4278  0.3999
  793TIP3    H123870   2.157   5.195   1.055  0.8146 -1.5519  0.5061
  793TIP3    H223871   2.227   5.121   0.943  2.2642  0.5100 -0.0023
  794TIP3   OH223872   3.598   1.220  13.312  0.0989 -0.1210  0.2890
  794TIP3    H123873   3.622   1.172  13.391  3.5581  1.6762  0.5373
  794TIP3    H223874   3.613   1.157  13.241  0.0102 -0.7951  0.8560
  795TIP3   OH223875   4.068   4.365   0.292 -0.6080  0.4306  0.2969
  795TIP3    H123876   4.044   4.335   0.204  1.4108 -1.0410  0.1619
  795TIP3    H223877   3.998   4.333   0.349 -0.9492 -0.3308 -0.5264
  796TIP3   OH223878   5.424   4.576   3.591 -0.4545  0.3829  0.1493
  796TIP3    H123879   5.456   4.498   3.547 -0.6800  0.3624  0.0214
  796TIP3    H223880   5.476   4.581   3.672 -0.3067  0.2099  0.0650
  797TIP3   OH223881   1.118   1.880   4.999 -0.4497 -0.1479 -0.5482
  797TIP3    H123882   1.196   1.827   4.986 -0.7055 -0.5826 -0.3155
  797TIP3    H223883   1.134   1.959   4.947 -0.9657 -1.3552 -2.6349
  798TIP3   OH223884   5.621   5.615  13.045  0.3313  0.5855 -0.2324
  798TIP3    H123885   5.662   5.675  13.107  1.7292  2.2194 -2.5445
  798TIP3    H223886   5.527   5.629  13.056  0.5036  0.2703  1.9500
  799TIP3   OH223887   6.731   6.568   3.892  0.6331 -0.9618 -0.3203
  799TIP3    H123888   6.825   6.572   3.871  1.2713  0.2858  2.3865
  799TIP3    H223889   6.728   6.535   3.982 -1.4809 -0.2143 -0.0713
  800TIP3   OH223890   5.009   2.899   4.231 -0.4400 -0.1846 -0.2710
  800TIP3    H123891   4.976   2.859   4.311 -1.3897  0.3237 -0.3905
  800TIP3    H223892   4.930   2.921   4.181  0.1377 -0.5413 -1.3740
  801TIP3   OH223893   2.665   6.768  12.107 -0.3097  0.5780  0.0926
  801TIP3    H123894   2.616   6.839  12.148 -0.0170  1.1371 -0.4971
  801TIP3    H223895   2.753   6.804  12.093  0.0245 -0.1164  0.3563
  802TIP3   OH223896   1.517   3.226  13.429  0.1827  0.1095 -0.0545
  802TIP3    H123897   1.511   3.276  13.348 -0.5858 -2.7839 -1.9517
  802TIP3    H223898   1.427   3.204  13.451  0.4637 -0.0748  0.9748
  803TIP3   OH223899   1.469   1.044   4.097 -0.5002 -0.1547 -0.0773
  803TIP3    H123900   1.441   1.011   4.012  0.4247  0.2703 -0.5583
  803TIP3    H223901   1.480   0.965   4.151 -1.0427 -0.4257 -0.3563
  804TIP3   OH223902   6.698   4.900  10.266 -0.2159 -0.4246 -0.1899
  804TIP3    H123903   6.605   4.921  10.280 -1.0768 -2.8771 -1.4803
  804TIP3    H223904   6.730   4.874  10.352 -0.2162  1.9624  0.5946
  805TIP3   OH223905   6.686   4.089  17.226  0.3061 -0.2460  0.0068
  805TIP3    H123906   6.656   4.087  17.135 -0.5314 -1.2635  0.2863
  805TIP3    H223907   6.678   4.181  17.252  3.5922  0.7533 -1.8880
  806TIP3   OH223908   0.737   1.377   1.125  0.1567 -0.5556  0.0367
  806TIP3    H123909   0.680   1.451   1.147  0.2876 -0.3114 -0.4108
  806TIP3    H223910   0.751   1.331   1.207  0.4552  0.1933  0.4154
  807TIP3   OH223911   1.594   3.754  16.225  0.2195  0.3662 -0.0549
  807TIP3    H123912   1.499   3.767  16.221  0.0473 -0.2978  1.4080
  807TIP3    H223913   1.622   3.755  16.133 -1.0534  1.5260 -0.4729
  808TIP3   OH223914   2.000   3.912  13.058 -0.2475 -0.1030 -0.3430
  808TIP3    H123915   1.976   3.979  13.122 -0.0213 -0.6717  0.3608
  808TIP3    H223916   2.080   3.873  13.093 -0.5817 -0.9970 -0.5320
  809TIP3   OH223917   1.739   6.423  14.096  0.2574 -0.4104 -0.4421
  809TIP3    H123918   1.791   6.502  14.107 -1.3300  0.5055  0.8766
  809TIP3    H223919   1.785   6.357  14.148  0.7169  0.0501 -0.2499
  810TIP3   OH223920   1.942   2.178   3.885  0.1370 -0.2883 -0.3338
  810TIP3    H123921   1.910   2.142   3.967  1.0892  0.6088  0.4659
  810TIP3    H223922   1.887   2.255   3.869  0.4121 -0.0525 -0.1539
  811TIP3   OH223923   4.845   1.361  15.510 -0.4525  0.0534 -0.4131
  811TIP3    H123924   4.858   1.313  15.429 -1.1566  1.0666 -1.1521
  811TIP3    H223925   4.774   1.423  15.491 -2.0515 -1.0430  1.5515
  812TIP3   OH223926   3.406   5.402   2.734 -0.1237  0.3034 -0.7165
  812TIP3    H123927   3.313   5.416   2.718 -0.3084 -0.2792 -0.1964
  812TIP3    H223928   3.448   5.481   2.701 -0.8072  0.5984 -0.9017
  813TIP3   OH223929   3.018   3.496   5.046  0.1472 -0.0485 -0.0644
  813TIP3    H123930   3.002   3.590   5.040 -2.8382 -0.3683  1.0035
  813TIP3    H223931   3.044   3.483   5.138 -0.4174 -0.3506  0.0565
  814TIP3   OH223932   2.942   5.488   0.660 -0.1637  0.0728  0.2314
  814TIP3    H123933   3.028   5.455   0.635 -0.2716 -1.4620  1.6932
  814TIP3    H223934   2.924   5.559   0.598  2.2413  0.6121  0.0455
  815TIP3   OH223935   6.331   0.963   3.585 -0.2708  0.0743  0.6691
  815TIP3    H123936   6.266   1.010   3.534 -0.6517 -0.5252  0.5931
  815TIP3    H223937   6.298   0.964   3.674  0.2509  0.8664  0.8709
  816TIP3   OH223938   1.969   0.611   3.687 -0.4023 -0.0329 -0.3193
  816TIP3    H123939   1.882   0.609   3.648 -0.6762  0.6751  0.2315
  816TIP3    H223940   2.023   0.557   3.630 -1.0328  0.1325 -1.0775
  817TIP3   OH223941   4.538   4.515   1.340 -0.1854 -0.0262 -0.1628
  817TIP3    H123942   4.570   4.429   1.369  0.4985  0.1376 -0.4177
  817TIP3    H223943   4.608   4.549   1.284 -0.6654  0.4890 -0.4564
  818TIP3   OH223944   6.053   5.705   4.548  0.4963 -0.2668 -0.7396
  818TIP3    H123945   5.977   5.711   4.607  1.1401  1.2819 -0.0327
  818TIP3    H223946   6.071   5.611   4.544 -2.6074 -0.9187 -2.4812
  819TIP3   OH223947   5.495   0.065   1.800  0.7462  1.1233 -0.0539
  819TIP3    H123948   5.408   0.104   1.795 -0.2759 -0.6821  1.8455
  819TIP3    H223949   5.515   0.037   1.711  0.1255  3.0029 -0.8217
  820TIP3   OH223950   2.656   3.007  10.875 -0.0139 -0.0535  0.0688
  820TIP3    H123951   2.619   3.012  10.786 -0.0052  0.1717  0.0759
  820TIP3    H223952   2.600   2.945  10.921  0.7108 -1.1077 -0.4421
  821TIP3   OH223953   2.633   2.332   4.509  0.3442 -0.6165 -0.9037
  821TIP3    H123954   2.595   2.260   4.458 -0.6779  0.5531 -1.8366
  821TIP3    H223955   2.725   2.335   4.480  0.8501 -2.5375  0.3175
  822TIP3   OH223956   0.734   5.454   1.954  0.6101  0.4010 -1.3134
  822TIP3    H123957   0.752   5.540   1.917 -2.6151  1.7604 -0.0780
  822TIP3    H223958   0.671   5.470   2.024  1.2162 -2.8113  0.1740
  823TIP3   OH223959   3.682   5.382   4.272 -0.2507  0.0033  0.2842
  823TIP3    H123960   3.595   5.350   4.297 -0.5634  1.8662  1.8764
  823TIP3    H223961   3.664   5.463   4.224  0.5665  1.2495  1.9694
  824TIP3   OH223962   6.482   5.926  11.407 -0.2447 -0.2844  0.2092
  824TIP3    H123963   6.479   5.831  11.411 -2.4790 -0.2189  1.6043
  824TIP3    H223964   6.470   5.954  11.498 -1.1625  1.3326 -0.3732
  825TIP3   OH223965   1.345   2.291   0.360  0.8827  0.3560 -0.3066
  825TIP3    H123966   1.346   2.332   0.274 -0.0305  1.8459  0.3458
  825TIP3    H223967   1.287   2.215   0.350  0.9973  0.3604 -1.0498
  826TIP3   OH223968   4.418   4.285  15.537 -0.0996 -0.2062 -0.1853
  826TIP3    H123969   4.379   4.327  15.461 -0.2475 -0.0183 -0.0056
  826TIP3    H223970   4.368   4.318  15.612 -0.2103 -0.6826 -0.0415
  827TIP3   OH223971   6.618   3.376  14.152 -0.1261 -0.4819 -0.1525
  827TIP3    H123972   6.559   3.315  14.109 -0.0277 -0.4463 -0.3409
  827TIP3    H223973   6.562   3.426  14.211 -0.4308  0.1122 -0.9295
  828TIP3   OH223974   6.165   6.479  14.128 -0.4218 -0.4207 -0.6325
  828TIP3    H123975   6.097   6.474  14.195 -0.0362  0.5674 -0.1500
  828TIP3    H223976   6.165   6.571  14.101  1.5717 -0.1122  0.2823
  829TIP3   OH223977   6.629   2.534   2.416  0.6153 -0.0485 -0.3970
  829TIP3    H123978   6.693   2.485   2.467  0.0661 -0.0182  0.3392
  829TIP3    H223979   6.605   2.608   2.472 -0.8799 -0.6658 -0.1786
  830TIP3   OH223980   0.667   2.338  12.735  0.0519  0.5935  0.0433
  830TIP3    H123981   0.703   2.275  12.672  1.1957  1.4220 -0.1521
  830TIP3    H223982   0.577   2.309  12.748  0.0756 -0.1398 -1.2600
  831TIP3   OH223983   4.387   0.071   5.263  0.5191  0.0260 -0.2970
  831TIP3    H123984   4.447   0.005   5.298 -0.0681  0.1350  1.0052
  831TIP3    H223985   4.367   0.042   5.174  1.8364 -0.4549 -0.4500
  832TIP3   OH223986   1.932   1.662  14.927 -0.2016 -0.8266 -0.3893
  832TIP3    H123987   2.004   1.621  14.878 -0.3515 -1.4222 -0.1230
  832TIP3    H223988   1.869   1.687  14.860 -0.3778 -1.5774 -0.5157
  833TIP3   OH223989   4.193   3.420  15.016  0.4185 -0.2746 -0.0591
  833TIP3    H123990   4.173   3.465  15.098 -0.4658 -1.3966  0.3661
  833TIP3    H223991   4.286   3.437  15.001  0.0068  2.1103 -0.2098
  834TIP3   OH223992   4.409   4.997   1.802  0.4450  0.3984 -0.0425
  834TIP3    H123993   4.441   5.079   1.839  0.3062  0.2510  0.4051
  834TIP3    H223994   4.382   4.945   1.877 -1.7504  0.8825 -0.4163
  835TIP3   OH223995   2.228   1.291  15.455  0.1859 -0.2194 -0.3270
  835TIP3    H123996   2.312   1.322  15.490 -0.4438  0.9488  0.1910
  835TIP3    H223997   2.191   1.367  15.410 -0.0837 -1.0483 -1.5484
  836TIP3   OH223998   4.289   6.804   4.072 -0.0368  0.0474 -0.1650
  836TIP3    H123999   4.355   6.873   4.068  0.0443 -0.0744 -1.2518
  836TIP3    H224000   4.336   6.728   4.105  0.6684 -0.3395 -1.9461
  837TIP3   OH224001   6.635   4.974  15.231 -0.0049  0.0403 -0.3527
  837TIP3    H124002   6.574   5.045  15.211 -0.1478  0.0138 -0.0128
  837TIP3    H224003   6.707   4.986  15.169 -0.3674  0.0545 -0.7698
  838TIP3   OH224004   2.698   6.440  15.910 -0.0461  0.1850  0.0021
  838TIP3    H124005   2.743   6.384  15.847 -1.3188 -1.9343  0.8890
  838TIP3    H224006   2.626   6.479  15.861  0.7759  1.0076 -0.5892
  839TIP3   OH224007   1.721   0.473   0.279  0.5306  0.3082 -0.3968
  839TIP3    H124008   1.674   0.393   0.255 -0.3846 -0.5025  3.4026
  839TIP3    H224009   1.782   0.488   0.206 -1.7280 -1.7538 -2.9095
  840TIP3   OH224010   1.556   0.052   4.034 -0.4773 -0.0405  0.5411
  840TIP3    H124011   1.592   0.084   3.951  2.1630 -2.0129  0.7964
  840TIP3    H224012   1.493   0.119   4.060 -0.3939  1.3261 -2.3530
  841TIP3   OH224013   2.144   5.654  12.485  0.3622 -0.4565 -0.2049
  841TIP3    H124014   2.227   5.665  12.439  0.7747 -2.9455 -0.1884
  841TIP3    H224015   2.166   5.601  12.561 -1.1677 -0.7134  0.0871
  842TIP3   OH224016   5.393   1.377   0.342 -0.5366  0.7761 -0.1398
  842TIP3    H124017   5.416   1.351   0.253  2.4589  2.5771 -0.0028
  842TIP3    H224018   5.436   1.312   0.398 -1.4489  0.3133  0.0392
  843TIP3   OH224019   2.210   0.125   5.183 -0.4779 -0.1862  0.3875
  843TIP3    H124020   2.265   0.051   5.208 -0.7933  0.0677  1.8788
  843TIP3    H224021   2.202   0.117   5.088  0.5372 -1.3281  0.3748
  844TIP3   OH224022   2.150   5.195  16.811 -0.0723 -0.1322  0.0097
  844TIP3    H124023   2.091   5.138  16.861 -1.0118  0.9645  0.1781
  844TIP3    H224024   2.102   5.276  16.800  1.4384  0.8369  0.2190
  845TIP3   OH224025   0.843   5.004   6.298  0.2486  0.0901  0.0888
  845TIP3    H124026   0.764   5.026   6.347  0.6329 -0.1219  0.8061
  845TIP3    H224027   0.870   5.087   6.258  0.0253  0.2999  0.3659
  846TIP3   OH224028   0.555   6.573  12.129  0.2788  0.1987 -0.2903
  846TIP3    H124029   0.598   6.652  12.161  1.8015 -1.1206  1.1098
  846TIP3    H224030   0.528   6.594  12.040 -0.3847  2.6445  0.4166
  847TIP3   OH224031   4.557   0.962   2.360  0.2813  0.4158 -0.1048
  847TIP3    H124032   4.591   1.048   2.386  0.4651 -0.6704  3.8391
  847TIP3    H224033   4.493   0.940   2.427  1.1279 -3.0270 -0.2495
  848TIP3   OH224034   2.885   2.519   6.046 -0.7060 -0.1658 -0.0288
  848TIP3    H124035   2.974   2.498   6.019 -1.3648 -0.9370 -1.7396
  848TIP3    H224036   2.874   2.612   6.025 -0.8921 -0.5236 -1.6512
  849TIP3   OH224037   3.426   4.680  14.755  0.0695 -0.1199  0.1499
  849TIP3    H124038   3.411   4.741  14.828 -1.4574  1.3693 -1.3417
  849TIP3    H224039   3.442   4.737  14.680  0.9328 -1.6251 -0.8420
  850TIP3   OH224040   6.507   5.493  16.852 -0.6899 -0.8929 -0.1899
  850TIP3    H124041   6.507   5.446  16.769  2.9019 -2.2722  0.3773
  850TIP3    H224042   6.527   5.583  16.829  0.0176 -1.2155 -0.8855
  851TIP3   OH224043   5.712   3.647   5.501 -0.2676  0.3945 -0.3135
  851TIP3    H124044   5.627   3.628   5.542  0.7073 -0.9894  1.2027
  851TIP3    H224045   5.754   3.561   5.491  0.5362  0.9318 -2.0847
  852TIP3   OH224046   6.670   4.417  11.401  0.7019  0.1296  0.3232
  852TIP3    H124047   6.655   4.368  11.481  0.5307 -0.7190 -0.2173
  852TIP3    H224048   6.586   4.459  11.383  0.0646 -1.4288 -0.5603
  853TIP3   OH224049   1.081   5.342   1.724 -0.0624 -0.0505  0.1202
  853TIP3    H124050   1.029   5.278   1.675 -2.0484  0.2022  1.7490
  853TIP3    H224051   1.163   5.349   1.675 -1.4872 -0.5757 -2.5503
  854TIP3   OH224052   4.506   3.782   4.014  0.1048  0.3111  0.4348
  854TIP3    H124053   4.547   3.838   3.948 -0.2167 -0.5808 -0.5550
  854TIP3    H224054   4.474   3.706   3.965 -2.0794  0.6114  1.2598
  855TIP3   OH224055   1.099   2.838   4.340  0.4790 -0.1833  0.0181
  855TIP3    H124056   1.039   2.880   4.278 -0.0324 -1.5668 -0.4747
  855TIP3    H224057   1.186   2.850   4.302  0.2353 -0.4416 -0.6397
  856TIP3   OH224058   2.704   6.536  16.354  0.4474  0.3297  0.4422
  856TIP3    H124059   2.704   6.451  16.310  0.8395  0.6506 -0.1974
  856TIP3    H224060   2.797   6.560  16.359  0.2750  1.1955 -0.3297
  857TIP3   OH224061   2.845   2.289   5.117  0.5821 -0.1754 -0.4221
  857TIP3    H124062   2.774   2.347   5.093 -0.4994 -1.1060  0.4125
  857TIP3    H224063   2.908   2.296   5.045  1.4476  3.4293  0.4885
  858TIP3   OH224064   2.026   4.232  10.979  0.1302 -0.2113  0.0698
  858TIP3    H124065   2.121   4.238  10.981  0.1215  0.8105 -1.1634
  858TIP3    H224066   2.007   4.163  10.915  0.0543  0.7591 -0.9884
  859TIP3   OH224067   2.979   0.733   3.838 -0.1404 -0.5584 -0.1249
  859TIP3    H124068   2.939   0.803   3.889  0.7609 -0.9632  1.1906
  859TIP3    H224069   3.036   0.778   3.775 -1.6890 -0.0324 -1.1919
  860TIP3   OH224070   1.445   4.684  16.935  0.0165 -0.3577  0.3420
  860TIP3    H124071   1.440   4.769  16.892  1.6904 -0.2903  0.1957
  860TIP3    H224072   1.354   4.660  16.953 -0.6270  0.4756 -1.5532
  861TIP3   OH224073   3.302   2.568   3.729 -0.0721 -0.3689  0.1895
  861TIP3    H124074   3.226   2.565   3.670  0.6676  0.3056 -0.8253
  861TIP3    H224075   3.338   2.480   3.727  0.6131 -0.0794 -1.2896
  862TIP3   OH224076   3.284   2.352   0.369  0.2193 -0.1459 -0.5326
  862TIP3    H124077   3.294   2.293   0.295  1.4494 -0.8225  0.1507
  862TIP3    H224078   3.344   2.319   0.435  0.0045  1.1295  0.3422
  863TIP3   OH224079   2.864   6.034   0.949 -0.5308 -0.1142 -0.1777
  863TIP3    H124080   2.893   6.084   1.025  1.2853 -0.9923 -0.2373
  863TIP3    H224081   2.771   6.056   0.939 -0.4107  1.2160  1.3309
  864TIP3   OH224082   4.198   0.816  13.874 -0.1009 -0.7829  0.0502
  864TIP3    H124083   4.228   0.823  13.964  2.0608 -1.2252 -0.5529
  864TIP3    H224084   4.159   0.729  13.868  1.6236 -1.6206  0.1406
  865TIP3   OH224085   6.783   0.653   3.534  0.1435 -0.5837  0.3317
  865TIP3    H124086   6.837   0.621   3.606  3.2880 -1.5160 -2.1575
  865TIP3    H224087   6.814   0.742   3.519 -1.1548 -0.0578  0.6857
  866TIP3   OH224088   0.714   5.121   0.397  0.1626  0.2660  0.4261
  866TIP3    H124089   0.621   5.131   0.377 -0.6691 -2.5467  2.2848
  866TIP3    H224090   0.723   5.149   0.488  1.3582  1.2490  0.0451
  867TIP3   OH224091   6.449   0.222   1.581 -0.2028 -0.4547  0.6532
  867TIP3    H124092   6.354   0.222   1.573 -0.1179  0.5121 -0.8137
  867TIP3    H224093   6.480   0.267   1.502  1.4637 -0.5687  1.1914
  868TIP3   OH224094   1.938   6.799  13.731  0.3172  0.2660  0.5460
  868TIP3    H124095   1.944   6.824  13.823  1.3217 -1.3213  0.9567
  868TIP3    H224096   2.014   6.743  13.716 -0.4282 -0.4204 -0.9572
  869TIP3   OH224097   1.889   3.264   5.380 -0.5910  0.5468  0.1052
  869TIP3    H124098   1.938   3.300   5.454 -0.8095 -0.4933  0.7785
  869TIP3    H224099   1.874   3.339   5.322  2.0548  0.8729 -0.3107
  870TIP3   OH224100   0.118   4.581  16.402 -0.1768 -0.3674 -0.5754
  870TIP3    H124101   0.085   4.649  16.460  1.2071  0.2218 -0.4418
  870TIP3    H224102   0.053   4.510  16.409  0.0786 -0.4468  1.9290
  871TIP3   OH224103   4.451   5.421   3.156  0.3727  0.1542  0.0088
  871TIP3    H124104   4.509   5.464   3.094 -1.5912  0.9090 -1.3796
  871TIP3    H224105   4.375   5.394   3.105  0.0555 -2.0720  1.4784
  872TIP3   OH224106   0.731   2.851   5.546 -0.3657  0.2422 -0.7308
  872TIP3    H124107   0.646   2.890   5.569  0.5679  2.2583 -0.4245
  872TIP3    H224108   0.748   2.787   5.615 -1.2229  0.4936 -0.2735
  873TIP3   OH224109   5.129   5.101   4.914 -0.2453 -0.0246  0.0780
  873TIP3    H124110   5.049   5.055   4.888 -1.5222  0.5956  2.6568
  873TIP3    H224111   5.192   5.030   4.931 -0.4885 -0.5526 -1.0892
  874TIP3   OH224112   2.004   3.351   5.651  0.4953  0.2402  0.0681
  874TIP3    H124113   1.935   3.325   5.712 -0.1140 -0.0040 -0.7047
  874TIP3    H224114   2.080   3.367   5.707 -0.3759  1.2650  1.0370
  875TIP3   OH224115   0.395   1.950   0.493 -0.2318  0.9891  0.0714
  875TIP3    H124116   0.318   1.958   0.549 -0.9211  1.8368 -0.9681
  875TIP3    H224117   0.398   1.857   0.470 -1.3110  1.0512 -0.3686
  876TIP3   OH224118   0.259   3.918   4.875  0.1978 -0.5275  0.4663
  876TIP3    H124119   0.190   3.934   4.940  0.3344 -0.9514  0.7177
  876TIP3    H224120   0.323   3.987   4.891 -0.0495 -0.2824  0.3989
  877TIP3   OH224121   1.113   2.671  11.674  0.0819 -0.0306  0.7510
  877TIP3    H124122   1.062   2.639  11.599 -1.1899  0.7372  1.2678
  877TIP3    H224123   1.122   2.765  11.659  0.7401 -0.0404  1.0443
  878TIP3   OH224124   1.381   6.645  11.389  0.5597  0.0169 -0.1961
  878TIP3    H124125   1.410   6.596  11.312  2.0433  0.5480 -0.0110
  878TIP3    H224126   1.443   6.718  11.395 -1.3474  1.7395 -0.2729
  879TIP3   OH224127   2.311   1.067   5.405 -0.2476  0.0342  0.2653
  879TIP3    H124128   2.266   1.126   5.465 -0.8258  0.1458 -0.2660
  879TIP3    H224129   2.387   1.036   5.454 -0.3468  0.6389  0.8111
  880TIP3   OH224130   0.647   0.808   0.676  0.3501  0.0748 -0.3080
  880TIP3    H124131   0.620   0.744   0.611 -1.4088  0.0837  0.3609
  880TIP3    H224132   0.666   0.888   0.626 -1.9431  0.3879 -0.7677
  881TIP3   OH224133   3.493   1.593  16.750  0.8677 -0.0831 -0.3422
  881TIP3    H124134   3.467   1.508  16.788  0.1517  1.3775  2.7811
  881TIP3    H224135   3.588   1.587  16.741  0.8079 -1.2965 -0.3719
  882TIP3   OH224136   1.998   4.432   2.990 -0.7192 -0.9164 -0.3807
  882TIP3    H124137   2.082   4.469   2.962 -0.2087 -1.0098  0.9495
  882TIP3    H224138   1.932   4.494   2.959 -0.1785 -0.8935 -1.5356
  883TIP3   OH224139   5.205   3.029  17.199  0.4088 -0.1614  0.1535
  883TIP3    H124140   5.171   3.103  17.149  2.7990  0.4720 -0.6893
  883TIP3    H224141   5.217   3.063  17.287  0.3806  0.0916  0.0585
  884TIP3   OH224142   4.908   2.339  12.246 -0.5696 -0.9563 -0.0867
  884TIP3    H124143   4.896   2.433  12.232  0.3924 -1.2183 -3.5739
  884TIP3    H224144   4.992   2.332  12.291  0.2168 -0.1528 -1.3689
  885TIP3   OH224145   2.612   2.660   4.096 -0.0403 -0.0132  0.4441
  885TIP3    H124146   2.554   2.666   4.019 -0.0710 -1.5162  0.3348
  885TIP3    H224147   2.569   2.715   4.161 -2.0739 -1.6776  0.6346
  886TIP3   OH224148   4.060   3.151   2.327 -0.3913 -0.3606  0.3059
  886TIP3    H124149   4.033   3.059   2.318 -1.5685  0.0301 -0.5199
  886TIP3    H224150   4.055   3.186   2.238  1.5659  0.1307  0.3430
  887TIP3   OH224151   0.274   6.321  11.518  0.6064 -0.2373 -0.3383
  887TIP3    H124152   0.225   6.328  11.600 -1.9362 -0.2154 -1.7652
  887TIP3    H224153   0.228   6.254  11.468  0.7687  1.2277 -2.5901
  888TIP3   OH224154   0.924   6.059  11.381 -0.7807 -0.0855 -0.2343
  888TIP3    H124155   0.854   6.124  11.371  0.4522  1.2695 -0.3302
  888TIP3    H224156   0.966   6.083  11.464 -0.5229 -0.9828 -0.1037
  889TIP3   OH224157   3.907   0.996  13.103 -0.0403 -0.3208 -0.5477
  889TIP3    H124158   3.912   0.904  13.076  1.8851 -0.1987 -0.7790
  889TIP3    H224159   3.987   1.010  13.154 -0.7243  1.0132  0.2114
  890TIP3   OH224160   5.351   0.258   0.034 -0.5167 -0.2253 -0.1283
  890TIP3    H124161   5.381   0.330   0.091  0.5953 -0.2475 -0.6571
  890TIP3    H224162   5.259   0.278   0.016 -0.2597  1.0048 -0.1617
  891TIP3   OH224163   6.221   4.102   2.746 -0.0591  0.3355  0.3804
  891TIP3    H124164   6.181   4.141   2.824 -0.0770  3.0007 -0.8402
  891TIP3    H224165   6.313   4.093   2.769  0.1004  1.9134  0.4665
  892TIP3   OH224166   1.619   1.306  10.846  0.0914  0.3427 -0.2540
  892TIP3    H124167   1.556   1.243  10.809  1.4870 -0.7956 -0.7960
  892TIP3    H224168   1.652   1.354  10.770  0.3928  0.4537 -0.0540
  893TIP3   OH224169   2.854   1.099  16.761 -0.4509 -0.1544 -0.0611
  893TIP3    H124170   2.769   1.063  16.738 -0.8787  1.4360 -1.1015
  893TIP3    H224171   2.888   1.039  16.827 -2.0450 -1.2255 -0.1579
  894TIP3   OH224172   0.012   4.939   5.916 -0.4453 -0.1939 -0.5150
  894TIP3    H124173  -0.068   4.951   5.967  0.3288  2.9568  0.1865
  894TIP3    H224174  -0.017   4.899   5.834 -2.4410 -0.6968  0.3867
  895TIP3   OH224175   1.298   4.426   3.365 -0.7731  0.1350 -0.1538
  895TIP3    H124176   1.245   4.351   3.339 -2.1712  0.7903  0.6692
  895TIP3    H224177   1.332   4.403   3.451  1.1251 -0.6709 -1.0625
  896TIP3   OH224178   1.719   6.237  16.888 -0.0540 -0.1896 -0.1385
  896TIP3    H124179   1.747   6.327  16.874  1.0047 -0.7384 -2.0912
  896TIP3    H224180   1.773   6.206  16.961 -1.0283  0.9714  1.1022
  897TIP3   OH224181   4.420   6.435  13.092  0.2775  0.2036  0.4060
  897TIP3    H124182   4.505   6.390  13.096  0.4827  0.5912  0.4681
  897TIP3    H224183   4.438   6.515  13.042  0.2071  0.8585  1.4170
  898TIP3   OH224184   6.664   0.467  11.061  0.2352  0.0544  0.2233
  898TIP3    H124185   6.655   0.393  11.001  1.9598 -0.0354  0.0094
  898TIP3    H224186   6.591   0.524  11.040 -0.1596 -0.7948 -0.7869
  899TIP3   OH224187   2.860   5.912   4.611  0.3802 -0.3993 -0.0663
  899TIP3    H124188   2.923   5.852   4.651  0.9161 -0.2307 -0.6389
  899TIP3    H224189   2.913   5.988   4.587  0.4091 -1.1032 -2.5069
  900TIP3   OH224190   6.559   0.700   4.879  0.0332 -0.4215  0.2089
  900TIP3    H124191   6.566   0.782   4.928 -1.3970 -0.3762  0.3818
  900TIP3    H224192   6.466   0.677   4.885  0.0393 -1.0070 -1.5256
  901TIP3   OH224193   5.752   1.544  13.134  0.0039  0.1162  0.1705
  901TIP3    H124194   5.740   1.555  13.039 -2.3053 -1.1754  0.2214
  901TIP3    H224195   5.836   1.499  13.142  0.0803 -0.0817 -1.3072
  902TIP3   OH224196   3.099   0.483  14.362 -0.0425  0.6442 -0.1989
  902TIP3    H124197   3.102   0.578  14.365  1.2525  0.6008  1.5862
  902TIP3    H224198   3.161   0.459  14.293  0.6303  1.0845  0.2369
  903TIP3   OH224199   3.700   3.221   3.847  0.3390 -0.0386 -0.8670
  903TIP3    H124200   3.658   3.302   3.818  0.0621 -0.3470 -1.3385
  903TIP3    H224201   3.627   3.160   3.860  0.4401  0.1300  0.6281
  904TIP3   OH224202   6.700   4.524  17.129 -0.9890  0.4117 -0.2155
  904TIP3    H124203   6.773   4.495  17.184 -0.5153  0.4821 -0.7926
  904TIP3    H224204   6.622   4.493  17.174 -0.6801  1.3913  1.0752
  905TIP3   OH224205   2.088   4.607   4.475  0.1408  0.9416 -0.1676
  905TIP3    H124206   1.996   4.628   4.456  0.4419  1.6174 -0.9349
  905TIP3    H224207   2.084   4.544   4.547 -0.9808 -0.0442 -1.0535
  906TIP3   OH224208   2.374   0.904  13.790  0.0212  0.4251  0.2217
  906TIP3    H124209   2.282   0.900  13.763 -0.2438  0.3378  1.1046
  906TIP3    H224210   2.397   0.996  13.784  0.3853  0.2450 -1.6094
  907TIP3   OH224211   0.913   4.674  14.699  0.3464 -0.1396 -0.2065
  907TIP3    H124212   0.910   4.590  14.747  1.8135  1.0542  2.1534
  907TIP3    H224213   0.962   4.654  14.620 -1.2730 -1.9857 -0.8318
  908TIP3   OH224214   4.225   1.913   1.963 -0.0724  0.6844 -0.6338
  908TIP3    H124215   4.185   1.950   2.042 -1.5443 -1.0113 -0.5342
  908TIP3    H224216   4.301   1.864   1.996 -0.7094 -0.0612 -0.2456
  909TIP3   OH224217   1.620   2.748   4.368  0.0734  0.0920  0.2671
  909TIP3    H124218   1.605   2.656   4.344  0.1413 -0.1777  1.2271
  909TIP3    H224219   1.647   2.745   4.459  1.4048  0.9648 -0.0756
  910TIP3   OH224220   4.006   4.341  16.664  0.0367 -0.0224 -0.3471
  910TIP3    H124221   3.964   4.356  16.579  2.1557  0.2099 -1.4182
  910TIP3    H224222   4.024   4.429  16.698 -0.0776 -0.1144 -0.0475
  911TIP3   OH224223   4.551   0.658   4.138 -0.0591 -0.6497  0.6768
  911TIP3    H124224   4.475   0.715   4.132  1.1368  1.0026  0.7025
  911TIP3    H224225   4.514   0.571   4.156 -1.9500 -0.0199  0.0751
  912TIP3   OH224226   0.380   4.332  11.631 -0.1573  0.2786  0.1670
  912TIP3    H124227   0.390   4.263  11.697 -1.4510 -0.6521 -0.5649
  912TIP3    H224228   0.466   4.373  11.627  0.5771 -1.1041  0.8271
  913TIP3   OH224229   3.488   0.222   1.680 -0.0058  0.4745  0.7457
  913TIP3    H124230   3.554   0.190   1.741  1.5921 -0.4173 -1.3409
  913TIP3    H224231   3.485   0.155   1.611 -0.6782  2.1300 -0.9010
  914TIP3   OH224232   0.086   3.250   1.875 -0.1973 -0.0915  0.1516
  914TIP3    H124233   0.079   3.256   1.970 -0.4495  0.6525  0.0891
  914TIP3    H224234   0.180   3.252   1.858 -0.0980 -1.3015  0.4403
  915TIP3   OH224235   4.023   3.652   0.313 -0.3002 -0.2891 -0.0514
  915TIP3    H124236   4.091   3.687   0.370 -0.0750 -0.6958 -0.0701
  915TIP3    H224237   4.066   3.583   0.263  0.0093  1.2252 -2.0266
  916TIP3   OH224238   6.443   3.664  12.892  0.0069  0.2057 -0.3266
  916TIP3    H124239   6.516   3.633  12.946  1.8788  2.6164 -1.2434
  916TIP3    H224240   6.482   3.681  12.807 -1.9365  0.4444 -1.2275
  917TIP3   OH224241   4.145   3.453  14.742  0.0558  0.3022  0.0010
  917TIP3    H124242   4.149   3.393  14.817  0.4558  0.9142  0.4781
  917TIP3    H224243   4.099   3.530  14.776 -1.1655 -0.0428 -0.8319
  918TIP3   OH224244   2.409   3.559   3.244 -0.1746  0.0497  0.5914
  918TIP3    H124245   2.443   3.516   3.322  0.9092 -1.9363 -0.8606
  918TIP3    H224246   2.482   3.555   3.182 -1.6050 -0.1923 -1.1496
  919TIP3   OH224247   3.793   0.651  15.114  0.1224  0.0854  0.0899
  919TIP3    H124248   3.722   0.605  15.068 -0.2062 -0.2649  0.9278
  919TIP3    H224249   3.860   0.664  15.047  1.0775 -3.3221  0.2012
  920TIP3   OH224250   6.195   1.881  12.301 -0.4399 -0.0950  0.4244
  920TIP3    H124251   6.288   1.904  12.310 -0.8555  1.6343  0.6171
  920TIP3    H224252   6.148   1.962  12.320 -2.0920 -1.3842  2.3019
  921TIP3   OH224253   3.876   3.436  13.126  0.3749 -0.4768  0.1764
  921TIP3    H124254   3.963   3.417  13.162  0.6553 -0.1593 -0.3249
  921TIP3    H224255   3.890   3.447  13.032 -0.7539 -3.9190 -0.5245
  922TIP3   OH224256   1.467   5.682  14.279 -0.4173 -0.2414 -0.0401
  922TIP3    H124257   1.479   5.615  14.212 -0.5927  0.8046 -1.1414
  922TIP3    H224258   1.555   5.718  14.293 -0.2676 -0.8876  0.7815
  923TIP3   OH224259   2.350   3.504  13.586  0.1749 -0.0842  0.2806
  923TIP3    H124260   2.407   3.429  13.600  0.0114 -0.9005 -2.8736
  923TIP3    H224261   2.394   3.556  13.519 -1.5454  0.6408 -0.3297
  924TIP3   OH224262   3.474   1.835  15.362  0.1226  0.1228  0.3352
  924TIP3    H124263   3.482   1.744  15.334 -2.5091 -0.1957  0.3922
  924TIP3    H224264   3.384   1.860  15.339  0.0299  1.9969  2.3598
  925TIP3   OH224265   5.188   6.227   1.130 -0.2458  0.0734  0.3695
  925TIP3    H124266   5.215   6.253   1.042 -3.0226 -0.0497 -0.6403
  925TIP3    H224267   5.269   6.215   1.178  1.3673  0.4686 -2.0803
  926TIP3   OH224268   2.626   5.350  14.159  0.6901 -0.4570 -0.2313
  926TIP3    H124269   2.695   5.285  14.176  0.6760 -0.1804  0.9958
  926TIP3    H224270   2.642   5.378  14.069  1.9842 -0.6401 -0.0881
  927TIP3   OH224271   2.244   2.416  13.490  0.4480 -0.3565  0.4506
  927TIP3    H124272   2.318   2.477  13.493  0.5926 -0.5017 -0.0629
  927TIP3    H224273   2.245   2.373  13.575 -1.3486  2.2995  1.9682
  928TIP3   OH224274   4.853   2.851  10.824  0.2400 -0.2211  0.0777
  928TIP3    H124275   4.859   2.927  10.766 -1.5125  0.1476  0.3251
  928TIP3    H224276   4.910   2.785  10.783  1.5620  1.0998 -0.2950
  929TIP3   OH224277   2.825   4.735   0.425 -0.1114 -0.2670  0.4609
  929TIP3    H124278   2.749   4.677   0.418 -0.2989 -0.1832  1.5360
  929TIP3    H224279   2.839   4.767   0.336 -0.6041 -1.2013  0.0283
  930TIP3   OH224280   3.571   2.337   5.999 -0.0701 -0.4105  0.1333
  930TIP3    H124281   3.643   2.302   6.052  0.1195  0.2646  0.3300
  930TIP3    H224282   3.497   2.340   6.060 -0.5128 -1.8815 -0.2806
  931TIP3   OH224283   4.506   2.807  15.182  0.1419  0.0677 -0.3064
  931TIP3    H124284   4.487   2.834  15.272 -0.0735  0.0780 -0.3554
  931TIP3    H224285   4.586   2.756  15.189  0.6746  0.8903 -0.2353
  932TIP3   OH224286   6.069   0.350  13.075  0.7180 -0.1520  0.0675
  932TIP3    H124287   6.092   0.383  12.988  1.0865  1.5839  0.7745
  932TIP3    H224288   6.004   0.413  13.108  2.0318  0.3814  1.8002
  933TIP3   OH224289   6.514   2.709  11.872  0.4586  0.0924 -0.1768
  933TIP3    H124290   6.573   2.784  11.872 -0.9376  1.2355 -0.4719
  933TIP3    H224291   6.541   2.657  11.947  1.3794  0.9412  0.1000
  934TIP3   OH224292   1.788   3.467  17.053 -0.2740 -0.6446 -0.2583
  934TIP3    H124293   1.697   3.461  17.081  0.2661 -0.0480  1.7572
  934TIP3    H224294   1.800   3.560  17.033  0.2220 -0.4830  0.7477
  935TIP3   OH224295   3.624   5.641   2.789  0.4399  0.5056  0.0075
  935TIP3    H124296   3.613   5.736   2.800  0.3462  0.7644 -1.9844
  935TIP3    H224297   3.631   5.608   2.879 -1.0281  2.1920  0.8081
  936TIP3   OH224298   4.609   2.166  15.431 -0.3790 -0.0083  0.3790
  936TIP3    H124299   4.614   2.257  15.403 -0.1397  0.1611  0.9594
  936TIP3    H224300   4.515   2.148  15.435 -0.4472 -0.6346 -2.3669
  937TIP3   OH224301   2.066   3.262   1.895  0.1017  0.2791  0.3046
  937TIP3    H124302   2.074   3.187   1.954  1.1788  0.1096 -0.0354
  937TIP3    H224303   2.033   3.225   1.813 -1.2471  0.4921  0.7190
  938TIP3   OH224304   3.127   6.110  16.084  0.4104 -0.2431 -0.0157
  938TIP3    H124305   3.206   6.158  16.109 -0.6386  1.8582 -0.5679
  938TIP3    H224306   3.160   6.031  16.040  2.1837 -0.4264  1.5382
  939TIP3   OH224307   4.957   4.288   2.326  0.2039 -0.2554  0.6815
  939TIP3    H124308   5.035   4.232   2.318  0.3401  0.0328 -0.0163
  939TIP3    H224309   4.977   4.345   2.400  0.1302 -1.0162  1.3074
  940TIP3   OH224310   2.475   6.793   3.810 -0.0141  0.3954 -0.4696
  940TIP3    H124311   2.517   6.762   3.890 -1.2408  0.7759  0.3595
  940TIP3    H224312   2.458   6.886   3.826 -0.5287  0.4056 -1.0441
  941TIP3   OH224313   0.333   2.635  10.936 -0.0008  0.0292 -0.1307
  941TIP3    H124314   0.384   2.694  10.881 -3.1144  0.8021 -2.5010
  941TIP3    H224315   0.310   2.562  10.879 -2.4842  0.3473  0.3357
  942TIP3   OH224316   4.172   4.448  14.270  0.8256 -0.3471  0.3056
  942TIP3    H124317   4.130   4.362  14.274  0.2119 -0.1211 -0.8561
  942TIP3    H224318   4.203   4.456  14.180  0.0050  1.0343  0.1087
  943TIP3   OH224319   0.525   5.686  14.913 -0.0430 -0.0007  0.7451
  943TIP3    H124320   0.475   5.766  14.933  0.5004  0.5582 -0.0803
  943TIP3    H224321   0.617   5.713  14.921  0.1605 -0.2688 -0.5258
  944TIP3   OH224322   6.188   0.102  16.937  0.3617 -0.0921 -0.1332
  944TIP3    H124323   6.133   0.026  16.920  0.2527  0.3039 -1.6660
  944TIP3    H224324   6.127   0.176  16.939  0.4106 -0.0454  1.7686
  945TIP3   OH224325   3.967   0.241   4.000  0.0314  0.5969 -0.3674
  945TIP3    H124326   3.895   0.301   3.983 -0.7406 -0.2898 -0.3574
  945TIP3    H224327   4.016   0.238   3.918 -0.5674  0.4156 -0.7294
  946TIP3   OH224328   1.988   1.952  15.026 -0.5556  0.3650 -0.1519
  946TIP3    H124329   1.991   2.035  14.977 -1.8784  0.1455 -0.6527
  946TIP3    H224330   2.031   1.889  14.969  0.2141  0.6325  0.1133
  947TIP3   OH224331   4.688   5.322  13.108 -0.4098 -0.3126  0.7182
  947TIP3    H124332   4.623   5.254  13.090 -1.1089  0.1634  1.3641
  947TIP3    H224333   4.769   5.274  13.124 -0.9285 -1.0136  1.3234
  948TIP3   OH224334   1.650   4.227  14.152 -0.1466  0.4540  0.6929
  948TIP3    H124335   1.704   4.284  14.208  0.4118 -0.0478  0.6630
  948TIP3    H224336   1.572   4.280  14.134 -0.6971  0.3755  2.5568
  949TIP3   OH224337   2.216   1.989  15.903 -0.0757 -0.2657  0.2582
  949TIP3    H124338   2.128   1.960  15.880  0.6001 -2.1908 -0.1305
  949TIP3    H224339   2.216   1.996  15.998 -1.2643  2.0730  0.1531
  950TIP3   OH224340   5.954   4.604   4.155  0.0753  0.4907  0.5695
  950TIP3    H124341   5.913   4.524   4.188  0.6594  0.3163  0.8754
  950TIP3    H224342   6.043   4.579   4.134 -0.4728  0.3981 -1.9162
  951TIP3   OH224343   2.687   4.396  10.743  0.4569  0.2920 -0.2776
  951TIP3    H124344   2.642   4.431  10.666  0.9740  0.7692 -0.3660
  951TIP3    H224345   2.636   4.318  10.767  0.0067  0.4185 -0.8040
  952TIP3   OH224346   3.423   0.868  17.162 -0.8218 -0.4442  0.0238
  952TIP3    H124347   3.399   0.790  17.112 -3.1737  0.9981 -1.2696
  952TIP3    H224348   3.467   0.924  17.098  0.5909 -0.5410  0.8721
  953TIP3   OH224349   1.710   2.775  15.488 -0.1504  0.2631 -0.3445
  953TIP3    H124350   1.778   2.709  15.478 -2.3119 -2.3617  1.0647
  953TIP3    H224351   1.638   2.745  15.433 -0.9311  1.9098 -0.2953
  954TIP3   OH224352   1.527   0.383  11.618 -0.2719  0.1613 -0.1874
  954TIP3    H124353   1.592   0.383  11.548  0.2139  2.1430  0.2048
  954TIP3    H224354   1.475   0.461  11.602 -1.0635 -0.1316  0.8603
  955TIP3   OH224355   6.033   4.544   4.812  0.0746 -0.4560 -0.1548
  955TIP3    H124356   5.944   4.559   4.842  0.0483  1.1706 -0.9431
  955TIP3    H224357   6.061   4.628   4.775  1.6369 -1.1593 -0.6804
  956TIP3   OH224358   1.165   5.886  15.779 -0.4255 -0.4330 -0.2138
  956TIP3    H124359   1.238   5.912  15.723 -0.1860 -2.1655 -0.7526
  956TIP3    H224360   1.089   5.928  15.739 -0.0813 -0.6624 -1.1369
  957TIP3   OH224361   4.069   6.447  10.794 -0.4242  0.0777  0.2315
  957TIP3    H124362   4.122   6.369  10.807  0.2599  0.6286  0.8370
  957TIP3    H224363   4.045   6.445  10.701  0.1941 -0.4704  0.0768
  958TIP3   OH224364   5.743   3.915   1.407 -0.1760 -0.8874 -0.2159
  958TIP3    H124365   5.741   3.853   1.480  1.1776 -3.0763 -1.8923
  958TIP3    H224366   5.658   3.905   1.364 -0.1125 -1.3071 -0.2471
  959TIP3   OH224367   1.083   5.873   3.760  0.0381  0.1711 -0.7989
  959TIP3    H124368   1.042   5.835   3.838 -1.1450  0.9546 -1.0082
  959TIP3    H224369   1.087   5.801   3.697  0.3491 -0.2862 -0.2614
  960TIP3   OH224370   5.245   3.174  12.041  0.0518 -0.0568  0.1763
  960TIP3    H124371   5.305   3.100  12.034 -0.7155 -0.6364 -0.4789
  960TIP3    H224372   5.280   3.227  12.113  0.9622 -0.7215  0.2378
  961TIP3   OH224373   6.236   3.140  16.607  0.1136  0.2058  0.3258
  961TIP3    H124374   6.247   3.198  16.683 -3.2003  2.4563 -0.6719
  961TIP3    H224375   6.320   3.097  16.597  1.5191  1.8255  3.6384
  962TIP3   OH224376   1.535   1.911   3.287  0.3440 -0.1371  0.3178
  962TIP3    H124377   1.625   1.938   3.304  0.5347 -0.4640 -0.1726
  962TIP3    H224378   1.515   1.848   3.356  0.1751  0.6242  0.9797
  963TIP3   OH224379   2.467   4.929   3.240 -0.3818 -0.8255 -0.3978
  963TIP3    H124380   2.473   5.018   3.206  2.6695 -0.8469 -0.1578
  963TIP3    H224381   2.506   4.875   3.171 -0.5536 -1.7517  0.2187
  964TIP3   OH224382   0.251   6.186   0.829  0.5835 -0.0675  0.1329
  964TIP3    H124383   0.257   6.090   0.828 -0.6062 -0.1526 -0.3549
  964TIP3    H224384   0.159   6.204   0.845  0.9924  1.0247  1.4433
  965TIP3   OH224385   2.409   3.207  10.452  0.2728  0.1954 -0.1991
  965TIP3    H124386   2.386   3.297  10.430  1.2564  1.0610  1.9847
  965TIP3    H224387   2.486   3.188  10.399 -0.5466  0.2296 -1.4399
  966TIP3   OH224388   5.713   3.492   3.243 -0.6346  0.3215  0.4144
  966TIP3    H124389   5.676   3.533   3.166  0.6667 -0.1348 -0.4999
  966TIP3    H224390   5.691   3.399   3.234 -0.6217  0.2912  0.6766
  967TIP3   OH224391   2.101   0.093   0.396 -0.5889 -0.1993 -0.2012
  967TIP3    H124392   2.060   0.177   0.374 -1.9554 -1.0888 -1.1608
  967TIP3    H224393   2.086   0.083   0.490 -0.6257  0.5127 -0.1260
  968TIP3   OH224394   5.632   2.513   1.406 -0.1740  0.5207  0.5512
  968TIP3    H124395   5.709   2.457   1.408  0.7130  1.7232  0.9394
  968TIP3    H224396   5.567   2.465   1.458  0.2642 -0.5431  0.1485
  969TIP3   OH224397   5.300   0.952   5.494  0.5460  0.1532  0.4000
  969TIP3    H124398   5.207   0.957   5.475  0.6352  0.4420  0.0354
  969TIP3    H224399   5.316   0.859   5.510  0.2673  0.0539  0.1078
  970TIP3   OH224400   1.269   5.506   2.644  0.1994  0.3086  0.1625
  970TIP3    H124401   1.266   5.462   2.729 -2.1860  0.0567  0.0135
  970TIP3    H224402   1.262   5.435   2.581  1.3523  0.5486 -0.2535
  971TIP3   OH224403   3.977   6.292   3.585  0.1937 -0.0307 -0.1266
  971TIP3    H124404   3.894   6.337   3.604  0.0526 -0.3716  0.0804
  971TIP3    H224405   4.040   6.362   3.575  0.0025  0.2163  0.3199
  972TIP3   OH224406   1.098   0.063  12.505 -0.4579 -0.1154  0.4920
  972TIP3    H124407   1.168   0.002  12.528 -2.6136 -3.3151 -0.6990
  972TIP3    H224408   1.097   0.062  12.409 -2.1516 -0.1841  0.4881
  973TIP3   OH224409   6.650   6.027   3.901 -0.1643  0.5781  0.1344
  973TIP3    H124410   6.631   6.068   3.816 -1.7319  0.7949  0.5556
  973TIP3    H224411   6.601   6.080   3.964 -2.4421 -1.9366  0.6787
  974TIP3   OH224412   5.078   6.172   4.539  0.2407  0.4939 -0.1322
  974TIP3    H124413   5.034   6.089   4.558 -0.8911  0.5672 -2.1876
  974TIP3    H224414   5.035   6.235   4.598  1.8399 -0.4695  2.2258
  975TIP3   OH224415   3.474   1.615  11.842 -0.3357  0.3502  0.3026
  975TIP3    H124416   3.500   1.566  11.764  0.0412  0.2928  0.4595
  975TIP3    H224417   3.447   1.548  11.905  2.3998  0.0930  1.3666
  976TIP3   OH224418   4.217   4.032   0.657 -0.2772  0.1050  0.4067
  976TIP3    H124419   4.189   4.059   0.745  0.3695  1.8362  0.1316
  976TIP3    H224420   4.148   3.974   0.626 -1.5200  1.0573  1.2939
  977TIP3   OH224421   0.751   6.468   2.907  0.0102  0.0636 -0.1972
  977TIP3    H124422   0.675   6.496   2.957  1.2296  1.7006  0.8499
  977TIP3    H224423   0.802   6.416   2.969 -0.7321 -2.0209 -1.2266
  978TIP3   OH224424   0.765   1.108  15.395 -0.3647  0.1960  0.6227
  978TIP3    H124425   0.786   1.186  15.447 -4.3491  1.6177  0.4136
  978TIP3    H224426   0.787   1.133  15.306  3.5361 -1.1147  1.0355
  979TIP3   OH224427   3.503   2.092  14.744  0.2958  0.0974 -0.0369
  979TIP3    H124428   3.456   2.037  14.807 -0.2996  0.9510  0.2807
  979TIP3    H224429   3.558   2.149  14.798  0.7983 -0.0803 -0.3557
  980TIP3   OH224430   3.331   4.530  11.443 -0.0883 -0.1868 -0.3491
  980TIP3    H124431   3.278   4.595  11.488 -1.5613 -0.4807 -1.5683
  980TIP3    H224432   3.336   4.562  11.352  0.6114 -0.9118 -0.5857
  981TIP3   OH224433   1.021   5.684  15.112 -0.5978  0.3297  0.4206
  981TIP3    H124434   1.067   5.601  15.105 -1.0296  0.2058 -1.1829
  981TIP3    H224435   0.981   5.681  15.200  1.0570 -0.2446  1.1941
  982TIP3   OH224436   6.007   3.673  10.924  0.2254 -0.2502 -0.0977
  982TIP3    H124437   6.013   3.716  10.839  1.8191  0.2517  0.2360
  982TIP3    H224438   6.032   3.582  10.907 -0.3367 -0.3705 -0.3069
  983TIP3   OH224439   4.671   5.298  14.272 -0.2325 -0.2994  0.2033
  983TIP3    H124440   4.645   5.208  14.251  0.9780 -1.4523  3.2152
  983TIP3    H224441   4.593   5.351  14.251 -0.9651 -1.9715 -1.6371
  984TIP3   OH224442   5.045   6.367  15.703  0.0365 -0.3768  0.2904
  984TIP3    H124443   5.093   6.314  15.767  0.0371  0.7618  1.2647
  984TIP3    H224444   4.957   6.376  15.740  0.0990  0.4720  0.2497
  985TIP3   OH224445   2.622   6.243   4.361 -0.1834 -0.1277 -0.0193
  985TIP3    H124446   2.588   6.242   4.272 -0.7379 -0.5736  0.1922
  985TIP3    H224447   2.597   6.158   4.397 -1.9436  0.8892  1.3031
  986TIP3   OH224448   0.211   3.633   5.647 -0.1572 -0.2305 -0.4145
  986TIP3    H124449   0.266   3.594   5.714  0.5363  0.8161 -0.3452
  986TIP3    H224450   0.265   3.631   5.568 -0.4022 -0.1112 -0.5869
  987TIP3   OH224451   1.653   1.226   5.071  0.2795  0.3093  0.1038
  987TIP3    H124452   1.690   1.160   5.012 -0.9825 -1.9156  1.6644
  987TIP3    H224453   1.711   1.302   5.060  2.3751 -1.3323 -1.1055
  988TIP3   OH224454   4.628   3.662  12.987  0.2217 -0.3828  0.8630
  988TIP3    H124455   4.626   3.577  13.031 -0.3841 -0.9504 -0.2177
  988TIP3    H224456   4.714   3.665  12.945  0.4320 -0.2449  1.2965
  989TIP3   OH224457   2.262   3.845  13.130 -0.3133 -0.0311  0.1512
  989TIP3    H124458   2.348   3.859  13.089  0.3535 -1.2002  1.0515
  989TIP3    H224459   2.254   3.915  13.194  0.5976 -0.6751  0.9954
  990TIP3   OH224460   2.473   6.184   1.302 -0.2319 -0.0614  0.3637
  990TIP3    H124461   2.534   6.119   1.266 -1.7024 -2.4632  1.8988
  990TIP3    H224462   2.528   6.258   1.326  1.9351 -1.6566  0.6392
  991TIP3   OH224463   4.917   3.645  12.975  0.4354  0.1824 -0.1984
  991TIP3    H124464   4.960   3.653  13.061 -1.1287 -1.9940  0.8736
  991TIP3    H224465   4.985   3.611  12.917  0.9625 -0.3625  0.7189
  992TIP3   OH224466   3.414   2.928  14.884  0.1091 -0.5217  0.3452
  992TIP3    H124467   3.494   2.963  14.923  0.3588 -1.1625  0.4132
  992TIP3    H224468   3.388   2.995  14.820  0.6070 -0.2355  0.4331
  993TIP3   OH224469   0.757   0.349  13.399  0.1086 -0.3532  0.1010
  993TIP3    H124470   0.780   0.423  13.455 -1.0709 -1.0161  1.5126
  993TIP3    H224471   0.784   0.272  13.448  0.8250 -0.9200 -1.1194
  994TIP3   OH224472   3.002   1.894   4.934  0.3939 -0.2530  0.5113
  994TIP3    H124473   2.960   1.842   4.865  1.6950 -0.6910  0.0141
  994TIP3    H224474   2.939   1.964   4.953 -1.6228 -2.2362  1.5514
  995TIP3   OH224475   4.520   2.774   3.005 -0.1111 -0.1456  0.3592
  995TIP3    H124476   4.461   2.846   3.029  0.7628  0.0871  1.9352
  995TIP3    H224477   4.554   2.799   2.919  0.3303  1.4596  0.9588
  996TIP3   OH224478   3.453   4.624  14.173 -0.0124  0.4373 -0.5150
  996TIP3    H124479   3.399   4.697  14.203 -0.5654 -0.3929  0.5778
  996TIP3    H224480   3.543   4.651  14.190 -0.1621  1.1954 -0.9065
  997TIP3   OH224481   5.173   1.054  11.627 -0.4599  0.2161  0.1190
  997TIP3    H124482   5.137   0.979  11.674 -0.8383 -0.2022 -0.8106
  997TIP3    H224483   5.123   1.057  11.545  2.4828 -1.2807 -1.9217
  998TIP3   OH224484   2.645   0.967  16.294  0.1456 -0.2398  0.0454
  998TIP3    H124485   2.676   1.056  16.311 -0.4512  0.1777 -0.9361
  998TIP3    H224486   2.566   0.979  16.241  0.3311 -1.3618 -0.5135
  999TIP3   OH224487   4.794   6.409  11.745 -0.1930  0.0466 -0.0643
  999TIP3    H124488   4.719   6.351  11.753  0.2202 -0.4586  0.2248
  999TIP3    H224489   4.861   6.370  11.802  0.2953  0.4691 -0.3394
 1000TIP3   OH224490   4.635   2.251   5.197  0.3706 -0.1953 -0.2457
 1000TIP3    H124491   4.649   2.222   5.287  1.2960 -1.8721 -0.8933
 1000TIP3    H224492   4.638   2.171   5.144 -0.7930  0.6627 -1.7156
 1001TIP3   OH224493   2.516   4.731  13.628  0.0147 -1.3170  0.0502
 1001TIP3    H124494   2.480   4.817  13.650 -0.9970 -1.3541 -1.3084
 1001TIP3    H224495   2.539   4.692  13.712 -0.5302 -0.1524  0.7623
 1002TIP3   OH224496   6.227   0.692   0.926 -0.3677  0.4713  0.0896
 1002TIP3    H124497   6.318   0.674   0.947 -0.5857  1.6721  2.4129
 1002TIP3    H224498   6.229   0.726   0.836  1.4010  0.1608 -0.0152
 1003TIP3   OH224499   6.627   3.855  16.258  0.1903  0.1669  0.0037
 1003TIP3    H124500   6.643   3.896  16.343  0.6719 -2.0469  1.0390
 1003TIP3    H224501   6.708   3.868  16.209  0.5353 -0.0110  0.5173
 1004TIP3   OH224502   5.480   6.456  13.299  0.2728  0.1076 -0.1814
 1004TIP3    H124503   5.531   6.535  13.315 -0.6419  0.4761  1.2246
 1004TIP3    H224504   5.505   6.397  13.370 -0.2428 -0.2237 -0.2699
 1005TIP3   OH224505   0.773   5.974  16.148  0.3737  0.4895  0.1946
 1005TIP3    H124506   0.856   5.946  16.109  0.0859  1.0018 -0.8366
 1005TIP3    H224507   0.736   6.035  16.083  0.3792  2.2460  1.7569
 1006TIP3   OH224508   2.280   3.729  14.123  0.0922 -0.3184  0.0835
 1006TIP3    H124509   2.321   3.814  14.139  2.6618 -1.4071 -0.2371
 1006TIP3    H224510   2.237   3.738  14.038  1.4505  0.2986 -0.5626
 1007TIP3   OH224511   0.097   4.829  12.718  0.3794 -0.2878  0.6536
 1007TIP3    H124512   0.050   4.884  12.655 -0.4899 -1.6594  0.0508
 1007TIP3    H224513   0.072   4.863  12.804  0.6690  0.8720  0.3051
 1008TIP3   OH224514   3.861   1.323   4.382  0.0334 -0.9003 -0.2741
 1008TIP3    H124515   3.810   1.248   4.413 -0.9848  0.2002  0.7999
 1008TIP3    H224516   3.952   1.292   4.384 -0.2777 -1.8340  1.0331
 1009TIP3   OH224517   0.035   0.452  12.650  0.1945 -0.0073  0.2609
 1009TIP3    H124518   0.054   0.499  12.569  1.0405  0.5920  0.7917
 1009TIP3    H224519   0.114   0.461  12.703 -0.7454  0.5851  1.6230
 1010TIP3   OH224520   6.247   1.669   5.860 -0.4090 -0.3833  0.0759
 1010TIP3    H124521   6.339   1.643   5.861 -0.3529 -0.2211 -0.5749
 1010TIP3    H224522   6.248   1.762   5.841 -0.5942  0.2295  2.6786
 1011TIP3   OH224523   1.634   0.558  14.260  0.1420 -0.2152  0.2934
 1011TIP3    H124524   1.693   0.634  14.256  0.0977 -0.2131 -3.0812
 1011TIP3    H224525   1.690   0.484  14.236 -0.4264 -0.8131  0.7931
 1012TIP3   OH224526   2.189   1.309   1.779 -0.2280  0.1507 -0.3827
 1012TIP3    H124527   2.228   1.351   1.857 -2.4012 -1.7172  1.8862
 1012TIP3    H224528   2.117   1.367   1.755 -2.1950 -1.2090  1.7402
 1013TIP3   OH224529   6.252   6.514  16.115 -0.1381  0.2680 -0.1255
 1013TIP3    H124530   6.343   6.543  16.110 -0.2646  0.5955 -0.7338
 1013TIP3    H224531   6.215   6.538  16.030 -0.6810 -0.2436 -0.0433
 1014TIP3   OH224532   5.618   0.667  13.253  0.0422 -0.1986 -0.3132
 1014TIP3    H124533   5.581   0.728  13.189  0.5099 -0.0339 -0.4286
 1014TIP3    H224534   5.607   0.581  13.213  0.6358 -0.0687 -0.7660
 1015TIP3   OH224535   0.486   4.038  12.611  0.3903  0.5994  0.1656
 1015TIP3    H124536   0.545   4.108  12.639 -0.0675  2.8172 -3.6585
 1015TIP3    H224537   0.398   4.074  12.624  0.1130  0.3180 -0.8398
 1016TIP3   OH224538   1.884   3.488  14.555  0.0347 -0.9918 -0.0896
 1016TIP3    H124539   1.930   3.514  14.476 -0.6322 -1.5238 -0.6705
 1016TIP3    H224540   1.796   3.464  14.525  0.4272 -3.3433  0.4732
 1017TIP3   OH224541   0.494   6.808   4.837  0.3615 -0.3029 -0.5410
 1017TIP3    H124542   0.583   6.785   4.812 -0.5231 -1.0070 -3.4472
 1017TIP3    H224543   0.446   6.726   4.833 -0.8234  0.3892 -1.2431
 1018TIP3   OH224544   5.516   6.214  11.495  0.3047  0.1607 -0.3995
 1018TIP3    H124545   5.597   6.261  11.477  0.1275  1.2513  1.4098
 1018TIP3    H224546   5.452   6.282  11.516 -0.6743 -0.7583 -0.2912
 1019TIP3   OH224547   3.937   5.458   3.917 -0.6436 -0.0852 -0.1065
 1019TIP3    H124548   3.947   5.377   3.968 -2.5404  0.8573  1.9162
 1019TIP3    H224549   3.965   5.527   3.977  0.3350  0.8632 -1.5878
 1020TIP3   OH224550   3.724   5.261   0.128 -1.0138 -0.3778  0.0044
 1020TIP3    H124551   3.742   5.263   0.222 -1.0256 -3.0147  0.1246
 1020TIP3    H224552   3.807   5.284   0.087  0.3394 -3.5706  0.6788
 1021TIP3   OH224553   1.573   3.813  12.112  0.4060  0.2627 -0.2450
 1021TIP3    H124554   1.522   3.844  12.037  1.5644  1.6510 -0.5078
 1021TIP3    H224555   1.594   3.893  12.162 -0.2732 -0.6103  1.5440
 1022TIP3   OH224556   4.891   0.942  15.819 -0.4765  0.1240 -0.7384
 1022TIP3    H124557   4.863   0.878  15.885  0.0218  0.8532  0.1984
 1022TIP3    H224558   4.959   0.896  15.769  2.1485  0.8703  1.9067
 1023TIP3   OH224559   6.306   1.602   2.684  0.1886 -0.0406 -0.0639
 1023TIP3    H124560   6.240   1.643   2.629 -0.0049 -1.3232 -0.8353
 1023TIP3    H224561   6.281   1.626   2.774 -2.4041 -1.8970 -0.1775
 1024TIP3   OH224562   2.383   2.853   4.958 -0.5251  0.2441  0.1512
 1024TIP3    H124563   2.421   2.825   5.042 -0.7461  0.5411  0.3534
 1024TIP3    H224564   2.396   2.947   4.957 -0.4361  0.2264 -0.1951
 1025TIP3   OH224565   2.693   5.330  13.893 -0.7935 -0.3465  0.2664
 1025TIP3    H124566   2.688   5.235  13.903 -1.1733 -0.2428  1.1337
 1025TIP3    H224567   2.786   5.351  13.901 -0.6524 -0.6831 -0.3899
 1026TIP3   OH224568   4.524   5.151  13.448  0.0587 -0.3197 -0.6524
 1026TIP3    H124569   4.438   5.178  13.415  0.8858 -0.0653 -2.7200
 1026TIP3    H224570   4.517   5.057  13.461 -0.8810 -0.1292  0.3951
 1027TIP3   OH224571   1.831   5.483   0.117 -0.0609  0.2762  0.2053
 1027TIP3    H124572   1.849   5.575   0.099 -0.4683  0.6849  1.7941
 1027TIP3    H224573   1.810   5.446   0.031  1.4052  1.3361 -0.6558
 1028TIP3   OH224574   1.027   2.984  16.590 -0.3664  0.3204  0.0308
 1028TIP3    H124575   1.016   2.910  16.531 -1.7095  0.0457  0.5818
 1028TIP3    H224576   1.116   2.976  16.624 -0.6616 -1.3471  0.4754
 1029TIP3   OH224577   0.148   2.337   6.002 -0.0826  0.4084 -0.1888
 1029TIP3    H124578   0.190   2.406   6.054 -0.8991  0.2881  0.6556
 1029TIP3    H224579   0.087   2.384   5.945  0.5278  0.5049 -0.7846
 1030TIP3   OH224580   4.422   3.714  14.736  1.1044  0.0898  0.0421
 1030TIP3    H124581   4.386   3.711  14.825  0.6783  0.0974 -0.1229
 1030TIP3    H224582   4.477   3.636  14.729  0.5527 -0.3146  0.0758
 1031TIP3   OH224583   5.052   5.178  15.494 -0.5480  0.3821  0.0211
 1031TIP3    H124584   5.016   5.191  15.581  0.5286  0.3753  0.4824
 1031TIP3    H224585   5.104   5.257  15.477 -0.3339  0.1579 -0.3936
 1032TIP3   OH224586   1.786   3.214  16.356  0.0056  0.1528 -0.4207
 1032TIP3    H124587   1.828   3.219  16.271 -2.0807 -0.3031 -1.5482
 1032TIP3    H224588   1.854   3.182  16.415  2.3478  3.2698 -1.2148
 1033TIP3   OH224589   1.919   3.398   2.762 -0.2086  0.3788 -0.1039
 1033TIP3    H124590   1.940   3.305   2.776 -1.0532 -0.4468 -3.4978
 1033TIP3    H224591   1.990   3.445   2.807  1.3415 -1.9409  0.0858
 1034TIP3   OH224592   1.941   5.585   0.692 -0.1165  0.3629 -0.1338
 1034TIP3    H124593   1.889   5.659   0.725  1.6606  1.6633 -0.1336
 1034TIP3    H224594   1.993   5.557   0.767 -0.1004 -0.3058 -0.3908
 1035TIP3   OH224595   0.033   3.458   6.855  0.1282  0.6213  0.4351
 1035TIP3    H124596  -0.012   3.413   6.783  2.7324 -0.1862 -0.8242
 1035TIP3    H224597   0.028   3.396   6.928  3.6948 -2.1001 -1.2861
 1036TIP3   OH224598   5.916   3.926   3.078  0.2809  0.0895  0.4176
 1036TIP3    H124599   5.852   3.856   3.063 -0.1270  0.7697 -1.2834
 1036TIP3    H224600   5.996   3.895   3.035 -0.0761  0.8730 -0.8843
 1037TIP3   OH224601   4.249   5.477  13.336  0.3086 -0.2509  0.5074
 1037TIP3    H124602   4.340   5.466  13.311 -0.2104 -1.2036 -1.1159
 1037TIP3    H224603   4.229   5.401  13.390  0.4138 -0.1769  0.6498
 1038TIP3   OH224604   0.193   5.712   2.079 -0.3608 -0.4859  0.2354
 1038TIP3    H124605   0.199   5.806   2.094 -1.1498 -0.7214  2.4817
 1038TIP3    H224606   0.242   5.673   2.151 -2.6582 -1.8021  1.2035
 1039TIP3   OH224607   3.888   3.725  16.994  0.8936  0.4560 -0.3265
 1039TIP3    H124608   3.885   3.802  17.050 -0.4273  0.4318 -0.3160
 1039TIP3    H224609   3.974   3.686  17.010  0.9267  0.9960  0.9357
 1040TIP3   OH224610   1.756   6.095   5.111 -0.4739  0.3429 -0.8962
 1040TIP3    H124611   1.790   6.088   5.022  0.1583 -0.8905 -0.5821
 1040TIP3    H224612   1.662   6.109   5.100 -0.1959  1.6977 -1.7583
 1041TIP3   OH224613   5.710   1.496   6.195 -0.1814 -0.2968 -0.0625
 1041TIP3    H124614   5.689   1.403   6.185  1.4787 -1.0079  2.3324
 1041TIP3    H224615   5.657   1.525   6.269  2.0456 -0.4033  1.6864
 1042TIP3   OH224616   4.355   6.721  14.313  0.3873 -0.1593  0.6558
 1042TIP3    H124617   4.431   6.771  14.341  1.0026 -1.2328  0.9612
 1042TIP3    H224618   4.288   6.787  14.295  1.2084  0.7683  0.9153
 1043TIP3   OH224619   6.434   3.840   0.493 -0.2067 -0.3233  0.3110
 1043TIP3    H124620   6.455   3.750   0.469 -1.7710 -0.8706  0.8521
 1043TIP3    H224621   6.519   3.885   0.496  0.5852 -1.7414 -0.0662
 1044TIP3   OH224622   2.509   1.058   4.590 -0.0598 -0.0573 -0.0078
 1044TIP3    H124623   2.443   1.010   4.541 -0.0192 -0.3660  0.2422
 1044TIP3    H224624   2.463   1.137   4.620 -0.5099 -0.5858  0.7336
 1045TIP3   OH224625   3.443   4.841  13.121 -0.8854  0.1590  0.8062
 1045TIP3    H124626   3.392   4.835  13.201 -2.0109 -2.5048 -0.0259
 1045TIP3    H224627   3.403   4.779  13.061  0.2247  1.6764 -1.7016
 1046TIP3   OH224628   5.333   6.513   2.040 -0.1717 -0.4306  0.0750
 1046TIP3    H124629   5.276   6.474   2.106  1.5139 -1.7956  0.7756
 1046TIP3    H224630   5.377   6.584   2.085  0.8113 -1.2203  0.3915
 1047TIP3   OH224631   0.802   6.201  11.660 -0.0942  0.7832 -0.0898
 1047TIP3    H124632   0.895   6.181  11.664 -0.2464  0.2490  1.3358
 1047TIP3    H224633   0.796   6.292  11.689  0.0536  1.0825 -0.9813
 1048TIP3   OH224634   1.345   5.624  16.287 -0.0263 -0.0491  0.2892
 1048TIP3    H124635   1.359   5.578  16.370  1.6280  1.6439  1.0168
 1048TIP3    H224636   1.279   5.690  16.306 -0.8893 -0.7470 -0.2166
 1049TIP3   OH224637   2.667   5.391   1.753  0.3533  0.4436 -0.1559
 1049TIP3    H124638   2.676   5.329   1.825 -0.4371 -0.0477 -0.4744
 1049TIP3    H224639   2.619   5.343   1.686  1.8386  0.5772 -1.3871
 1050TIP3   OH224640   2.426   6.296   3.649 -0.3203 -0.0100 -0.2855
 1050TIP3    H124641   2.426   6.263   3.739 -1.5056 -1.2605 -0.7058
 1050TIP3    H224642   2.361   6.241   3.603 -0.0855  0.9051 -1.7868
 1051TIP3   OH224643   2.287   1.112   0.553 -0.0606  0.5122  0.3079
 1051TIP3    H124644   2.283   1.141   0.644 -2.1194  0.0717  0.3910
 1051TIP3    H224645   2.288   1.016   0.559  0.4688  0.4810 -0.1393
 1052TIP3   OH224646   6.646   2.672   1.050  0.0582  0.6256  0.5256
 1052TIP3    H124647   6.679   2.762   1.052  1.2635  0.2018  0.2824
 1052TIP3    H224648   6.624   2.652   1.141  1.0090  0.7406  0.7926
 1053TIP3   OH224649   0.082   6.534  14.314  0.0737 -0.0043 -0.1986
 1053TIP3    H124650  -0.012   6.551  14.328  0.5589  1.7593  1.3115
 1053TIP3    H224651   0.091   6.527  14.219 -1.5279  0.2273 -0.3978
 1054TIP3   OH224652   0.633   0.846  12.274 -0.4879 -0.0196 -0.1477
 1054TIP3    H124653   0.622   0.939  12.291 -0.2657  0.0022 -0.1276
 1054TIP3    H224654   0.708   0.840  12.216  0.8653 -0.3379  1.5586
 1055TIP3   OH224655   4.339   4.733  13.302 -0.2818  0.5599 -0.0878
 1055TIP3    H124656   4.360   4.643  13.275  1.0719  1.5935 -2.8236
 1055TIP3    H224657   4.408   4.756  13.364  0.7722  0.4871 -1.2107
 1056TIP3   OH224658   5.254   3.846   3.700 -0.3086  0.2709  0.2659
 1056TIP3    H124659   5.194   3.898   3.646  0.8326  1.8014  0.4263
 1056TIP3    H224660   5.340   3.860   3.662  0.2590 -0.1813  1.3322
 1057TIP3   OH224661   4.089   2.855  12.909  0.1350  0.0285  0.3189
 1057TIP3    H124662   4.058   2.800  12.838  0.0407  0.2238  0.2091
 1057TIP3    H224663   4.059   2.943  12.887 -0.5474 -0.0287  0.9765
 1058TIP3   OH224664   6.346   4.726   2.052  0.2237 -0.5161 -0.0787
 1058TIP3    H124665   6.285   4.685   1.991 -1.5859 -0.4812  1.6190
 1058TIP3    H224666   6.363   4.812   2.014 -0.3114 -0.7605 -0.8999
 1059TIP3   OH224667   6.600   2.133  15.003 -0.0797  0.5499  0.3177
 1059TIP3    H124668   6.585   2.039  15.011  0.5670  0.1847 -1.9829
 1059TIP3    H224669   6.692   2.145  15.023 -0.2447  0.7593  0.9665
 1060TIP3   OH224670   2.994   0.107  14.179  0.2894  0.2678 -0.4928
 1060TIP3    H124671   3.049   0.087  14.255  0.2037 -0.7485 -0.6813
 1060TIP3    H224672   2.947   0.187  14.203  0.2502 -0.0571  0.5293
 1061TIP3   OH224673   3.584   5.545   1.022 -0.1078 -0.3958 -0.0790
 1061TIP3    H124674   3.610   5.465   0.976 -0.5545 -0.6258  0.0668
 1061TIP3    H224675   3.523   5.588   0.963  1.5044  0.7707 -0.9721
 1062TIP3   OH224676   4.397   3.102   1.918 -0.0109  0.3804 -0.2339
 1062TIP3    H124677   4.388   3.051   1.837  0.4315 -0.9862  0.5521
 1062TIP3    H224678   4.451   3.177   1.893  0.7686 -0.4255 -1.0363
 1063TIP3   OH224679   0.002   2.915   3.242  0.2816  0.1503 -0.0213
 1063TIP3    H124680  -0.043   2.853   3.299 -1.4265  0.6583 -0.7322
 1063TIP3    H224681  -0.029   2.893   3.154  0.9099  0.9743 -0.4597
 1064TIP3   OH224682   5.209   3.565  16.380  0.1055  0.3004 -0.1830
 1064TIP3    H124683   5.285   3.621  16.395 -0.5291  1.0538  0.3029
 1064TIP3    H224684   5.203   3.511  16.459  0.1686  0.2065 -0.2428
 1065TIP3   OH224685   0.581   0.771   4.365 -0.8677  0.3226 -0.3507
 1065TIP3    H124686   0.515   0.779   4.434 -2.1450 -2.6929 -1.0396
 1065TIP3    H224687   0.544   0.817   4.291 -0.6468  1.4384  0.2175
 1066TIP3   OH224688   4.756   3.257  13.813 -0.5250 -0.3326  0.6141
 1066TIP3    H124689   4.666   3.280  13.834 -0.5526 -0.9032  1.1468
 1066TIP3    H224690   4.751   3.168  13.780 -0.1087 -0.5188  1.0448
 1067TIP3   OH224691   4.320   0.799  16.352  0.4514 -0.2338 -0.0773
 1067TIP3    H124692   4.357   0.718  16.319  3.3855 -0.2050  2.6261
 1067TIP3    H224693   4.286   0.777  16.439  0.3763  1.2087  0.2968
 1068TIP3   OH224694   5.055   2.662   1.429  0.4386  0.2928 -0.0779
 1068TIP3    H124695   5.056   2.710   1.512 -2.3830 -0.8502  0.7326
 1068TIP3    H224696   5.068   2.571   1.453  1.0331  0.0957 -1.0777
 1069TIP3   OH224697   0.824   4.795   0.536 -0.1172  0.6312 -0.4283
 1069TIP3    H124698   0.757   4.790   0.467  1.5572  0.4222 -2.1107
 1069TIP3    H224699   0.797   4.869   0.590 -1.0720  1.3176 -1.7836
 1070TIP3   OH224700   2.266   6.186   0.140 -0.2642 -0.2898 -0.4660
 1070TIP3    H124701   2.333   6.168   0.075  0.7117  0.7187  0.2277
 1070TIP3    H224702   2.208   6.249   0.099  1.1908  1.5113  0.1006
 1071TIP3   OH224703   1.852   2.966  15.834 -0.1302 -0.7938 -0.5181
 1071TIP3    H124704   1.757   2.966  15.835 -0.1664  0.0008  1.6434
 1071TIP3    H224705   1.876   3.057  15.817  0.1751 -0.5844  0.8989
 1072TIP3   OH224706   4.700   0.299  12.551 -0.1109 -0.0540  0.3122
 1072TIP3    H124707   4.605   0.288  12.554 -0.6463  3.0917 -1.1277
 1072TIP3    H224708   4.735   0.211  12.562 -3.1300 -1.1843  1.9296
 1073TIP3   OH224709   4.246   1.982   0.462 -0.6279 -0.2762 -0.3308
 1073TIP3    H124710   4.158   1.948   0.476 -1.2406  0.2908 -2.4538
 1073TIP3    H224711   4.292   1.912   0.416 -0.7374  0.3418 -1.3960
 1074TIP3   OH224712   2.019   4.527   4.173 -0.8297 -0.2609 -0.3520
 1074TIP3    H124713   2.081   4.575   4.117 -0.3702 -0.5492 -0.0941
 1074TIP3    H224714   2.073   4.463   4.219 -1.4830 -1.1974 -0.8704
 1075TIP3   OH224715   1.640   2.981   0.154 -0.0770  0.2532 -0.3626
 1075TIP3    H124716   1.566   2.946   0.203  0.0303  1.3443  0.6056
 1075TIP3    H224717   1.605   2.995   0.066 -1.0063  0.7023  0.0686
 1076TIP3   OH224718   5.787   3.432  17.112 -0.1819 -0.1738  0.2513
 1076TIP3    H124719   5.755   3.520  17.090  0.2129 -0.3026 -0.9028
 1076TIP3    H224720   5.731   3.373  17.062  0.0571 -0.5351  0.4073
 1077TIP3   OH224721   1.383   1.202  13.682 -0.0732 -0.3618 -0.3376
 1077TIP3    H124722   1.479   1.208  13.687 -0.0818  1.8416 -1.6055
 1077TIP3    H224723   1.366   1.165  13.595 -0.3529  0.4312 -0.6342
 1078TIP3   OH224724   1.187   5.839  15.276  0.6309 -0.7779  0.4946
 1078TIP3    H124725   1.214   5.925  15.244 -2.0748  0.3245  0.8298
 1078TIP3    H224726   1.114   5.814  15.219 -0.1461 -1.7415  1.8395
 1079TIP3   OH224727   0.619   2.993  13.980 -0.5794  0.2367  0.4362
 1079TIP3    H124728   0.576   2.908  13.992  0.9878 -0.5762  0.5226
 1079TIP3    H224729   0.678   3.001  14.055  1.8979 -0.2668 -1.3085
 1080TIP3   OH224730   4.023   1.646  13.559 -0.4190 -0.1397  0.5878
 1080TIP3    H124731   3.957   1.601  13.505  0.7505 -0.1195 -0.9398
 1080TIP3    H224732   3.986   1.647  13.647 -2.5596  0.0925 -0.2679
 1081TIP3   OH224733   0.208   6.508  14.043 -0.2459 -0.0221 -0.0115
 1081TIP3    H124734   0.298   6.500  14.075 -0.2434  1.7823  0.5488
 1081TIP3    H224735   0.217   6.522  13.949  0.0805  0.2221  0.0537
 1082TIP3   OH224736   2.987   0.845   1.575  0.2058 -0.8117 -0.5370
 1082TIP3    H124737   3.019   0.774   1.521  2.2410 -0.7617  0.5179
 1082TIP3    H224738   3.030   0.923   1.541 -0.4743 -0.3866 -0.4454
 1083TIP3   OH224739   5.111   1.946   0.996  0.2923 -0.4594 -0.1349
 1083TIP3    H124740   5.114   1.877   0.930 -1.1519  0.1054 -0.8306
 1083TIP3    H224741   5.124   2.027   0.947  1.1030 -0.1559  0.5578
 1084TIP3   OH224742   4.413   3.423  14.676 -0.5755 -0.4610 -0.0704
 1084TIP3    H124743   4.319   3.417  14.692 -0.7151  1.3853 -0.0439
 1084TIP3    H224744   4.421   3.465  14.590  0.2460 -1.4191 -0.4945
 1085TIP3   OH224745   2.635   0.798  13.318 -0.6519  0.1874  0.0408
 1085TIP3    H124746   2.576   0.851  13.264 -2.1830  1.0957  2.4363
 1085TIP3    H224747   2.706   0.857  13.342 -0.8817  0.3132  0.4172
 1086TIP3   OH224748   5.855   5.476  14.420 -0.5267  0.3107  0.2748
 1086TIP3    H124749   5.904   5.394  14.421 -0.8454 -0.1080 -3.4913
 1086TIP3    H224750   5.763   5.450  14.416 -0.6213  0.7484 -1.3111
 1087TIP3   OH224751   1.656   3.777  10.980  0.3360 -0.4000  0.7071
 1087TIP3    H124752   1.581   3.836  10.976  0.9347  0.3078 -0.4932
 1087TIP3    H224753   1.628   3.707  11.039 -1.6760 -0.7261 -0.5369
 1088TIP3   OH224754   5.832   4.578   3.553  1.1965  0.3283 -0.5635
 1088TIP3    H124755   5.881   4.500   3.526  0.0483 -1.5067  2.1665
 1088TIP3    H224756   5.767   4.591   3.485  1.9234 -0.6081 -1.4574
 1089TIP3   OH224757   6.418   1.700  13.541 -0.5814 -0.3438  0.2645
 1089TIP3    H124758   6.456   1.719  13.626 -0.8117 -2.4098  0.8887
 1089TIP3    H224759   6.325   1.720  13.550 -0.5963 -0.5171  0.4884
 1090TIP3   OH224760   4.302   4.965  14.560 -0.0694  0.0398  0.3524
 1090TIP3    H124761   4.249   5.039  14.589  0.9712  0.9350  0.0162
 1090TIP3    H224762   4.320   4.916  14.640 -1.8369 -0.6037  0.4014
 1091TIP3   OH224763   6.138   4.299  16.324  0.1294 -0.8913  0.7165
 1091TIP3    H124764   6.087   4.240  16.380  0.9865 -0.6726  1.7550
 1091TIP3    H224765   6.201   4.243  16.280 -1.0493 -1.1863 -0.6901
 1092TIP3   OH224766   0.677   0.589   0.453  0.0810 -0.2255  0.4021
 1092TIP3    H124767   0.587   0.555   0.446 -0.6393  1.3947  1.3150
 1092TIP3    H224768   0.703   0.605   0.362 -0.6316 -0.5276  0.1316
 1093TIP3   OH224769   0.589   5.853  14.103 -0.3778 -0.1344 -0.6296
 1093TIP3    H124770   0.644   5.815  14.172  2.0037  0.8226 -1.8790
 1093TIP3    H224771   0.607   5.798  14.026 -1.2911  0.1330 -1.0447
 1094TIP3   OH224772   1.788   1.235  14.697  0.2754 -0.2238  0.1502
 1094TIP3    H124773   1.843   1.157  14.705  0.6493  0.0147 -0.0201
 1094TIP3    H224774   1.845   1.307  14.723 -0.7435 -0.2075  2.5954
 1095TIP3   OH224775   0.111   4.176   1.106  0.2288 -0.3440 -0.3015
 1095TIP3    H124776   0.181   4.197   1.043  0.4791  1.6055  0.5694
 1095TIP3    H224777   0.085   4.087   1.083  1.8348 -0.4997 -1.7437
 1096TIP3   OH224778   6.720   0.073  14.225  0.3526 -0.4654  0.1522
 1096TIP3    H124779   6.755   0.049  14.311  0.5189  0.9000  0.4890
 1096TIP3    H224780   6.797   0.093  14.172  0.2290 -0.8848 -0.1970
 1097TIP3   OH224781   2.615   5.349  12.644 -0.2361 -0.1169  0.4258
 1097TIP3    H124782   2.663   5.288  12.587 -0.1588 -0.8380  1.2474
 1097TIP3    H224783   2.539   5.299  12.675 -0.3687  0.3238  0.8282
 1098TIP3   OH224784   1.794   4.353  10.343  0.8486  0.6335  0.1364
 1098TIP3    H124785   1.727   4.305  10.295 -0.2533 -1.3771  3.3705
 1098TIP3    H224786   1.867   4.360  10.282  0.5256 -3.9536 -1.1341
 1099TIP3   OH224787   2.802   6.287  16.893  0.0608  0.5391  0.3434
 1099TIP3    H124788   2.751   6.207  16.908 -0.0608  0.7889  1.3279
 1099TIP3    H224789   2.893   6.257  16.890  0.0819  0.4628  1.5526
 1100TIP3   OH224790   6.351   4.470   1.509 -0.1569 -0.1150 -0.4752
 1100TIP3    H124791   6.324   4.558   1.537  0.7272  0.0202 -0.0089
 1100TIP3    H224792   6.433   4.454   1.556 -1.5216 -2.1955  1.4273
 1101TIP3   OH224793   2.332   3.972   2.550 -0.8344  0.3150  0.6086
 1101TIP3    H124794   2.386   4.041   2.589 -0.1243  0.3650 -0.4483
 1101TIP3    H224795   2.345   3.981   2.456  2.0319 -3.3802  0.4603
 1102TIP3   OH224796   2.609   6.079   1.626 -0.0568  0.1592 -0.0247
 1102TIP3    H124797   2.615   5.994   1.582  0.0668  0.1521  0.0066
 1102TIP3    H224798   2.591   6.141   1.555  1.7013  0.3766 -0.3143
 1103TIP3   OH224799   1.619   6.094   0.239 -0.8232 -0.6397  0.0668
 1103TIP3    H124800   1.670   6.036   0.295 -0.6754  0.8045  1.4931
 1103TIP3    H224801   1.533   6.097   0.280 -0.6950  0.4811  0.2900
 1104TIP3   OH224802   4.663   4.352   2.021  0.3668  0.1648  0.1738
 1104TIP3    H124803   4.657   4.438   2.064  1.9331  0.3445  0.1112
 1104TIP3    H224804   4.581   4.344   1.972 -1.0316  0.4159  2.3212
 1105TIP3   OH224805   1.001   4.504   2.256 -0.7990  0.2728 -0.0382
 1105TIP3    H124806   1.030   4.535   2.170 -0.3313 -0.2800 -0.0813
 1105TIP3    H224807   1.060   4.547   2.318  1.3244 -2.1388 -0.2126
 1106TIP3   OH224808   0.460   2.264  15.943  0.1732  0.0374 -0.2742
 1106TIP3    H124809   0.395   2.288  15.877 -0.3175  0.7608  0.4570
 1106TIP3    H224810   0.448   2.170  15.956 -1.9611  0.4255  1.1181
 1107TIP3   OH224811   1.897   2.443   2.112  0.1653 -0.0458  0.6997
 1107TIP3    H124812   1.910   2.360   2.067 -3.9924 -0.7465  0.4099
 1107TIP3    H224813   1.914   2.423   2.204 -0.0073 -1.0229  0.5322
 1108TIP3   OH224814   4.942   5.199   0.728 -0.6417  0.4638 -0.4542
 1108TIP3    H124815   4.947   5.121   0.782  1.7351 -0.2721 -1.6329
 1108TIP3    H224816   4.870   5.250   0.766  0.0046 -0.6549  2.4680
 1109TIP3   OH224817   3.431   4.865   5.340 -0.2546 -0.4976 -0.4463
 1109TIP3    H124818   3.363   4.896   5.281 -0.5681  2.0753  1.0975
 1109TIP3    H224819   3.421   4.919   5.419  2.9055 -0.6764  0.2321
 1110TIP3   OH224820   2.387   2.645   0.143 -0.1266 -0.0758  0.2158
 1110TIP3    H124821   2.396   2.565   0.092  1.0722  0.5664 -0.6234
 1110TIP3    H224822   2.429   2.625   0.226 -1.4525 -0.8874  0.7359
 1111TIP3   OH224823   0.613   4.714   3.177  0.0431 -0.1863  0.1874
 1111TIP3    H124824   0.591   4.677   3.263 -1.3678 -0.8372 -0.4180
 1111TIP3    H224825   0.607   4.639   3.117 -0.6373  0.5897 -0.7279
 1112TIP3   OH224826   4.741   3.110   6.523  0.2652  0.1747 -0.4504
 1112TIP3    H124827   4.691   3.029   6.517  1.2467 -0.4082 -0.9418
 1112TIP3    H224828   4.789   3.103   6.605 -0.8123  0.9714  0.2917
 1113TIP3   OH224829   0.286   3.931  15.314  0.3423 -0.5054  0.3150
 1113TIP3    H124830   0.226   3.868  15.274 -0.0875 -0.5617  1.0319
 1113TIP3    H224831   0.289   4.004  15.253  1.6154 -1.6093 -1.0307
 1114TIP3   OH224832   1.326   2.275   5.795  0.7878 -0.4478  0.1703
 1114TIP3    H124833   1.323   2.370   5.780 -1.2873  0.0341  2.8640
 1114TIP3    H224834   1.398   2.263   5.857 -0.3344 -0.2695  1.5534
 1115TIP3   OH224835   0.591   0.299   1.995  0.2637 -0.2358  0.6699
 1115TIP3    H124836   0.512   0.351   1.986  0.5869  0.3817  1.2971
 1115TIP3    H224837   0.561   0.208   1.986 -0.8245 -0.1335  2.5663
 1116TIP3   OH224838   3.399   0.857  15.155  0.6165  0.0004  0.0841
 1116TIP3    H124839   3.338   0.905  15.098  1.5727 -0.8246 -1.6924
 1116TIP3    H224840   3.350   0.845  15.236 -0.8637  1.0734 -0.5893
 1117TIP3   OH224841   4.571   4.184  11.282 -0.0333 -0.1783 -0.0899
 1117TIP3    H124842   4.517   4.184  11.204 -0.0433 -0.9207 -0.0941
 1117TIP3    H224843   4.597   4.092  11.293  0.1309 -0.0492  0.6606
 1118TIP3   OH224844   1.457   5.327   6.447 -0.2042  0.0125  0.8003
 1118TIP3    H124845   1.370   5.289   6.431  0.0455 -0.4988  0.6245
 1118TIP3    H224846   1.486   5.286   6.528  0.5945 -1.1572 -0.0417
 1119TIP3   OH224847   3.589   5.519  13.347 -0.0354  0.2897 -0.5540
 1119TIP3    H124848   3.601   5.428  13.320 -0.5671  1.0310 -3.6491
 1119TIP3    H224849   3.502   5.521  13.387  0.1553 -0.5995 -0.0534
 1120TIP3   OH224850   1.555   5.484  15.173 -0.2138 -0.3056  0.1436
 1120TIP3    H124851   1.505   5.566  15.177  0.9579  0.5498 -1.4141
 1120TIP3    H224852   1.503   5.427  15.117 -0.8565 -0.4956  0.9292
 1121TIP3   OH224853   1.282   4.513  14.927  0.9901 -0.0755 -0.1538
 1121TIP3    H124854   1.207   4.455  14.946  0.4099  0.3033 -1.2256
 1121TIP3    H224855   1.254   4.564  14.851  2.5630 -0.3190 -0.9307
 1122TIP3   OH224856   2.285   2.402  16.238  0.2569 -0.4324  0.2127
 1122TIP3    H124857   2.263   2.309  16.236  0.0218 -0.3769  0.1528
 1122TIP3    H224858   2.238   2.439  16.164 -1.2617  0.0729  1.3602
 1123TIP3   OH224859   6.354   4.555  12.436  0.1701 -0.1523 -0.1429
 1123TIP3    H124860   6.361   4.625  12.371  0.6725  0.4122  0.5152
 1123TIP3    H224861   6.348   4.600  12.520 -2.2148 -0.8107  0.1199
 1124TIP3   OH224862   4.194   5.351  11.496  0.1855  0.0406  0.2205
 1124TIP3    H124863   4.155   5.312  11.575 -0.7529  1.5386  0.5326
 1124TIP3    H224864   4.231   5.434  11.525  1.0650 -0.0267 -0.6583
 1125TIP3   OH224865   3.580   4.872  11.652  0.6952 -0.8134  0.1823
 1125TIP3    H124866   3.637   4.796  11.641  1.7347 -0.6804  3.6427
 1125TIP3    H224867   3.492   4.835  11.661  0.5977 -1.2398 -2.0384
 1126TIP3   OH224868   4.076   5.635   1.889  0.1872 -0.1869 -0.2686
 1126TIP3    H124869   4.153   5.689   1.873  0.3569 -0.2238  0.3852
 1126TIP3    H224870   4.002   5.692   1.867  0.2750  1.0389  2.2098
 1127TIP3   OH224871   6.741   6.005  12.153 -0.4523  0.4051 -0.2764
 1127TIP3    H124872   6.692   5.987  12.073 -0.0035  2.8421 -1.1930
 1127TIP3    H224873   6.677   6.044  12.212 -0.7579 -1.2922  0.5699
 1128TIP3   OH224874   5.225   6.309   3.061 -0.7551  0.4790  0.3226
 1128TIP3    H124875   5.315   6.276   3.062 -0.5205  1.0211 -0.6756
 1128TIP3    H224876   5.198   6.310   3.152 -0.0038 -0.3872  0.5668
 1129TIP3   OH224877   4.723   0.396   4.016 -0.2594 -0.3253  0.3858
 1129TIP3    H124878   4.682   0.419   4.099  1.4461  1.1747  0.8740
 1129TIP3    H224879   4.787   0.328   4.039  1.0484  0.9175  0.5642
 1130TIP3   OH224880   4.466   2.475  11.287 -0.2603  0.1827 -0.3221
 1130TIP3    H124881   4.561   2.468  11.274  0.0582 -0.7352  1.9440
 1130TIP3    H224882   4.457   2.535  11.361 -1.5343  1.0559 -1.1590
 1131TIP3   OH224883   6.003   3.945   2.267  0.6896 -0.3261 -0.7712
 1131TIP3    H124884   6.082   3.893   2.279  0.2444 -1.3294 -1.9783
 1131TIP3    H224885   5.933   3.891   2.304  0.6580  1.0050  1.2592
 1132TIP3   OH224886   1.834   3.845   2.755  0.3942 -0.4206 -0.3046
 1132TIP3    H124887   1.829   3.937   2.783  1.6404 -0.0676 -1.1724
 1132TIP3    H224888   1.922   3.818   2.779  0.4770 -0.9907 -1.2344
 1133TIP3   OH224889   1.876   5.243   1.808  0.2665  0.5101 -0.3372
 1133TIP3    H124890   1.926   5.224   1.729  1.6503  0.4395  0.5127
 1133TIP3    H224891   1.923   5.197   1.878 -0.6013  1.0189  0.6156
 1134TIP3   OH224892   6.461   2.657   3.692 -0.2984 -0.1012  0.4835
 1134TIP3    H124893   6.426   2.682   3.777 -0.9071 -0.9622  0.4999
 1134TIP3    H224894   6.543   2.707   3.683 -0.1912 -0.0695  1.6026
 1135TIP3   OH224895   3.539   3.280  14.159 -0.3022 -0.5587  0.5258
 1135TIP3    H124896   3.462   3.291  14.103 -0.6871 -0.7500  1.0117
 1135TIP3    H224897   3.539   3.188  14.183  0.8223 -0.8547 -0.5174
 1136TIP3   OH224898   0.917   4.506   6.284 -0.1062 -0.5882  0.0762
 1136TIP3    H124899   0.973   4.582   6.266 -1.1005 -0.2697 -2.0387
 1136TIP3    H224900   0.977   4.438   6.314  1.3235 -0.0018 -1.3244
 1137TIP3   OH224901   0.605   6.331  12.263 -0.2811  0.5098 -0.5873
 1137TIP3    H124902   0.666   6.379  12.320 -0.7276 -0.5977  0.8977
 1137TIP3    H224903   0.548   6.399  12.227 -0.5443  1.1943  1.0173
 1138TIP3   OH224904   5.850   3.292   0.087  0.5768  0.5554  0.5111
 1138TIP3    H124905   5.905   3.217   0.065  1.2750  1.4127 -0.8934
 1138TIP3    H224906   5.846   3.342   0.005 -2.0416  0.7128  0.6707
 1139TIP3   OH224907   3.425   6.582   4.375 -0.3214 -0.0632 -0.0886
 1139TIP3    H124908   3.513   6.549   4.396  0.5572  1.1952 -1.5658
 1139TIP3    H224909   3.410   6.553   4.285  0.1736  2.7376 -1.1872
 1140TIP3   OH224910   3.917   3.337   6.887  0.1376 -0.0357  0.6727
 1140TIP3    H124911   3.996   3.314   6.839  0.1496  0.4625  0.4488
 1140TIP3    H224912   3.925   3.432   6.901 -0.0610 -0.1055  1.2939
 1141TIP3   OH224913   2.176   5.942  15.742 -0.7344 -0.0633  0.3347
 1141TIP3    H124914   2.157   5.935  15.835 -0.7323 -0.3287  0.3154
 1141TIP3    H224915   2.093   5.920  15.699 -0.1804 -2.1037  0.2314
 1142TIP3   OH224916   3.415   4.205  11.199  0.0073  0.3459 -0.5779
 1142TIP3    H124917   3.343   4.213  11.137  0.0471 -0.0897 -0.6885
 1142TIP3    H224918   3.466   4.130  11.166  1.8114  2.0249 -1.8260
 1143TIP3   OH224919   1.987   5.800  12.735  0.4691 -0.2692 -0.4104
 1143TIP3    H124920   1.917   5.808  12.670  0.6884 -0.4989 -0.6792
 1143TIP3    H224921   2.040   5.727  12.703  0.4306 -0.5530  0.1707
 1144TIP3   OH224922   0.535   0.052  15.702 -0.1969 -0.2967 -0.1505
 1144TIP3    H124923   0.622   0.034  15.739 -0.1125  0.3701 -0.0184
 1144TIP3    H224924   0.495  -0.034  15.692  0.8195 -0.6861 -1.0432
 1145TIP3   OH224925   4.494   6.102  16.639  0.4208  0.0367 -0.0511
 1145TIP3    H124926   4.570   6.150  16.605  0.3535  1.6849  1.9317
 1145TIP3    H224927   4.458   6.159  16.707 -1.8040 -1.3168  0.0070
 1146TIP3   OH224928   3.305   3.977   2.837  0.3308  0.3339  0.2567
 1146TIP3    H124929   3.264   4.023   2.765  1.7407  0.7448 -0.3256
 1146TIP3    H224930   3.244   3.906   2.859  0.0911 -0.1025 -1.6641
 1147TIP3   OH224931   6.138   1.726   0.082 -0.0547  0.2872  0.1649
 1147TIP3    H124932   6.070   1.659   0.076  2.8106 -2.8589 -0.3510
 1147TIP3    H224933   6.162   1.742  -0.010  0.0452  1.2505  0.3518
 1148TIP3   OH224934   6.700   3.195  11.392  0.7447 -0.0120  0.3726
 1148TIP3    H124935   6.794   3.180  11.382  0.6459 -1.7662  1.5653
 1148TIP3    H224936   6.683   3.183  11.485 -0.9190 -1.6775 -0.0624
 1149TIP3   OH224937   5.674   6.156   0.632 -0.3601 -0.3257  0.3299
 1149TIP3    H124938   5.661   6.192   0.544  3.2861  2.0888  0.5747
 1149TIP3    H224939   5.716   6.071   0.616  0.0415 -0.0211 -0.2909
 1150TIP3   OH224940   3.622   2.841   2.922 -0.0324  0.1425  0.2391
 1150TIP3    H124941   3.538   2.796   2.930  0.4350 -0.8819 -0.3674
 1150TIP3    H224942   3.663   2.801   2.845  0.5307  1.4328 -0.1660
 1151TIP3   OH224943   0.864   4.817  15.028  0.1421  0.4265  0.1408
 1151TIP3    H124944   0.843   4.725  15.042 -0.3205  0.4109 -0.6227
 1151TIP3    H224945   0.845   4.858  15.113 -0.7911  0.0163  0.1480
 1152TIP3   OH224946   3.291   2.251   0.670  0.0673  0.1508  0.3221
 1152TIP3    H124947   3.201   2.228   0.693  0.1311 -0.6033 -0.1573
 1152TIP3    H224948   3.290   2.346   0.664 -0.8134  0.1304 -0.1074
 1153TIP3   OH224949   6.469   3.222   2.423 -0.6707  0.2226  0.4067
 1153TIP3    H124950   6.419   3.141   2.434 -1.0676  0.3174 -0.5935
 1153TIP3    H224951   6.548   3.195   2.376 -0.7155  0.3916  0.2351
 1154TIP3   OH224952   4.679   4.972  16.425 -0.8233 -0.0289 -1.3052
 1154TIP3    H124953   4.708   5.026  16.499 -2.2796 -1.5951  0.5307
 1154TIP3    H224954   4.584   4.985  16.421 -1.1146 -1.8317 -1.2604
 1155TIP3   OH224955   0.766   0.147   5.673 -0.4163  0.0841 -0.0585
 1155TIP3    H124956   0.723   0.202   5.607  0.5840  0.7277 -0.2057
 1155TIP3    H224957   0.798   0.072   5.623 -2.0118 -0.7926  0.1879
 1156TIP3   OH224958   1.978   2.389  14.183  0.0137  0.5571  0.5265
 1156TIP3    H124959   1.907   2.398  14.247  1.4265  0.7151  2.1318
 1156TIP3    H224960   1.972   2.298  14.153 -1.5984  0.8952 -0.3239
 1157TIP3   OH224961   0.963   6.768   5.950 -0.5018 -0.3798 -0.4828
 1157TIP3    H124962   0.970   6.847   5.897 -0.5567  0.8585  1.2736
 1157TIP3    H224963   0.920   6.796   6.030 -2.1982 -2.5676 -0.5034
 1158TIP3   OH224964   3.765   6.569  13.654  0.3098  0.4399  0.2471
 1158TIP3    H124965   3.853   6.541  13.678  0.7783  0.8227 -0.9348
 1158TIP3    H224966   3.723   6.490  13.620  0.6736  0.5341 -0.4513
 1159TIP3   OH224967   3.249   2.764   2.128 -0.2935 -0.1654  0.1511
 1159TIP3    H124968   3.216   2.700   2.064  0.2561 -0.2271 -0.0827
 1159TIP3    H224969   3.275   2.839   2.074 -2.4308  0.9452  0.5550
 1160TIP3   OH224970   0.100   4.798   4.440 -0.1719  0.5761  0.8315
 1160TIP3    H124971   0.111   4.704   4.424 -0.7362  0.0607  3.0631
 1160TIP3    H224972   0.009   4.808   4.468 -0.1882  1.8308  0.4064
 1161TIP3   OH224973   5.381   6.206  15.298 -0.0495  0.2224  0.2780
 1161TIP3    H124974   5.293   6.237  15.275 -0.0464 -1.1850 -1.9853
 1161TIP3    H224975   5.408   6.262  15.371 -2.5090  1.1848  0.5447
 1162TIP3   OH224976   2.497   2.548  13.547 -0.0384 -0.2851  0.1481
 1162TIP3    H124977   2.547   2.481  13.500  1.1395  1.1046 -0.6891
 1162TIP3    H224978   2.544   2.560  13.629  0.0294 -0.1528  0.0899
 1163TIP3   OH224979   4.755   0.482   5.238  0.6608 -0.2297 -0.6891
 1163TIP3    H124980   4.707   0.435   5.306  0.2288 -0.4440 -1.1311
 1163TIP3    H224981   4.689   0.535   5.195  0.9709  0.0611 -0.8070
 1164TIP3   OH224982   6.389   3.255  17.176  0.1302 -0.0272 -0.5323
 1164TIP3    H124983   6.478   3.247  17.142  0.3821  1.4948 -0.2839
 1164TIP3    H224984   6.396   3.314  17.250 -0.8150 -1.3628  0.6931
 1165TIP3   OH224985   6.078   1.717  14.601 -0.7809 -0.0606 -0.0340
 1165TIP3    H124986   6.112   1.802  14.632 -0.1556 -0.2248 -0.2579
 1165TIP3    H224987   5.998   1.739  14.553  0.2990  0.5938 -1.5987
 1166TIP3   OH224988   6.444   0.825   1.984  0.3810 -0.4420  0.0755
 1166TIP3    H124989   6.397   0.833   1.901  0.4268  0.5474  0.1293
 1166TIP3    H224990   6.382   0.859   2.049  1.3932  1.5434  0.0649
 1167TIP3   OH224991   0.718   2.198  16.768  0.0270 -0.6378  0.1245
 1167TIP3    H124992   0.812   2.192  16.748 -0.0802 -0.1104 -0.5745
 1167TIP3    H224993   0.678   2.129  16.716 -0.2128  0.5212 -1.2867
 1168TIP3   OH224994   2.271   0.383  13.432  0.1584  0.1574 -0.1342
 1168TIP3    H124995   2.221   0.309  13.397  1.1635 -1.0553  0.8997
 1168TIP3    H224996   2.275   0.445  13.360 -1.3072 -0.4771 -0.8113
 1169TIP3   OH224997   6.185   2.897   1.306 -0.3749  0.4421  0.0496
 1169TIP3    H124998   6.259   2.945   1.269  0.3921 -0.0501  0.9052
 1169TIP3    H224999   6.189   2.811   1.265 -0.0486  0.1881  0.6002
 1170TIP3   OH225000   3.316   6.477  15.311 -0.4648 -0.6194 -0.3046
 1170TIP3    H125001   3.305   6.566  15.345 -0.6254 -0.6453 -0.2899
 1170TIP3    H225002   3.369   6.489  15.232  0.5368 -0.6338  0.3456
 1171TIP3   OH225003   4.750   4.680   3.813  0.3738 -0.2900 -0.1353
 1171TIP3    H125004   4.783   4.645   3.730 -1.9942  0.5424 -1.5404
 1171TIP3    H225005   4.688   4.614   3.845  1.0282 -0.4596  0.8196
 1172TIP3   OH225006   4.846   6.714   4.510 -0.1689  0.8444 -0.2139
 1172TIP3    H125007   4.801   6.683   4.588 -0.2912  0.0343 -0.5949
 1172TIP3    H225008   4.906   6.643   4.486  0.2902  1.3237 -0.5226
 1173TIP3   OH225009   4.446   0.349   6.335  0.5035 -0.6978  0.3272
 1173TIP3    H125010   4.357   0.314   6.330 -1.1574  3.1779 -4.0153
 1173TIP3    H225011   4.494   0.301   6.268 -0.1111  1.0794 -1.4639
 1174TIP3   OH225012   2.057   6.351  12.175 -0.3213 -0.3059  0.0025
 1174TIP3    H125013   2.063   6.384  12.264 -0.0351 -0.3828  0.0142
 1174TIP3    H225014   1.965   6.328  12.163 -0.6977  1.2510 -0.2858
 1175TIP3   OH225015   6.283   3.513   1.015  0.5157  0.0654  0.1491
 1175TIP3    H125016   6.199   3.558   1.017  0.9813  1.2237 -2.4057
 1175TIP3    H225017   6.265   3.427   1.055 -1.0818  1.3581  2.4171
 1176TIP3   OH225018   0.398   1.544  13.679 -0.0062  0.4615  0.3741
 1176TIP3    H125019   0.385   1.490  13.758  1.5255  0.7333  0.8400
 1176TIP3    H225020   0.479   1.591  13.696  0.2748  0.6232 -1.3360
 1177TIP3   OH225021   2.269   6.737  16.146  0.0764 -0.0465  0.0027
 1177TIP3    H125022   2.183   6.773  16.125  0.0784 -0.8151 -1.4852
 1177TIP3    H225023   2.329   6.811  16.137 -0.4698  0.6231  1.5991
 1178TIP3   OH225024   3.288   3.797   1.215  0.1479 -0.7253 -0.0635
 1178TIP3    H125025   3.280   3.717   1.165  0.9707 -2.2844  2.1470
 1178TIP3    H225026   3.317   3.769   1.302  0.3234  1.9480  0.8509
 1179TIP3   OH225027   3.383   4.811   1.033 -0.2112 -0.5730 -0.8610
 1179TIP3    H125028   3.370   4.721   1.064 -2.1414  0.2001  0.8020
 1179TIP3    H225029   3.319   4.862   1.082  2.8097  2.2302  0.4832
 1180TIP3   OH225030   1.476   0.333   1.116  0.4777  0.0130 -0.8223
 1180TIP3    H125031   1.540   0.397   1.087 -0.2933  0.3191 -1.8901
 1180TIP3    H225032   1.491   0.256   1.060  0.8757 -0.4708 -0.0775
 1181TIP3   OH225033   1.611   4.533   4.356  0.1064  0.3490 -0.8329
 1181TIP3    H125034   1.567   4.486   4.427 -1.1143  1.0868 -1.0698
 1181TIP3    H225035   1.692   4.484   4.341  1.4544  1.2751  2.4593
 1182TIP3   OH225036   3.898   1.312  12.714  0.0954 -0.4996 -0.4789
 1182TIP3    H125037   3.946   1.380  12.761  0.7746 -1.4903  0.3227
 1182TIP3    H225038   3.965   1.250  12.687 -0.7440 -2.3503  1.3790
 1183TIP3   OH225039   6.130   3.888   4.448  0.0629 -0.3089 -0.3128
 1183TIP3    H125040   6.166   3.933   4.372  0.0215 -0.4729 -0.4319
 1183TIP3    H225041   6.106   3.957   4.508 -1.2627 -0.1013 -1.0516
 1184TIP3   OH225042   2.571   5.467  16.019 -0.3337  0.3908 -0.2710
 1184TIP3    H125043   2.495   5.521  15.998 -0.9845 -0.4276 -0.1085
 1184TIP3    H225044   2.587   5.416  15.940  0.4834  1.0528 -0.5353
 1185TIP3   OH225045   2.734   1.781   5.439 -0.1120  0.2955 -0.0869
 1185TIP3    H125046   2.812   1.726   5.439 -0.9807 -0.9906  0.5555
 1185TIP3    H225047   2.719   1.802   5.531  0.4974  2.0987 -0.3570
 1186TIP3   OH225048   3.626   0.664  14.664 -0.2414  0.4677 -0.2699
 1186TIP3    H125049   3.627   0.757  14.688 -1.3534  0.6207 -0.7616
 1186TIP3    H225050   3.552   0.656  14.603  0.0811 -0.6678 -0.5227
 1187TIP3   OH225051   1.057   0.374   2.793  0.1586  0.4415  0.3274
 1187TIP3    H125052   1.145   0.347   2.768  0.2631  0.0940  1.0335
 1187TIP3    H225053   1.062   0.470   2.799  0.4225  0.4414  0.1299
 1188TIP3   OH225054   4.505   3.116  17.132  0.2139  0.5419 -0.2654
 1188TIP3    H125055   4.446   3.074  17.194  0.9661 -1.0205 -0.5644
 1188TIP3    H225056   4.524   3.048  17.067  2.4816  0.9334 -0.0745
 1189TIP3   OH225057   1.068   2.361   1.465  0.1263  0.2769 -0.0100
 1189TIP3    H125058   1.158   2.394   1.468  0.1557  0.1421  0.6895
 1189TIP3    H225059   1.014   2.440   1.459  0.3299  0.3244 -2.0026
 1190TIP3   OH225060   6.234   6.706   1.460  0.3179  0.7606  0.2892
 1190TIP3    H125061   6.270   6.708   1.371  1.5242  3.8627  0.7201
 1190TIP3    H225062   6.149   6.662   1.451  0.3977  1.0009 -2.4005
 1191TIP3   OH225063   3.908   3.516   0.096 -0.0855  0.2911 -0.2194
 1191TIP3    H125064   3.817   3.527   0.069  0.5700  1.4701 -2.1706
 1191TIP3    H225065   3.923   3.586   0.160 -0.2962  0.6570 -0.5703
 1192TIP3   OH225066   4.776   0.080   2.758  0.4296  0.6177 -0.1254
 1192TIP3    H125067   4.697   0.059   2.708  0.5143  1.9934 -0.8745
 1192TIP3    H225068   4.757   0.166   2.797  1.8451  1.3431 -0.9687
 1193TIP3   OH225069   5.089   4.145   0.417  0.3077 -0.0809  0.1292
 1193TIP3    H125070   5.089   4.121   0.325  1.1460 -0.3521  0.1934
 1193TIP3    H225071   5.170   4.195   0.429  0.0745  0.1808  0.6593
 1194TIP3   OH225072   5.833   1.586   6.561 -0.4316  0.2801 -0.1853
 1194TIP3    H125073   5.822   1.679   6.547  0.4991  0.3786 -0.3573
 1194TIP3    H225074   5.899   1.580   6.631 -0.5164 -0.2447 -0.1454
 1195TIP3   OH225075   3.136   3.364   1.655 -0.0398  0.2832 -0.2416
 1195TIP3    H125076   3.231   3.376   1.644 -0.2627  1.4083 -1.1428
 1195TIP3    H225077   3.109   3.315   1.578 -0.5816  2.3103 -1.3899
 1196TIP3   OH225078   2.693   3.403  15.116  0.0494  0.1984  0.2635
 1196TIP3    H125079   2.759   3.362  15.172 -0.5846  0.0630  0.9317
 1196TIP3    H225080   2.656   3.474  15.170  0.7003  1.2657 -0.6504
 1197TIP3   OH225081   3.989   2.763  16.572 -0.0748  0.2022  0.3297
 1197TIP3    H125082   4.005   2.830  16.505 -0.3979  0.0664  0.1135
 1197TIP3    H225083   3.985   2.811  16.654 -0.9869  0.5409  0.0993
 1198TIP3   OH225084   5.788   4.524  14.433 -0.3664  0.2643 -0.0258
 1198TIP3    H125085   5.808   4.607  14.389  2.2895 -0.4846 -0.4061
 1198TIP3    H225086   5.800   4.457  14.366 -1.9702 -0.5054  0.4081
 1199TIP3   OH225087   0.023   1.526   4.934 -0.2957  0.0112  0.3431
 1199TIP3    H125088  -0.053   1.476   4.903  0.0657 -0.6924  0.5694
 1199TIP3    H225089   0.069   1.551   4.854  0.6358 -1.7975  0.2577
 1200TIP3   OH225090   4.221   4.611   3.121 -0.1482  0.1742 -0.4102
 1200TIP3    H125091   4.231   4.516   3.123 -0.0671  0.1760 -0.6364
 1200TIP3    H225092   4.307   4.644   3.146  0.0547  0.1870 -1.0937
 1201TIP3   OH225093   4.287   2.589  15.879  0.2427  0.4190 -0.2441
 1201TIP3    H125094   4.311   2.642  15.803  0.2978  1.1008  0.2299
 1201TIP3    H225095   4.192   2.587  15.877  0.2595 -0.1583 -0.7181
 1202TIP3   OH225096   3.807   6.462   5.363 -0.7531 -0.1328 -0.1632
 1202TIP3    H125097   3.746   6.399   5.402  0.2964 -1.4567 -0.5580
 1202TIP3    H225098   3.812   6.437   5.271  0.9268 -0.5705  0.0029
 1203TIP3   OH225099   5.908   2.009  16.502  0.0561 -0.6159  0.5705
 1203TIP3    H125100   5.898   2.043  16.590 -0.6281 -0.3364  0.3968
 1203TIP3    H225101   5.819   1.983  16.477  0.3228 -1.1533  0.1493
 1204TIP3   OH225102   0.707   6.105  12.070 -0.2388  0.1445 -0.2364
 1204TIP3    H125103   0.677   6.158  12.145 -0.3662 -0.4002  0.1068
 1204TIP3    H225104   0.630   6.053  12.046  0.3340 -1.0415  0.4512
 1205TIP3   OH225105   4.795   0.783   4.642 -0.2872 -0.2271  0.1852
 1205TIP3    H125106   4.700   0.778   4.634 -0.1945  0.2931 -1.9930
 1205TIP3    H225107   4.825   0.693   4.632 -0.4771 -0.1365 -1.6466
 1206TIP3   OH225108   4.789   3.648  15.888 -0.3223  0.0790 -0.2861
 1206TIP3    H125109   4.800   3.624  15.980 -1.2261  0.2371 -0.1319
 1206TIP3    H225110   4.718   3.712  15.888  0.4181  0.9368 -0.9661
 1207TIP3   OH225111   5.680   1.682   0.305 -0.4879 -0.1066  0.2367
 1207TIP3    H125112   5.607   1.653   0.359  1.0130  0.2849  2.6252
 1207TIP3    H225113   5.653   1.767   0.272 -1.7476 -0.6891 -0.2953
 1208TIP3   OH225114   3.709   2.302   3.218  0.6222  0.0195 -0.3691
 1208TIP3    H125115   3.635   2.293   3.278  0.7736 -0.3520 -0.2362
 1208TIP3    H225116   3.781   2.335   3.273  0.1777  1.7423 -0.7735
 1209TIP3   OH225117   0.470   6.410  11.308 -0.0591 -0.2037  0.3246
 1209TIP3    H125118   0.435   6.479  11.251  1.2833  0.8723  0.7448
 1209TIP3    H225119   0.395   6.383  11.361 -0.6769  0.7747 -0.0168
 1210TIP3   OH225120   6.277   4.314  13.238  0.2051 -0.0785  0.8008
 1210TIP3    H125121   6.239   4.228  13.256 -1.1014  0.4847  0.8153
 1210TIP3    H225122   6.308   4.308  13.147 -2.4083  0.2730 -0.2033
 1211TIP3   OH225123   1.243   1.517  10.883  0.1352 -0.1559 -0.1078
 1211TIP3    H125124   1.238   1.612  10.885 -1.0556 -0.1860 -0.8651
 1211TIP3    H225125   1.334   1.497  10.904  0.1854  1.1107  0.9959
 1212TIP3   OH225126   0.881   6.771   2.917 -0.1000 -0.3778  0.4283
 1212TIP3    H125127   0.827   6.739   2.990 -0.8039 -1.5575 -0.5779
 1212TIP3    H225128   0.927   6.846   2.954 -2.9124  1.1464  1.1844
 1213TIP3   OH225129   5.820   3.786  12.528  0.4477 -0.2638 -0.2589
 1213TIP3    H125130   5.827   3.735  12.609 -1.2611 -1.0788 -0.5810
 1213TIP3    H225131   5.904   3.832  12.521  1.3640 -1.6815  0.9484
 1214TIP3   OH225132   4.760   1.691   3.222  0.4495  0.1878 -0.2603
 1214TIP3    H125133   4.734   1.728   3.138  2.2194 -0.0254 -0.9264
 1214TIP3    H225134   4.737   1.598   3.215 -0.1448  0.3241 -0.1835
 1215TIP3   OH225135   5.404   0.743  15.648  0.2116  0.1316  0.1200
 1215TIP3    H125136   5.478   0.755  15.588  1.5405 -2.6408  1.0545
 1215TIP3    H225137   5.414   0.813  15.712  1.0357  0.8031 -0.7045
 1216TIP3   OH225138   0.039   5.706  15.669  0.0962 -0.3175 -0.3567
 1216TIP3    H125139   0.093   5.749  15.736 -0.2902  2.2408 -1.5355
 1216TIP3    H225140  -0.035   5.669  15.717 -0.2566  1.5786  0.6914
 1217TIP3   OH225141   4.608   6.330   1.052 -0.7990 -0.1776 -0.5674
 1217TIP3    H125142   4.684   6.296   1.006 -0.5172 -1.2230  0.6092
 1217TIP3    H225143   4.641   6.406   1.100  0.0619 -1.7563  1.5135
 1218TIP3   OH225144   4.809   1.766   4.649  0.5411  0.3497  0.2678
 1218TIP3    H125145   4.714   1.765   4.654  0.5059  0.2311 -0.3211
 1218TIP3    H225146   4.838   1.725   4.730  0.1149  1.2659  0.8922
 1219TIP3   OH225147   0.320   0.708  11.955  0.0106  0.4483  0.3971
 1219TIP3    H125148   0.351   0.756  11.878 -1.0364  1.9720  0.8600
 1219TIP3    H225149   0.393   0.712  12.017  1.6260 -2.4723 -1.1027
 1220TIP3   OH225150   6.599   5.416  14.864  0.2168 -0.0769  0.6575
 1220TIP3    H125151   6.539   5.369  14.806  2.4532  0.4070 -2.2382
 1220TIP3    H225152   6.664   5.350  14.890  0.0832  0.0857  1.4489
 1221TIP3   OH225153   3.079   2.394   1.696 -0.3633 -0.8662 -0.0440
 1221TIP3    H125154   3.109   2.373   1.608 -0.2136  1.7870 -0.6797
 1221TIP3    H225155   3.155   2.376   1.752 -0.2596 -1.9346 -0.4930
 1222TIP3   OH225156   6.071   0.834   6.801 -0.2420 -0.2530 -0.2066
 1222TIP3    H125157   6.151   0.877   6.832 -1.4223  1.6513  0.4153
 1222TIP3    H225158   6.042   0.780   6.875  1.5284 -2.6432 -1.1717
 1223TIP3   OH225159   6.071   3.381   3.306  0.4205  0.1282  0.1483
 1223TIP3    H125160   6.074   3.343   3.219  0.5241 -0.5582  0.4494
 1223TIP3    H225161   6.068   3.476   3.291  0.5113  0.0134 -0.5941
 1224TIP3   OH225162   6.668   3.865   0.904 -0.4119 -0.5033  0.0906
 1224TIP3    H125163   6.745   3.892   0.955  1.2500 -0.5245 -2.2162
 1224TIP3    H225164   6.607   3.938   0.912  0.5796  0.2995  0.5956
 1225TIP3   OH225165   2.379   1.330  12.851  0.8008  0.1229 -0.3944
 1225TIP3    H125166   2.446   1.373  12.903  0.3344  1.8438 -1.1272
 1225TIP3    H225167   2.299   1.381  12.868 -0.1774 -1.4224 -0.1043
 1226TIP3   OH225168   4.395   1.723   1.281 -0.2407  0.3230 -0.5608
 1226TIP3    H125169   4.482   1.726   1.321  0.1436  1.6129 -1.4020
 1226TIP3    H225170   4.334   1.741   1.353  0.2816  0.6073 -0.1840
 1227TIP3   OH225171   3.846   0.426   1.375  0.3771  0.0760 -0.1069
 1227TIP3    H125172   3.799   0.348   1.345  0.1685  0.8553 -1.9435
 1227TIP3    H225173   3.780   0.495   1.378  0.2597 -0.0520  2.8465
 1228TIP3   OH225174   1.070   2.580  16.260  0.2882 -0.2863  0.2903
 1228TIP3    H125175   1.079   2.662  16.307  1.3291 -0.3715  0.2730
 1228TIP3    H225176   1.092   2.513  16.325 -2.5701 -0.7519  0.9168
 1229TIP3   OH225177   1.477   6.207  12.467  0.2515 -0.0331 -0.2394
 1229TIP3    H125178   1.561   6.205  12.421  1.4093 -1.6841  1.7704
 1229TIP3    H225179   1.495   6.249  12.551 -1.3961  1.2554 -0.4630
 1230TIP3   OH225180   2.913   0.948   3.366 -0.4536 -0.5836 -0.7536
 1230TIP3    H125181   2.902   0.972   3.458 -1.1074 -0.4304 -0.8620
 1230TIP3    H225182   2.960   0.864   3.368  0.8050  0.1124 -0.3380
 1231TIP3   OH225183   5.380   6.282   1.825 -0.2256 -0.0466 -0.2513
 1231TIP3    H125184   5.404   6.323   1.907  0.7326  0.6385 -0.8568
 1231TIP3    H225185   5.326   6.207   1.850 -0.4674  0.5142  0.9572
 1232TIP3   OH225186   6.730   2.668   3.407 -0.0471 -0.2997  0.7856
 1232TIP3    H125187   6.754   2.610   3.335 -2.8263  0.6598 -1.0784
 1232TIP3    H225188   6.714   2.609   3.481 -2.8900 -2.0803 -1.0472
 1233TIP3   OH225189   5.462   5.938   3.046  0.1218 -0.2885 -0.2998
 1233TIP3    H125190   5.414   5.955   2.965 -1.5043 -0.5741  0.5495
 1233TIP3    H225191   5.435   6.008   3.105  1.2284 -0.1209  0.0382
 1234TIP3   OH225192   4.718   1.982  14.216 -0.4478  0.0492  0.2405
 1234TIP3    H125193   4.638   1.934  14.194 -0.5915  0.0732  0.6947
 1234TIP3    H225194   4.727   1.971  14.311  0.1523 -0.0525  0.1777
 1235TIP3   OH225195   0.899   2.053  16.339  0.2005 -0.1547  0.3783
 1235TIP3    H125196   0.849   1.990  16.287 -1.3797  0.1682  1.4279
 1235TIP3    H225197   0.960   2.000  16.390  0.0978 -0.6704 -0.0254
 1236TIP3   OH225198   4.292   2.650   2.136  0.3228  0.0580 -0.1792
 1236TIP3    H125199   4.387   2.660   2.128  0.1415  0.3770 -2.6835
 1236TIP3    H225200   4.265   2.720   2.195  1.5352  0.5243 -0.1563
 1237TIP3   OH225201   0.845   1.490   4.099  0.6128  0.8116  0.1987
 1237TIP3    H125202   0.884   1.436   4.168  2.3551  1.9389  0.1506
 1237TIP3    H225203   0.820   1.571   4.142  1.4310  1.4068 -0.4213
 1238TIP3   OH225204   3.743   1.666  14.717 -0.3690 -0.1302 -0.4088
 1238TIP3    H125205   3.813   1.682  14.654  0.4058 -0.9081  0.2292
 1238TIP3    H225206   3.670   1.719  14.686  0.1904 -0.0415 -1.6259
 1239TIP3   OH225207   5.088   2.707  11.966  0.0011  0.2903 -0.0917
 1239TIP3    H125208   5.095   2.718  11.871 -0.1809  0.0630 -0.1337
 1239TIP3    H225209   5.005   2.661  11.978  1.2030 -1.9593 -0.0020
 1240TIP3   OH225210   3.620   3.480   4.626  0.0041 -0.5793  0.0759
 1240TIP3    H125211   3.695   3.525   4.665  2.2135  0.2871 -4.4997
 1240TIP3    H225212   3.635   3.387   4.647  2.0848 -0.3599 -0.2132
 1241TIP3   OH225213   5.826   4.610   3.137  0.0671 -0.5044 -0.5123
 1241TIP3    H125214   5.908   4.579   3.097 -0.0722 -0.9522 -0.4594
 1241TIP3    H225215   5.757   4.563   3.091 -0.3543  1.6354 -2.2348
 1242TIP3   OH225216   4.451   5.182  13.079  0.3026 -0.1712  0.2852
 1242TIP3    H125217   4.398   5.106  13.103 -0.2662 -0.0385 -0.5075
 1242TIP3    H225218   4.392   5.256  13.092  0.7779  0.1164  0.8191
 1243TIP3   OH225219   1.970   6.323   5.448 -0.0595  0.2793 -0.2823
 1243TIP3    H125220   1.904   6.379   5.489  0.5484  0.0719  1.0357
 1243TIP3    H225221   2.032   6.384   5.407 -0.3361  0.5118 -0.3530
 1244TIP3   OH225222   5.768   0.952  14.055  0.4215 -0.2479  0.0691
 1244TIP3    H125223   5.701   0.903  14.008 -0.3166 -0.5640  1.3937
 1244TIP3    H225224   5.754   1.043  14.029  0.0899 -0.4268 -0.3851
 1245TIP3   OH225225   6.259   2.649  14.950  0.2684 -0.8880 -0.2881
 1245TIP3    H125226   6.205   2.719  14.985 -0.7527 -1.3207 -0.9642
 1245TIP3    H225227   6.243   2.575  15.009 -2.0905 -1.8726 -2.0236
 1246TIP3   OH225228   0.867   5.303   3.815 -0.3047  0.0196  0.2179
 1246TIP3    H125229   0.894   5.389   3.782  1.2258 -0.0819  1.1365
 1246TIP3    H225230   0.933   5.242   3.783 -2.1208 -1.1163 -1.5992
 1247TIP3   OH225231   1.180   1.284   4.636 -0.3862  0.5305 -0.4554
 1247TIP3    H125232   1.224   1.199   4.638 -0.3817  0.5470  0.0787
 1247TIP3    H225233   1.097   1.267   4.592 -0.7479  0.0875  0.3931
 1248TIP3   OH225234   5.271   1.602  15.632  0.6077 -0.3037 -0.3275
 1248TIP3    H125235   5.187   1.566  15.661  0.8376 -1.4368 -0.9843
 1248TIP3    H225236   5.258   1.696  15.631 -0.8909 -0.4921 -1.1265
 1249TIP3   OH225237   6.131   6.565  17.213 -0.6060 -0.4925 -0.1451
 1249TIP3    H125238   6.089   6.647  17.238 -2.5437 -1.3035 -0.5158
 1249TIP3    H225239   6.208   6.591  17.162  1.0579  1.1251  2.9146
 1250TIP3   OH225240   1.653   0.695   4.880  0.1227  0.6492 -0.0523
 1250TIP3    H125241   1.652   0.771   4.939  0.7431  0.1668  0.5891
 1250TIP3    H225242   1.640   0.733   4.793  1.1212  1.5854  0.1787
 1251TIP3   OH225243   1.297   3.645   6.904  0.1691 -0.2907 -0.2555
 1251TIP3    H125244   1.267   3.633   6.814 -1.7274 -0.5269  0.3707
 1251TIP3    H225245   1.223   3.619   6.959  1.5440 -0.9517  1.4150
 1252TIP3   OH225246   5.797   1.225   0.814 -0.0543  0.3963 -0.2777
 1252TIP3    H125247   5.788   1.310   0.858 -0.9246 -0.7533  1.9358
 1252TIP3    H225248   5.883   1.194   0.841 -0.5639 -0.2838  0.6394
 1253TIP3   OH225249   4.018   6.422   3.095  0.0817 -0.0418 -0.4226
 1253TIP3    H125250   4.046   6.339   3.134  0.4155 -0.3762 -1.3284
 1253TIP3    H225251   3.941   6.448   3.145  0.1932 -0.7168  0.1107
 1254TIP3   OH225252   0.241   0.222  15.033 -0.4888  0.4618  0.3953
 1254TIP3    H125253   0.227   0.193  14.943  0.8647 -0.1324  0.3630
 1254TIP3    H225254   0.297   0.300  15.025 -0.1358  0.2455  0.7281
 1255TIP3   OH225255   6.469   2.862   2.237 -0.5113  0.1128  0.2345
 1255TIP3    H125256   6.491   2.788   2.180 -0.9656  0.2303 -0.1016
 1255TIP3    H225257   6.487   2.940   2.183  1.3862  0.3132  1.0795
 1256TIP3   OH225258   0.975   4.051  12.221  0.2458 -0.9173  0.7377
 1256TIP3    H125259   0.929   4.015  12.145  0.4366  0.2620  0.0352
 1256TIP3    H225260   1.068   4.043  12.199  0.2934 -0.0364  0.5592
 1257TIP3   OH225261   3.613   3.908  17.040 -0.5929  0.4140 -0.1204
 1257TIP3    H125262   3.638   3.841  16.977  0.8683  0.2357  0.6009
 1257TIP3    H225263   3.620   3.990  16.991 -2.1098  0.0941 -0.9261
 1258TIP3   OH225264   4.254   3.555  10.744  0.0544  0.3087  0.7685
 1258TIP3    H125265   4.335   3.571  10.793  0.0118 -0.5043  1.1268
 1258TIP3    H225266   4.255   3.620  10.674  0.9121  0.4540  0.9001
 1259TIP3   OH225267   5.610   6.369  16.894 -0.8450 -0.1190  0.1998
 1259TIP3    H125268   5.693   6.320  16.892  0.1217  1.3956  1.1969
 1259TIP3    H225269   5.562   6.337  16.817  0.6995 -0.9675 -0.4690
 1260TIP3   OH225270   5.456   1.169  13.422 -0.8428  0.2435  0.5463
 1260TIP3    H125271   5.383   1.115  13.451 -2.7522  2.7805  0.7607
 1260TIP3    H225272   5.439   1.184  13.329 -1.3069  1.8276  0.8616
 1261TIP3   OH225273   5.831   4.526  15.597  0.0849  0.1702  0.2317
 1261TIP3    H125274   5.842   4.438  15.559 -1.0602  0.1206 -0.0306
 1261TIP3    H225275   5.850   4.586  15.525  3.2531  0.2500  1.0160
 1262TIP3   OH225276   1.684   4.928  16.936 -0.0210  0.1169 -0.2848
 1262TIP3    H125277   1.675   4.927  16.841  1.1427  1.1164 -0.4398
 1262TIP3    H225278   1.619   4.991  16.967 -0.0445  0.1787 -0.4641
 1263TIP3   OH225279   2.736   4.759  16.098  0.2342 -0.3043  0.0230
 1263TIP3    H125280   2.780   4.771  16.014  1.0208 -0.9546  0.3249
 1263TIP3    H225281   2.654   4.807  16.089  1.0935  1.1392 -0.4736
 1264TIP3   OH225282   1.137   4.905   3.425  0.3936 -0.2799  0.4305
 1264TIP3    H125283   1.210   4.947   3.469  0.1107 -0.5721  1.1886
 1264TIP3    H225284   1.111   4.833   3.482 -0.2806 -0.3801  0.0213
 1265TIP3   OH225285   5.698   1.894  12.945  0.2129 -0.1307 -0.5997
 1265TIP3    H125286   5.760   1.901  13.018  0.0008  0.2050 -0.4507
 1265TIP3    H225287   5.733   1.824  12.891  1.2486  0.6803 -1.0183
 1266TIP3   OH225288   4.297   0.464   2.440  0.1027 -0.9333  0.2250
 1266TIP3    H125289   4.363   0.514   2.393  0.3758 -0.3726  1.1845
 1266TIP3    H225290   4.292   0.505   2.526  0.6540 -2.8425  1.2101
 1267TIP3   OH225291   5.251   6.799  12.270 -0.3644  0.2685  0.0025
 1267TIP3    H125292   5.243   6.873  12.210 -3.4287  0.0290 -0.0305
 1267TIP3    H225293   5.203   6.728  12.227 -0.6219 -0.6077  1.6660
 1268TIP3   OH225294   5.317   3.041   3.785  0.2851 -0.5070  0.6691
 1268TIP3    H125295   5.380   2.994   3.839  1.0568  0.4749  0.6346
 1268TIP3    H225296   5.366   3.065   3.707 -0.2474 -0.0858  0.4637
 1269TIP3   OH225297   3.166   5.745  11.526  0.0361  0.6029  0.4267
 1269TIP3    H125298   3.222   5.788  11.461 -0.4800 -1.6591 -1.6123
 1269TIP3    H225299   3.223   5.736  11.603  1.5659  0.9173 -0.6152
 1270TIP3   OH225300   5.027   0.249   3.683 -0.0743  0.3262  0.2809
 1270TIP3    H125301   5.108   0.198   3.685 -0.1546  0.2008  0.4278
 1270TIP3    H225302   4.986   0.230   3.768 -0.2853  0.3419  0.1826
 1271TIP3   OH225303   3.049   2.250  14.377  0.1762 -0.0212  0.5756
 1271TIP3    H125304   3.108   2.208  14.315 -1.3613  0.1481 -1.0589
 1271TIP3    H225305   2.993   2.180  14.409  0.3170  0.0704  1.0324
 1272TIP3   OH225306   4.017   2.960   1.377  0.1915 -0.2063  0.6129
 1272TIP3    H125307   4.005   2.886   1.317 -0.0454  1.3908 -1.4299
 1272TIP3    H225308   4.017   3.037   1.320 -0.7451  1.4857  2.7580
 1273TIP3   OH225309   4.383   4.005  14.822  0.2384  0.4821  0.0310
 1273TIP3    H125310   4.296   4.041  14.806  0.6919  1.0851 -1.1778
 1273TIP3    H225311   4.371   3.910  14.819 -0.0163  0.5417 -2.4390
 1274TIP3   OH225312   5.801   5.278  11.660 -0.4089 -0.3961 -0.0690
 1274TIP3    H125313   5.713   5.293  11.694 -2.0154 -0.9926 -3.5293
 1274TIP3    H225314   5.792   5.203  11.602  2.6987 -1.1996  0.3023
 1275TIP3   OH225315   4.834   6.614   0.392 -0.4875  0.3225  0.3843
 1275TIP3    H125316   4.746   6.575   0.400 -0.5190  0.2622 -0.2561
 1275TIP3    H225317   4.878   6.586   0.472 -0.6015 -0.8277  0.0695
 1276TIP3   OH225318   2.966   2.149  10.758 -0.4505  0.4314  0.5525
 1276TIP3    H125319   2.902   2.105  10.703  1.1676 -1.2026 -0.1163
 1276TIP3    H225320   3.031   2.183  10.696  1.3836 -1.4088  1.3437
 1277TIP3   OH225321   1.381   4.335   5.722 -0.1102 -0.1220 -1.1023
 1277TIP3    H125322   1.350   4.397   5.789  0.2177 -2.1443  1.0372
 1277TIP3    H225323   1.475   4.329   5.736 -0.1899 -1.3932 -1.0019
 1278TIP3   OH225324   0.653   4.733  14.596  0.1365 -0.2850  0.0578
 1278TIP3    H125325   0.722   4.713  14.658 -0.0039 -0.3616  0.1895
 1278TIP3    H225326   0.598   4.655  14.595  0.2791 -0.3869 -0.3506
 1279TIP3   OH225327   5.965   0.381   4.850 -0.1617 -0.2134 -0.2799
 1279TIP3    H125328   6.059   0.363   4.859 -0.0595 -0.1474 -1.1345
 1279TIP3    H225329   5.922   0.301   4.881  0.1831 -0.3646 -0.1929
 1280TIP3   OH225330   2.160   6.687  13.318  0.0711  0.0174 -0.6573
 1280TIP3    H125331   2.137   6.772  13.354  1.5250  0.9664 -1.8614
 1280TIP3    H225332   2.080   6.634  13.328 -1.3425  1.9469 -1.1750
 1281TIP3   OH225333   2.009   3.312  16.671 -0.1488  0.4804 -0.2564
 1281TIP3    H125334   2.095   3.352  16.665 -0.1365  0.3871 -0.7061
 1281TIP3    H225335   1.948   3.385  16.659 -0.1351  0.2139 -2.4314
 1282TIP3   OH225336   1.252   6.478  12.666 -0.1602 -0.5860 -0.2441
 1282TIP3    H125337   1.173   6.444  12.624 -0.7802 -0.1022  0.5044
 1282TIP3    H225338   1.323   6.423  12.633 -0.5583  0.0291 -2.2245
 1283TIP3   OH225339   5.495   4.370   0.735  0.4302  0.1292 -0.3436
 1283TIP3    H125340   5.516   4.458   0.703  0.2047  0.9825  1.7095
 1283TIP3    H225341   5.403   4.374   0.759  0.2698 -0.8496 -0.7333
 1284TIP3   OH225342   1.992   6.224  15.603  0.2746 -0.4936 -0.0822
 1284TIP3    H125343   1.941   6.144  15.595 -0.9095  0.2407 -0.2079
 1284TIP3    H225344   1.954   6.283  15.538  1.2203  0.1160 -0.0940
 1285TIP3   OH225345   3.281   5.408   6.192  0.0651  0.3828  0.3467
 1285TIP3    H125346   3.256   5.459   6.115  2.4895 -1.1779 -1.6224
 1285TIP3    H225347   3.373   5.386   6.178  0.1005 -1.5591  2.8007
 1286TIP3   OH225348   3.424   5.499   4.615 -0.4148 -0.1112 -0.5096
 1286TIP3    H125349   3.514   5.502   4.648 -0.4374 -0.9245 -0.3684
 1286TIP3    H225350   3.374   5.453   4.683 -0.7658 -0.4403 -0.9805
 1287TIP3   OH225351   6.432   3.587   3.665 -0.0621  0.2781  0.2124
 1287TIP3    H125352   6.443   3.661   3.725 -2.8588  0.2316  0.9116
 1287TIP3    H225353   6.347   3.602   3.623  0.1934 -1.5523 -1.0849
 1288TIP3   OH225354   5.252   0.425  16.808 -0.1398  0.4869 -0.2348
 1288TIP3    H125355   5.196   0.501  16.827  0.2889  0.9356 -0.7193
 1288TIP3    H225356   5.236   0.407  16.715 -0.7347 -0.4404  0.0387
 1289TIP3   OH225357   2.331   5.139   3.102 -0.2035  0.7190 -0.8262
 1289TIP3    H125358   2.391   5.206   3.068  0.7667 -0.5762 -1.7657
 1289TIP3    H225359   2.256   5.141   3.043 -0.0270  0.7540 -1.0483
 1290TIP3   OH225360   6.440   2.759  16.065 -0.2430 -0.3506 -0.5783
 1290TIP3    H125361   6.455   2.700  16.139  0.0861  0.6574  0.1892
 1290TIP3    H225362   6.380   2.825  16.100 -1.1260 -0.5888 -1.6170
 1291TIP3   OH225363   2.647   3.076  16.978 -0.1355 -0.0901  0.2335
 1291TIP3    H125364   2.588   3.139  16.937  1.7589  0.7681 -1.3641
 1291TIP3    H225365   2.683   3.122  17.054  0.0577  0.1767 -0.0197
 1292TIP3   OH225366   0.189   4.653   5.186  0.6619  0.4137 -0.1470
 1292TIP3    H125367   0.116   4.695   5.140 -0.2297 -1.1476 -0.2626
 1292TIP3    H225368   0.238   4.725   5.225 -1.7438  1.4781  1.1269
 1293TIP3   OH225369   1.782   1.843  11.518  0.6468 -0.1031  1.0240
 1293TIP3    H125370   1.810   1.757  11.487 -1.0892 -0.0528 -0.8915
 1293TIP3    H225371   1.693   1.830  11.550  0.1565  1.0298  0.2235
 1294TIP3   OH225372   1.425   2.050   6.292  0.3257 -0.7000 -0.1978
 1294TIP3    H125373   1.501   2.108   6.288 -0.0594 -0.1150  0.7842
 1294TIP3    H225374   1.450   1.981   6.353  0.0195 -0.4350  0.2275
 1295TIP3   OH225375   0.714   1.586   5.595  0.4246 -0.4950 -0.1789
 1295TIP3    H125376   0.648   1.600   5.663 -1.2769 -1.7153 -1.4889
 1295TIP3    H225377   0.774   1.659   5.605 -1.9173  1.5048  0.1953
 1296TIP3   OH225378   4.547   2.195   3.967  0.4464 -0.6149 -0.8573
 1296TIP3    H125379   4.637   2.200   4.000  0.3218  0.2118 -0.6225
 1296TIP3    H225380   4.548   2.250   3.889 -0.0172 -0.0378 -0.4657
 1297TIP3   OH225381   5.051   4.110  15.155 -0.2092  0.4063 -0.2246
 1297TIP3    H125382   5.145   4.128  15.163 -0.2428 -0.1584  1.8212
 1297TIP3    H225383   5.009   4.186  15.196 -0.7103  0.9347 -1.6364
 1298TIP3   OH225384   4.398   5.157  15.133 -0.3436 -0.0476 -0.0551
 1298TIP3    H125385   4.337   5.158  15.059 -0.3671  0.2934 -0.0346
 1298TIP3    H225386   4.465   5.094  15.108 -1.1694 -1.1071  0.3127
 1299TIP3   OH225387   6.058   0.976  15.750  0.4486 -0.1922  0.4139
 1299TIP3    H125388   6.000   0.950  15.821 -0.5064  1.2574  0.2104
 1299TIP3    H225389   5.999   0.995  15.677  1.2409  0.4842 -0.0718
 1300TIP3   OH225390   0.292   1.041   1.468  0.3266 -0.4277  0.5644
 1300TIP3    H125391   0.300   1.001   1.554 -1.0057  0.4124  1.0957
 1300TIP3    H225392   0.203   1.020   1.439 -0.5121  2.2726  0.9638
 1301TIP3   OH225393   4.944   1.840  15.581  0.2061  0.2321 -0.5124
 1301TIP3    H125394   4.902   1.820  15.497 -0.8057  0.4083 -0.0518
 1301TIP3    H225395   4.872   1.847  15.643  0.9975 -0.6175  0.5320
 1302TIP3   OH225396   5.326   2.165   5.973 -0.0883  0.3643  0.2716
 1302TIP3    H125397   5.400   2.137   5.919  0.0172 -0.3849  0.7957
 1302TIP3    H225398   5.343   2.258   5.990  2.1620 -0.3864  2.6104
 1303TIP3   OH225399   2.561   6.465   1.113  0.2154  0.6900  0.0535
 1303TIP3    H125400   2.515   6.398   1.163 -0.0038  0.7074 -0.1192
 1303TIP3    H225401   2.643   6.480   1.160 -0.4691  1.5038  1.0313
 1304TIP3   OH225402   4.559   1.909   2.066  0.5681  0.6530 -0.1269
 1304TIP3    H125403   4.547   1.985   2.123 -2.7644  1.4683 -1.6701
 1304TIP3    H225404   4.511   1.839   2.110  2.3977 -0.2289  0.5565
 1305TIP3   OH225405   2.956   2.064   2.764  0.6388 -0.6967  0.6554
 1305TIP3    H125406   2.940   2.080   2.857  0.5453 -0.2840  0.5732
 1305TIP3    H225407   2.876   2.095   2.721 -0.3249 -3.0372  0.6084
 1306TIP3   OH225408   6.706   2.929  13.126 -0.5910  0.1440 -0.1777
 1306TIP3    H125409   6.799   2.929  13.149 -0.6755 -0.4916  0.2077
 1306TIP3    H225410   6.683   2.836  13.122 -1.1596  0.2935 -0.4802
 1307TIP3   OH225411   0.251   0.328  16.417 -0.0489  0.3054 -0.7107
 1307TIP3    H125412   0.334   0.372  16.401  1.2735 -2.4483 -2.0971
 1307TIP3    H225413   0.209   0.323  16.332 -1.8324  1.8470  0.0009
 1308TIP3   OH225414   6.342   5.508  12.788 -0.0884  0.0792  0.0556
 1308TIP3    H125415   6.279   5.510  12.860 -0.7324 -0.6431 -0.4754
 1308TIP3    H225416   6.308   5.569  12.724 -0.4763 -0.6084 -0.4058
 1309TIP3   OH225417   5.626   0.164  16.336 -0.0594 -0.2241 -0.0222
 1309TIP3    H125418   5.584   0.161  16.250 -0.3945  1.2507  0.0624
 1309TIP3    H225419   5.570   0.221  16.388  1.2276  0.5691  0.5513
 1310TIP3   OH225420   3.999   6.221   0.205 -0.2889 -0.4952  0.5748
 1310TIP3    H125421   3.961   6.292   0.257 -0.2734 -0.3726  0.4202
 1310TIP3    H225422   3.989   6.143   0.259 -1.0828 -0.5310  0.3817
 1311TIP3   OH225423   0.533   4.138  12.014 -0.7182  0.6656  0.1390
 1311TIP3    H125424   0.488   4.056  12.035 -1.6894  1.2920  0.5775
 1311TIP3    H225425   0.522   4.192  12.092 -0.5373  1.4010 -0.3331
 1312TIP3   OH225426   6.472   2.231  12.362  0.0463 -0.5423 -0.1998
 1312TIP3    H125427   6.567   2.216  12.365 -0.0866 -1.6814 -0.9648
 1312TIP3    H225428   6.458   2.309  12.416  1.7689  1.4538 -2.4132
 1313TIP3   OH225429   4.322   6.429   6.168  0.4318 -0.2901 -0.5492
 1313TIP3    H125430   4.279   6.514   6.156  1.0331 -0.1877 -2.1257
 1313TIP3    H225431   4.282   6.372   6.102  1.2073 -0.7749 -0.6075
 1314TIP3   OH225432   5.955   5.179  13.373  0.1140 -0.6829 -0.4495
 1314TIP3    H125433   5.864   5.155  13.392  0.3691 -0.3569  1.3545
 1314TIP3    H225434   5.960   5.272  13.395  0.6653 -0.4538 -1.4666
 1315TIP3   OH225435   4.051   1.975   3.744  0.0169  0.2831 -0.1279
 1315TIP3    H125436   4.079   1.967   3.835  0.0606 -1.6738 -0.2781
 1315TIP3    H225437   3.968   1.927   3.740  0.1275  0.1668 -1.1665
 1316TIP3   OH225438   5.465   3.482  17.150  0.1285 -0.6416 -0.2860
 1316TIP3    H125439   5.443   3.468  17.058  0.8026  2.6524 -1.0732
 1316TIP3    H225440   5.541   3.539  17.148 -0.4936  0.4183  2.3150
 1317TIP3   OH225441   2.715   1.356   3.223 -0.6301 -0.2907  0.1074
 1317TIP3    H125442   2.623   1.352   3.247 -0.0796  0.2147  2.6636
 1317TIP3    H225443   2.760   1.377   3.305  1.4842  2.6196 -1.5899
 1318TIP3   OH225444   4.803   4.219   4.204  0.4046 -0.5010 -0.1960
 1318TIP3    H125445   4.824   4.311   4.193  0.9879 -0.5700  0.2707
 1318TIP3    H225446   4.878   4.173   4.168 -0.4916 -0.8387 -1.7266
 1319TIP3   OH225447   1.611   0.012  17.179  0.2634 -0.2981 -0.0718
 1319TIP3    H125448   1.591   0.066  17.256  1.5785  0.4752 -0.2461
 1319TIP3    H225449   1.706   0.003  17.180  0.1696 -1.7058 -0.6780
 1320TIP3   OH225450   3.923   4.409   4.981  0.0981  0.0154 -0.1997
 1320TIP3    H125451   3.959   4.452   5.059  2.5293 -1.6957 -0.2611
 1320TIP3    H225452   3.841   4.370   5.011  1.3166 -1.2216  1.8070
 1321TIP3   OH225453   1.588   5.466  16.190 -0.1232 -0.1001  0.2455
 1321TIP3    H125454   1.588   5.379  16.149  1.7241 -0.2348  0.4250
 1321TIP3    H225455   1.501   5.500  16.174 -1.0821 -2.2045  0.6276
 1322TIP3   OH225456   4.412   3.458  13.326 -0.0033  0.3314 -0.5119
 1322TIP3    H125457   4.319   3.482  13.334  0.0648  0.7500 -0.9255
 1322TIP3    H225458   4.453   3.493  13.405 -0.2954 -0.3673 -0.0392
 1323TIP3   OH225459   3.442   6.781   0.099  0.4150 -0.9971 -0.4002
 1323TIP3    H125460   3.455   6.762   0.007 -1.0318 -1.2432 -0.5837
 1323TIP3    H225461   3.363   6.836   0.101  0.5077 -0.8796  0.6697
 1324TIP3   OH225462   4.256   1.888  16.563  0.0732 -0.4415  0.3557
 1324TIP3    H125463   4.254   1.796  16.537  0.0755 -0.4783  0.4861
 1324TIP3    H225464   4.263   1.936  16.480  0.9855 -0.5988  0.3260
 1325TIP3   OH225465   2.833   0.860  15.826  0.0462  0.1439  0.6860
 1325TIP3    H125466   2.852   0.862  15.920 -1.9981 -1.6320  1.2059
 1325TIP3    H225467   2.738   0.872  15.820  0.1927  0.6655 -1.1997
 1326TIP3   OH225468   6.455   6.304  15.823 -0.3430 -0.1562 -0.6311
 1326TIP3    H125469   6.438   6.395  15.849  0.7239 -0.0176 -0.3789
 1326TIP3    H225470   6.369   6.268  15.803 -0.7384  1.0547 -1.1999
 1327TIP3   OH225471   1.015   3.889  13.972  0.2115 -0.2932  0.3715
 1327TIP3    H125472   0.942   3.839  14.010 -0.4106  0.1972 -0.1765
 1327TIP3    H225473   1.024   3.965  14.029 -0.7245  0.4445 -0.4373
 1328TIP3   OH225474   6.181   1.137  15.022  0.2985 -0.2648  0.2360
 1328TIP3    H125475   6.187   1.167  14.931 -3.9987 -1.9354 -0.8602
 1328TIP3    H225476   6.245   1.067  15.029  0.9722  0.1444 -1.3998
 1329TIP3   OH225477   3.078   5.423  14.154  0.1238 -0.0790 -0.1896
 1329TIP3    H125478   3.140   5.434  14.226 -2.1878  3.1355  1.6170
 1329TIP3    H225479   3.040   5.336  14.168  2.7917 -1.3386 -0.2655
 1330TIP3   OH225480   5.046   1.145  14.789  0.3238 -0.0112  0.9747
 1330TIP3    H125481   5.090   1.060  14.785  0.0049 -0.2128  1.6039
 1330TIP3    H225482   5.050   1.178  14.700  2.2337  0.2375  1.0994
 1331TIP3   OH225483   4.760   2.227  14.457  0.1183  0.0770  0.5034
 1331TIP3    H125484   4.711   2.146  14.471  0.5911 -0.4774 -0.8133
 1331TIP3    H225485   4.729   2.286  14.525 -0.6732 -1.0157  1.1315
 1332TIP3   OH225486   5.809   0.411   4.624 -0.1315 -0.1491 -0.4984
 1332TIP3    H125487   5.864   0.412   4.703 -2.0680 -0.0948  0.9265
 1332TIP3    H225488   5.720   0.402   4.657 -0.9645 -0.7967 -2.7516
 1333TIP3   OH225489   0.093   6.579   6.173 -0.6084 -0.1280 -0.3229
 1333TIP3    H125490   0.096   6.493   6.216  0.3825 -0.5568 -1.2169
 1333TIP3    H225491   0.043   6.634   6.234 -0.7079 -1.1606  0.5652
 1334TIP3   OH225492   2.288   0.454  14.805  0.2234  0.3493 -0.2445
 1334TIP3    H125493   2.285   0.393  14.731 -3.3140  0.6323 -0.5121
 1334TIP3    H225494   2.250   0.406  14.878 -0.3517  1.4150  0.1891
 1335TIP3   OH225495   5.518   6.741   6.128 -0.4765  0.5528  0.1210
 1335TIP3    H125496   5.465   6.783   6.060 -1.5374 -1.0626 -0.1048
 1335TIP3    H225497   5.604   6.782   6.120 -1.0564  1.6217 -1.0365
 1336TIP3   OH225498   2.700   2.966  16.159 -0.0210  1.3413 -0.2738
 1336TIP3    H125499   2.736   2.968  16.247  0.4248 -1.2603 -0.3230
 1336TIP3    H225500   2.774   2.945  16.102 -0.5891  1.4397 -1.0742
 1337TIP3   OH225501   6.391   6.336   1.043  0.3704  0.2985 -0.2575
 1337TIP3    H125502   6.420   6.412   0.993  0.6095 -0.5599 -1.4660
 1337TIP3    H225503   6.317   6.368   1.094  0.9507  1.5289 -0.1372
 1338TIP3   OH225504   1.548   5.431   0.463  0.1353 -0.0788 -0.4188
 1338TIP3    H125505   1.462   5.409   0.428  0.2690 -0.7333 -0.3409
 1338TIP3    H225506   1.566   5.518   0.428 -0.8038  0.3116  0.0242
 1339TIP3   OH225507   5.224   3.353   3.323  0.0944 -0.2891  0.3952
 1339TIP3    H125508   5.140   3.313   3.301  0.5114 -0.6296 -0.6646
 1339TIP3    H225509   5.251   3.397   3.242  0.5304  0.5525  0.9862
 1340TIP3   OH225510   5.185   6.471  17.137 -0.0692 -0.0997  0.2949
 1340TIP3    H125511   5.201   6.557  17.099  0.0819 -1.3712 -2.7315
 1340TIP3    H225512   5.142   6.421  17.068 -0.2755 -2.4522  1.9927
 1341TIP3   OH225513   5.492   5.019  12.707  0.0146  0.0206  0.2030
 1341TIP3    H125514   5.581   4.994  12.682 -0.6724 -2.4073 -0.1055
 1341TIP3    H225515   5.493   5.020  12.802  0.4923  0.5867  0.1992
 1342TIP3   OH225516   4.890   5.825   5.198 -0.2482  0.2391  0.3350
 1342TIP3    H125517   4.927   5.741   5.228 -0.9239  0.9629  3.5354
 1342TIP3    H225518   4.796   5.811   5.200 -0.3738  0.2514 -2.0580
 1343TIP3   OH225519   0.659   0.986   1.355  0.2857 -0.5001 -0.0139
 1343TIP3    H125520   0.628   0.964   1.268  0.8058  0.6714 -0.5195
 1343TIP3    H225521   0.702   0.906   1.387  1.3441 -0.5222 -1.4116
 1344TIP3   OH225522   2.017   2.803   2.477 -0.5384 -0.1515  0.5697
 1344TIP3    H125523   2.013   2.890   2.516 -1.8175 -0.8850  2.2165
 1344TIP3    H225524   2.084   2.757   2.527  1.1081  0.2314 -1.1737
 1345TIP3   OH225525   0.422   2.369   1.212 -0.2005 -0.4078  0.6151
 1345TIP3    H125526   0.343   2.358   1.159  0.9154  0.2734 -1.2902
 1345TIP3    H225527   0.454   2.280   1.226 -0.4603 -0.5929  0.0561
 1346TIP3   OH225528   5.109   4.744   0.652  0.0138  0.1339 -0.2651
 1346TIP3    H125529   5.184   4.804   0.659  0.3422 -0.3455  0.3777
 1346TIP3    H225530   5.148   4.659   0.632 -0.2302 -0.4034  1.4002
 1347TIP3   OH225531   5.834   5.232   1.051  0.1650 -0.2807  0.5327
 1347TIP3    H125532   5.838   5.306   0.991  1.9769 -2.1880 -1.8420
 1347TIP3    H225533   5.740   5.223   1.071 -0.2882  1.4763 -0.5834
 1348TIP3   OH225534   5.101   3.569   2.482 -0.2019 -0.2167  0.0219
 1348TIP3    H125535   5.179   3.599   2.530 -0.3658  0.9478 -0.4033
 1348TIP3    H225536   5.106   3.614   2.398 -0.5663 -1.2889 -0.5949
 1349TIP3   OH225537   5.709   4.795  13.468 -0.0837  0.1232 -0.0601
 1349TIP3    H125538   5.694   4.715  13.419 -0.8736 -0.7374  1.5152
 1349TIP3    H225539   5.800   4.789  13.497 -0.5118 -0.9077  1.1866
 1350TIP3   OH225540   5.969   1.856  17.055  0.0578  0.0816 -0.4169
 1350TIP3    H125541   5.919   1.843  17.136 -0.2613 -1.9146 -0.8842
 1350TIP3    H225542   5.970   1.951  17.043 -1.8309  0.3047  0.7357
 1351TIP3   OH225543   2.768   5.672   3.474 -0.4911  0.1928 -0.2307
 1351TIP3    H125544   2.781   5.652   3.567 -3.8502  0.3704  0.4030
 1351TIP3    H225545   2.743   5.588   3.435 -1.1052  0.5024 -0.5152
 1352TIP3   OH225546   6.026   4.689   5.545 -0.4643  0.1621  0.1092
 1352TIP3    H125547   5.977   4.657   5.621 -0.4601  2.4961  1.1569
 1352TIP3    H225548   5.986   4.643   5.471 -1.6201 -0.8910  1.3098
 1353TIP3   OH225549   3.964   1.458   0.767  0.1038 -0.4738 -0.2093
 1353TIP3    H125550   3.949   1.524   0.700  0.9922 -1.6129 -1.5940
 1353TIP3    H225551   3.909   1.384   0.740 -0.4277 -0.5484  0.9832
 1354TIP3   OH225552   5.563   3.899  12.472 -0.4300  0.5963 -0.5012
 1354TIP3    H125553   5.501   3.832  12.502 -0.2257 -0.8488 -2.9868
 1354TIP3    H225554   5.646   3.876  12.515 -0.1701 -1.3248 -1.8818
 1355TIP3   OH225555   6.601   2.117   3.470 -0.0296 -0.4430 -0.2344
 1355TIP3    H125556   6.571   2.208   3.467  1.4003  0.0280 -1.1011
 1355TIP3    H225557   6.586   2.084   3.382  1.0201 -0.5173 -0.3875
 1356TIP3   OH225558   5.395   5.816  14.052 -0.2258 -0.5238  0.3131
 1356TIP3    H125559   5.314   5.836  14.098 -0.3438 -0.4217  0.0677
 1356TIP3    H225560   5.371   5.746  13.991 -0.1269 -0.5016  0.2478
 1357TIP3   OH225561   3.619   1.522  13.086  0.2149  0.2033  0.0779
 1357TIP3    H125562   3.623   1.542  13.179  0.0125 -1.4648  0.4730
 1357TIP3    H225563   3.681   1.451  13.073 -0.9676 -0.7328 -0.7210
 1358TIP3   OH225564   2.438   4.376   0.357  0.2671  0.2585  0.6852
 1358TIP3    H125565   2.435   4.322   0.277 -1.0275  0.8207  0.3273
 1358TIP3    H225566   2.496   4.328   0.416  2.2586  0.4314 -1.0069
 1359TIP3   OH225567   1.592   5.754   0.981  0.8478 -0.1729 -0.3524
 1359TIP3    H125568   1.554   5.823   0.927  0.8831  0.2979  0.2092
 1359TIP3    H225569   1.557   5.770   1.069  1.8908 -0.0740  0.0605
 1360TIP3   OH225570   0.466   1.534  14.780  0.2662  0.1307  0.2074
 1360TIP3    H125571   0.558   1.560  14.782  0.0096  1.0423  1.5674
 1360TIP3    H225572   0.468   1.441  14.759  1.4728  0.2093 -0.1199
 1361TIP3   OH225573   5.466   3.680  16.476  0.4816  0.3526 -0.5327
 1361TIP3    H125574   5.511   3.630  16.408 -1.1637 -0.8098 -0.8280
 1361TIP3    H225575   5.460   3.769  16.441  0.5989  0.0159 -1.4306
 1362TIP3   OH225576   6.105   5.950  15.098  0.1514 -0.4947 -0.5353
 1362TIP3    H125577   6.082   5.867  15.056  0.4560 -1.5748  1.2978
 1362TIP3    H225578   6.022   5.981  15.135  0.3784 -1.0024  0.4328
 1363TIP3   OH225579   6.652   3.497   1.953 -0.5069  0.4639  1.4840
 1363TIP3    H125580   6.682   3.420   2.001 -0.8585 -0.4945  0.2326
 1363TIP3    H225581   6.696   3.492   1.868 -3.4088 -0.5350 -0.0935
 1364TIP3   OH225582   5.723   3.448   4.479  0.0662 -0.2192 -0.5053
 1364TIP3    H125583   5.659   3.463   4.549 -1.4155 -1.9955 -1.4133
 1364TIP3    H225584   5.803   3.421   4.525 -0.4013  0.1616  0.5594
 1365TIP3   OH225585   1.890   0.378   6.107  0.1053 -0.1644 -0.3835
 1365TIP3    H125586   1.822   0.330   6.155 -1.2691  0.9535 -1.1253
 1365TIP3    H225587   1.909   0.454   6.162 -0.0398  0.0806 -0.6667
 1366TIP3   OH225588   3.179   6.555  14.563 -0.3742  0.0191  0.2312
 1366TIP3    H125589   3.249   6.531  14.503  0.1080  0.3205  0.6567
 1366TIP3    H225590   3.205   6.641  14.596 -0.7797 -0.0133  0.6446
 1367TIP3   OH225591   3.936   5.147  13.813 -0.0726 -0.1979  1.0688
 1367TIP3    H125592   3.955   5.239  13.793 -0.5123 -0.3585 -0.1575
 1367TIP3    H225593   3.884   5.116  13.739  0.2188 -1.4944  1.3779
 1368TIP3   OH225594   6.211   0.363  14.532 -0.3606 -0.2252  0.1381
 1368TIP3    H125595   6.270   0.375  14.607 -0.8860 -0.4670  0.5974
 1368TIP3    H225596   6.270   0.358  14.457  0.2761 -1.1915  0.6607
 1369TIP3   OH225597   0.764   4.631  13.706 -0.3316  0.3251 -0.0711
 1369TIP3    H125598   0.750   4.717  13.745  2.0019  0.7621 -0.0783
 1369TIP3    H225599   0.681   4.611  13.663 -1.7324  1.4667  1.9396
 1370TIP3   OH225600   5.279   0.979  15.288  0.2313  0.1014 -0.2396
 1370TIP3    H125601   5.362   1.003  15.330  0.2609  0.5270 -0.5279
 1370TIP3    H225602   5.213   1.032  15.333  0.2871  0.6915 -0.8359
 1371TIP3   OH225603   6.808   4.170   2.565  0.3554 -0.2021  0.4652
 1371TIP3    H125604   6.799   4.079   2.538 -0.6555  0.5132 -1.8206
 1371TIP3    H225605   6.902   4.185   2.568  0.5257 -1.0316 -0.2309
 1372TIP3   OH225606   5.758   0.138  16.067  0.5736 -0.5762 -0.3636
 1372TIP3    H125607   5.677   0.153  16.019 -1.2768 -2.0061  2.1281
 1372TIP3    H225608   5.826   0.179  16.012 -1.6925  0.1734 -2.8137
 1373TIP3   OH225609   3.020   3.659   0.209  1.3418  0.6507 -0.2905
 1373TIP3    H125610   2.993   3.742   0.246  0.2709  0.6527 -1.0039
 1373TIP3    H225611   3.078   3.620   0.274 -0.2809  0.7437  1.2692
 1374TIP3   OH225612   4.374   1.741   4.169 -0.2901 -0.0111 -0.0060
 1374TIP3    H125613   4.310   1.704   4.230  1.0829  0.7321  2.0000
 1374TIP3    H225614   4.452   1.687   4.182  0.2467  0.6094 -0.6088
 1375TIP3   OH225615   2.672   0.603  14.349 -0.1681  0.8444  0.0518
 1375TIP3    H125616   2.743   0.620  14.411  1.4003 -1.0193 -1.1190
 1375TIP3    H225617   2.602   0.568  14.403  0.3774  1.2334  1.0474
 1376TIP3   OH225618   6.193   5.626  14.062  0.2543  0.5045 -0.5412
 1376TIP3    H125619   6.185   5.654  13.970  1.9734  1.5604 -0.4156
 1376TIP3    H225620   6.108   5.645  14.100 -0.3705  0.4111 -1.8203
 1377TIP3   OH225621   0.359   4.883  14.866  0.1307 -0.2859  0.3310
 1377TIP3    H125622   0.294   4.817  14.888 -0.5536 -0.8458 -2.8252
 1377TIP3    H225623   0.342   4.955  14.927 -2.9933 -0.7356  0.1676
 1378TIP3   OH225624   6.740   5.840  14.972  0.2240 -0.5583 -0.3526
 1378TIP3    H125625   6.683   5.860  15.047  0.5158 -0.1294 -0.2421
 1378TIP3    H225626   6.695   5.769  14.927 -0.0300 -0.7255  0.1476
 1379TIP3   OH225627   5.392   4.224  14.151 -0.0669  0.0034  0.2647
 1379TIP3    H125628   5.314   4.197  14.103  0.0566  1.6228 -0.9230
 1379TIP3    H225629   5.451   4.258  14.084  1.1741 -0.0674  1.2838
 1380TIP3   OH225630   3.761   3.328  12.758 -0.0130 -0.2568  0.0466
 1380TIP3    H125631   3.719   3.299  12.677 -1.5996 -1.6555  1.2850
 1380TIP3    H225632   3.772   3.247  12.809 -1.4464  0.8330  2.2629
 1381TIP3   OH225633   5.331   6.620  13.554  0.2727 -1.0355 -0.0043
 1381TIP3    H125634   5.344   6.547  13.494 -1.5702  0.2332 -2.1209
 1381TIP3    H225635   5.244   6.605  13.592 -0.1660  0.0688 -0.5368
 1382TIP3   OH225636   2.217   5.961  15.185  0.2142  0.1619  0.3055
 1382TIP3    H125637   2.278   6.030  15.210  2.0094 -1.1963 -0.1017
 1382TIP3    H225638   2.211   5.969  15.090  2.0131 -1.3910 -0.0050
 1383TIP3   OH225639   4.664   0.394   2.214 -0.7501  0.0791  0.9347
 1383TIP3    H125640   4.743   0.415   2.165 -1.9490  2.1957 -0.2384
 1383TIP3    H225641   4.658   0.462   2.281 -2.4146  1.0523 -0.1118
 1384TIP3   OH225642   4.338   6.812   4.997 -0.6158  0.5016  0.0549
 1384TIP3    H125643   4.276   6.809   4.923  0.6792  3.9422 -1.3726
 1384TIP3    H225644   4.400   6.742   4.977 -1.8542 -0.4905 -0.5443
 1385TIP3   OH225645   3.279   1.046   2.978 -0.4507 -0.4426  0.2992
 1385TIP3    H125646   3.348   1.106   2.948 -0.1432 -1.0774 -0.2830
 1385TIP3    H225647   3.223   1.034   2.902 -0.4123 -1.0313  0.3618
 1386TIP3   OH225648   3.332   1.783  13.642 -0.2629 -0.1330  0.1961
 1386TIP3    H125649   3.301   1.693  13.635  1.4240 -0.7355  0.0070
 1386TIP3    H225650   3.363   1.790  13.732 -0.1404  0.1789  0.1281
 1387TIP3   OH225651   4.021   3.280  10.233  0.0674  0.4438  0.3336
 1387TIP3    H125652   4.052   3.365  10.264 -0.4347  1.6579 -2.2243
 1387TIP3    H225653   4.096   3.242  10.188 -0.1154  0.1871  0.2415
 1388TIP3   OH225654   0.741   3.683  12.244 -0.7794 -0.4348 -0.4353
 1388TIP3    H125655   0.745   3.745  12.172  0.6091 -0.3545 -0.3154
 1388TIP3    H225656   0.730   3.598  12.201 -3.1103 -0.1128 -0.5795
 1389TIP3   OH225657   0.148   4.747  11.655  0.5201  0.1143  0.4866
 1389TIP3    H125658   0.151   4.675  11.592 -0.3251  1.5473 -1.2873
 1389TIP3    H225659   0.210   4.721  11.724  0.6532 -2.0201 -0.3466
 1390TIP3   OH225660   4.667   3.043  12.642  0.3028 -0.1645 -0.7652
 1390TIP3    H125661   4.634   3.132  12.648  0.8294  0.0213 -0.5766
 1390TIP3    H225662   4.652   3.018  12.551 -1.0106 -0.3490 -0.5069
 1391TIP3   OH225663   0.560   4.421  16.812 -0.0671 -0.3928  0.1443
 1391TIP3    H125664   0.470   4.421  16.779  0.1781  0.5441 -0.5798
 1391TIP3    H225665   0.593   4.333  16.791 -1.1328 -1.1294  1.4087
 1392TIP3   OH225666   0.339   5.665   4.998  0.2134 -0.1385  0.4594
 1392TIP3    H125667   0.360   5.576   4.970  0.4390 -0.1321  0.6006
 1392TIP3    H225668   0.354   5.664   5.093  0.3661  0.0922  0.4387
 1393TIP3   OH225669   1.013   5.990  13.279  0.0309 -0.4193 -0.1940
 1393TIP3    H125670   0.948   6.060  13.285 -1.1028 -1.4740  0.4247
 1393TIP3    H225671   1.068   6.014  13.205 -1.0486  0.5263 -0.7123
 1394TIP3   OH225672   5.546   2.656  16.241  0.1713 -0.0975  0.2231
 1394TIP3    H125673   5.465   2.660  16.191  0.3331 -1.2310 -0.1480
 1394TIP3    H225674   5.557   2.745  16.276 -1.2360  0.0601  0.3091
 1395TIP3   OH225675   1.744   3.997   5.044  0.0152  0.4842 -0.0803
 1395TIP3    H125676   1.789   3.957   4.969 -1.4622  0.5156 -1.0359
 1395TIP3    H225677   1.804   3.985   5.118  2.2153  1.8623 -1.5587
 1396TIP3   OH225678   6.619   3.814   1.273 -0.1517  0.1757 -0.6099
 1396TIP3    H125679   6.688   3.805   1.339  2.3117  0.2708 -2.9779
 1396TIP3    H225680   6.578   3.728   1.270  2.6490 -1.2724 -1.8608
 1397TIP3   OH225681   1.754   5.092   3.559  0.0411  0.2619 -0.0553
 1397TIP3    H125682   1.691   5.040   3.609  0.2796  0.2511  0.2382
 1397TIP3    H225683   1.715   5.180   3.556 -1.8138 -0.5249 -3.0556
 1398TIP3   OH225684   2.223   0.731   1.570  0.0345 -0.3060 -0.1602
 1398TIP3    H125685   2.175   0.671   1.628  0.9058  1.6749  2.7830
 1398TIP3    H225686   2.159   0.755   1.503 -1.8737 -0.7195  1.4240
 1399TIP3   OH225687   0.148   1.658  12.510  0.1074 -0.1958 -0.0962
 1399TIP3    H125688   0.122   1.662  12.418 -0.3040  1.0403  0.0565
 1399TIP3    H225689   0.099   1.729  12.552 -0.2049 -1.1470  1.2121
 1400TIP3   OH225690   4.160   6.507  16.470  0.4953  0.3013 -0.0173
 1400TIP3    H125691   4.236   6.456  16.441  0.6846  1.6479 -2.1622
 1400TIP3    H225692   4.085   6.464  16.430  0.5714  1.0825 -1.0833
 1401TIP3   OH225693   0.899   2.335   3.522  0.3093  0.6631  0.0993
 1401TIP3    H125694   0.812   2.306   3.549  0.4408  0.2895  0.1274
 1401TIP3    H225695   0.959   2.271   3.562  0.6286  1.1950  0.4799
 1402TIP3   OH225696   5.076   4.414   2.092 -0.0925  0.4391 -0.1249
 1402TIP3    H125697   5.021   4.376   2.160  1.3693  0.2855  0.9991
 1402TIP3    H225698   5.101   4.341   2.036  0.3777  0.2288  0.3636
 1403TIP3   OH225699   4.401   1.854  12.318 -0.8227 -0.4246  0.1496
 1403TIP3    H125700   4.377   1.794  12.247 -3.3061 -0.5509  1.0110
 1403TIP3    H225701   4.378   1.807  12.398 -2.0201  1.3267  0.8751
 1404TIP3   OH225702   1.704   2.346   4.173 -0.1225  0.2401 -0.2100
 1404TIP3    H125703   1.724   2.347   4.079 -2.5773 -1.1535 -0.8242
 1404TIP3    H225704   1.615   2.312   4.179  0.1577 -0.2879  2.6951
 1405TIP3   OH225705   5.707   3.599   1.270  0.0031  0.2831  0.3766
 1405TIP3    H125706   5.655   3.678   1.253 -1.2723 -0.7882 -0.9242
 1405TIP3    H225707   5.665   3.530   1.218  2.3993 -0.7846 -0.3214
 1406TIP3   OH225708   6.084   2.919   0.585  0.5394 -0.1430 -0.0241
 1406TIP3    H125709   6.028   2.863   0.638 -0.1278  2.1938  1.9191
 1406TIP3    H225710   6.101   2.996   0.640  2.3975  1.0438 -2.0636
 1407TIP3   OH225711   3.598   6.277   5.392 -0.0447  0.1781  0.0140
 1407TIP3    H125712   3.661   6.210   5.415  0.8997  1.1914  0.4708
 1407TIP3    H225713   3.513   6.234   5.400  0.4950 -0.7522  1.0235
 1408TIP3   OH225714   4.480   0.032  12.579 -0.0014  0.2081 -0.1929
 1408TIP3    H125715   4.453  -0.058  12.565  1.9353 -0.2219 -1.7461
 1408TIP3    H225716   4.461   0.076  12.495 -0.8469  1.2459  0.5136
 1409TIP3   OH225717   2.681   6.644  11.705 -0.1517  0.1742  0.0325
 1409TIP3    H125718   2.774   6.633  11.683 -0.4712 -0.3680 -1.0813
 1409TIP3    H225719   2.635   6.631  11.623 -1.2405  0.2878  0.6097
 1410TIP3   OH225720   3.640   4.844  16.452 -0.6532 -0.0071  0.1198
 1410TIP3    H125721   3.571   4.909  16.467 -0.9425 -0.1861 -0.4202
 1410TIP3    H225722   3.712   4.894  16.413 -0.7256  0.0603  0.0717
 1411TIP3   OH225723   2.812   1.254   1.773 -0.1490 -0.1668  0.2907
 1411TIP3    H125724   2.780   1.163   1.772 -2.9842  0.7210  0.2820
 1411TIP3    H225725   2.825   1.275   1.680  0.0889 -0.4316  0.2626
 1412TIP3   OH225726   4.623   5.540  14.753 -0.4156  0.0116  0.2353
 1412TIP3    H125727   4.538   5.550  14.796 -1.1866 -1.2787 -0.8765
 1412TIP3    H225728   4.659   5.459  14.790  0.3367  0.5470  0.6915
 1413TIP3   OH225729   3.935   0.804  14.595  0.0426 -0.0921  0.1520
 1413TIP3    H125730   4.005   0.765  14.544  1.1262  3.7707 -1.6568
 1413TIP3    H225731   3.855   0.782  14.548 -0.0351 -3.5195  1.5835
 1414TIP3   OH225732   4.911   5.723  14.072 -0.2038 -0.1978 -0.4946
 1414TIP3    H125733   4.834   5.707  14.016  1.7177 -1.1327 -3.0926
 1414TIP3    H225734   4.978   5.665  14.036  1.5978  0.1878  2.0184
 1415TIP3   OH225735   0.222   4.930  15.292  0.3174 -0.0900 -0.4542
 1415TIP3    H125736   0.197   4.852  15.243 -1.7508  1.3897 -1.9092
 1415TIP3    H225737   0.187   4.916  15.380 -1.6947 -0.0618 -1.2056
 1416TIP3   OH225738   1.200   0.465  12.382  0.0484 -0.3799  0.1229
 1416TIP3    H125739   1.280   0.460  12.329  2.0294  0.2913  2.8005
 1416TIP3    H225740   1.226   0.428  12.466 -2.7479 -0.8169  0.8739
 1417TIP3   OH225741   4.038   1.721   6.014 -0.1342 -0.1110  0.4003
 1417TIP3    H125742   4.038   1.807   6.055  2.7537  0.8675 -1.3289
 1417TIP3    H225743   4.105   1.672   6.062  0.1540 -0.4499 -0.3345
 1418TIP3   OH225744   1.463   0.767  14.397  0.0349 -0.1725 -0.4933
 1418TIP3    H125745   1.527   0.796  14.462  0.1586  0.7965 -1.0203
 1418TIP3    H225746   1.488   0.677  14.377  0.4103 -0.2512  0.2924
 1419TIP3   OH225747   5.795   4.032  11.148 -0.8178 -0.2039  0.7747
 1419TIP3    H125748   5.779   3.954  11.095  0.9806  0.2133 -0.4777
 1419TIP3    H225749   5.834   3.997  11.229  0.5653 -0.6122 -0.0314
 1420TIP3   OH225750   5.532   5.070   2.174 -0.1087  0.3620  0.0539
 1420TIP3    H125751   5.502   4.985   2.205 -0.1490  0.4460  0.2468
 1420TIP3    H225752   5.475   5.133   2.219  2.3159  0.7443  2.8820
 1421TIP3   OH225753   3.532   2.406   4.260  0.6365 -0.1499  0.3372
 1421TIP3    H125754   3.576   2.331   4.299  0.6068 -0.8050 -0.8371
 1421TIP3    H225755   3.603   2.459   4.223  0.5373 -0.7734 -0.8081
 1422TIP3   OH225756   3.672   5.340  15.884  0.7308 -0.1444 -0.0814
 1422TIP3    H125757   3.638   5.307  15.800 -1.3716 -2.6597  1.6126
 1422TIP3    H225758   3.638   5.429  15.890 -4.5901 -1.8909  0.6970
 1423TIP3   OH225759   5.803   1.512   3.649  0.7928 -0.5901  0.3511
 1423TIP3    H125760   5.749   1.524   3.571  0.1870  0.8934  0.9521
 1423TIP3    H225761   5.755   1.449   3.702  0.4022 -0.4078  0.2202
 1424TIP3   OH225762   6.544   1.183   3.628 -0.1373 -0.1272 -0.3466
 1424TIP3    H125763   6.594   1.216   3.553 -0.9114  0.6034 -0.5517
 1424TIP3    H225764   6.479   1.124   3.590 -2.7609  2.7454 -0.7303
 1425TIP3   OH225765   1.830   6.072  11.793  0.7270 -0.3855  0.5785
 1425TIP3    H125766   1.909   6.069  11.847 -0.6871 -0.7855  2.7242
 1425TIP3    H225767   1.828   5.987  11.748  1.3062 -0.5382  0.8345
 1426TIP3   OH225768   3.030   2.774   4.684 -0.4404  0.0019 -0.0897
 1426TIP3    H125769   3.040   2.859   4.727 -1.3621 -0.3643  0.8832
 1426TIP3    H225770   3.043   2.710   4.754 -2.3195 -0.6061 -0.2350
 1427TIP3   OH225771   2.449   5.921   2.584 -0.3470 -0.1958 -0.0394
 1427TIP3    H125772   2.408   5.901   2.500 -3.0407  0.6717  0.9574
 1427TIP3    H225773   2.433   6.015   2.597 -0.9515 -0.5018  1.8558
 1428TIP3   OH225774   4.560   2.914  14.690  0.3069 -0.2665  0.5467
 1428TIP3    H125775   4.568   2.903  14.784  1.6123 -0.6830  0.4106
 1428TIP3    H225776   4.520   2.832  14.660  1.3370 -0.7946  0.5793
 1429TIP3   OH225777   0.534   0.204  10.869 -0.4525 -0.0180 -0.1580
 1429TIP3    H125778   0.474   0.255  10.815  1.3038  3.0304  0.5322
 1429TIP3    H225779   0.607   0.184  10.810  0.5394  1.5694  0.4639
 1430TIP3   OH225780   1.986   4.483  14.985 -0.0499  0.1533 -0.1722
 1430TIP3    H125781   1.984   4.553  14.919  1.5876 -0.0773 -0.5200
 1430TIP3    H225782   1.932   4.516  15.056  1.3748  2.1981  0.0542
 1431TIP3   OH225783   0.899   6.203  14.756  0.0966  0.2385  0.1539
 1431TIP3    H125784   0.861   6.131  14.806 -1.9115  1.7180  0.8538
 1431TIP3    H225785   0.990   6.207  14.787  0.0488 -1.4937  0.6422
 1432TIP3   OH225786   6.212   0.006   3.305 -1.1014 -0.0839  0.0652
 1432TIP3    H125787   6.193   0.047   3.389  2.4250  0.1962  0.8624
 1432TIP3    H225788   6.249   0.075   3.251  0.9872 -1.2045 -0.0413
 1433TIP3   OH225789   5.954   2.599  11.487  0.9124  0.1167 -0.2773
 1433TIP3    H125790   5.982   2.567  11.402 -0.6545 -0.7315 -0.5122
 1433TIP3    H225791   6.027   2.654  11.517  1.2235  0.9923 -2.4312
 1434TIP3   OH225792   4.979   0.725   5.272  0.4975  0.3022  0.0475
 1434TIP3    H125793   4.976   0.808   5.224 -1.2732  0.3281  0.1369
 1434TIP3    H225794   4.933   0.663   5.215  1.9665 -0.6953 -0.1082
 1435TIP3   OH225795   1.578   6.032  15.200  0.1522 -0.7092 -0.4794
 1435TIP3    H125796   1.662   6.078  15.207 -0.8774  1.2874 -0.4476
 1435TIP3    H225797   1.562   6.027  15.105 -0.6105  0.7840 -0.4609
 1436TIP3   OH225798   0.323   5.151   4.752  0.4773 -0.4198 -0.6301
 1436TIP3    H125799   0.328   5.123   4.661 -1.2246  2.0368 -1.5822
 1436TIP3    H225800   0.229   5.160   4.769  0.8250  0.9957  0.7467
 1437TIP3   OH225801   3.542   2.732   3.369 -0.4889 -0.0510 -0.3272
 1437TIP3    H125802   3.634   2.730   3.342 -0.6470  0.9988 -1.0351
 1437TIP3    H225803   3.543   2.700   3.459  0.5978  0.0739 -0.2714
 1438TIP3   OH225804   0.339   5.827   4.777 -0.0704  0.5986 -0.3624
 1438TIP3    H125805   0.421   5.877   4.781 -0.2856  0.9273  0.0035
 1438TIP3    H225806   0.343   5.768   4.852 -0.3552  0.9044 -0.1070
 1439TIP3   OH225807   0.861   4.380   4.149 -0.1624  0.9100 -0.3313
 1439TIP3    H125808   0.796   4.435   4.193  1.3773  2.0922  0.5502
 1439TIP3    H225809   0.945   4.417   4.174  0.9355 -1.3978 -0.3319
 1440TIP3   OH225810   2.603   2.105  14.353  0.5223 -0.1761 -0.8066
 1440TIP3    H125811   2.534   2.081  14.415  0.3536  0.6152 -0.6682
 1440TIP3    H225812   2.684   2.094  14.401  0.4379 -0.2909 -0.6907
 1441TIP3   OH225813   5.152   4.792   3.245  0.1928 -0.1365 -0.5577
 1441TIP3    H125814   5.078   4.759   3.193 -1.0879  0.6407  0.6921
 1441TIP3    H225815   5.134   4.760   3.333  1.8450 -0.6565 -0.3832
 1442TIP3   OH225816   2.276   2.143   0.651 -0.1644 -0.0271 -0.4920
 1442TIP3    H125817   2.300   2.054   0.623  1.8977 -0.3145  1.8111
 1442TIP3    H225818   2.252   2.188   0.570  0.5476 -2.1595 -1.9731
 1443TIP3   OH225819   3.047   0.886  16.656  0.0399  0.0601  0.9049
 1443TIP3    H125820   3.094   0.847  16.730  0.8417 -1.3721 -0.3099
 1443TIP3    H225821   3.061   0.980  16.666  0.5007 -0.1292  2.3076
 1444TIP3   OH225822   2.565   3.572  11.116 -0.0811  0.4510  0.4349
 1444TIP3    H125823   2.661   3.565  11.111 -0.1008  0.4945 -0.0168
 1444TIP3    H225824   2.535   3.556  11.027 -0.4162  1.6959  0.2974
 1445TIP3   OH225825   0.665   3.659  10.923 -0.6488  0.1026 -0.4717
 1445TIP3    H125826   0.721   3.696  10.991 -0.9464 -0.3190  0.0161
 1445TIP3    H225827   0.576   3.671  10.956 -0.7613 -0.8242 -0.4040
 1446TIP3   OH225828   0.644   3.320  11.649 -0.7520  0.0982 -0.1101
 1446TIP3    H125829   0.705   3.342  11.720 -0.5006  0.2768 -0.3810
 1446TIP3    H225830   0.671   3.233  11.621  0.5119  0.8661 -1.4063
 1447TIP3   OH225831   4.599   1.554  15.072  0.1614  0.7089  0.0274
 1447TIP3    H125832   4.694   1.556  15.064  0.3280 -0.4061  1.2704
 1447TIP3    H225833   4.567   1.599  14.994  1.6975  1.0648 -0.4355
 1448TIP3   OH225834   0.737   6.627   1.476 -0.6172 -0.1171  0.0326
 1448TIP3    H125835   0.738   6.544   1.524  1.6254 -0.5734 -0.6757
 1448TIP3    H225836   0.778   6.606   1.392 -0.5716  1.5902 -0.4023
 1449TIP3   OH225837   1.872   0.093   4.960 -0.4920 -0.3603  0.2685
 1449TIP3    H125838   1.835   0.068   5.045  0.3054 -1.5159  0.2927
 1449TIP3    H225839   1.846   0.023   4.901 -0.2085 -0.0632 -0.2163
 1450TIP3   OH225840   0.823   0.086  11.493 -0.3994 -0.2203  0.2817
 1450TIP3    H125841   0.905   0.131  11.515 -0.5912  0.8374 -1.0738
 1450TIP3    H225842   0.774   0.149  11.440 -1.4787 -1.3550 -0.1149
 1451TIP3   OH225843   5.449   3.095  11.397  0.2548  0.3314 -0.3785
 1451TIP3    H125844   5.442   3.191  11.391 -0.9948  0.1696 -2.8328
 1451TIP3    H225845   5.522   3.073  11.341  2.3619 -0.0831  2.3035
 1452TIP3   OH225846   0.959   2.249  16.171  0.1638 -0.0406  0.7122
 1452TIP3    H125847   1.044   2.229  16.131  0.3220 -0.1330  1.0823
 1452TIP3    H225848   0.956   2.193  16.249 -0.4949 -0.4751  0.3827
 1453TIP3   OH225849   6.189   1.260  14.771 -0.0998 -0.1472  0.3383
 1453TIP3    H125850   6.172   1.311  14.692 -1.8494  1.2839  1.5417
 1453TIP3    H225851   6.213   1.173  14.740 -0.0566  0.5623 -1.7510
 1454TIP3   OH225852   0.690   5.785   3.523  0.1550  0.0260 -0.1378
 1454TIP3    H125853   0.778   5.761   3.497  0.0672  0.8365 -1.2677
 1454TIP3    H225854   0.650   5.703   3.552  1.3856 -0.2805  0.7618
 1455TIP3   OH225855   5.430   4.711   2.181 -0.4411  0.0924 -0.0806
 1455TIP3    H125856   5.420   4.718   2.086 -1.5337 -1.6867 -0.1346
 1455TIP3    H225857   5.348   4.671   2.211 -0.0801  0.5429  1.6206
 1456TIP3   OH225858   5.457   5.605  11.727  0.0079 -0.4918 -0.3705
 1456TIP3    H125859   5.446   5.652  11.644 -1.9315 -1.4550 -0.7115
 1456TIP3    H225860   5.370   5.573  11.748  0.3458  0.1481  2.3447
 1457TIP3   OH225861   3.914   3.445   4.481 -0.7288 -0.1043  0.5913
 1457TIP3    H125862   3.901   3.355   4.511  0.7962 -0.1287  1.2868
 1457TIP3    H225863   3.982   3.480   4.539 -0.9834  1.3620  0.0541
 1458TIP3   OH225864   1.882   5.512  15.244  0.0788  0.1542 -0.7201
 1458TIP3    H125865   1.840   5.497  15.159 -0.7888  2.5351 -0.7852
 1458TIP3    H225866   1.859   5.602  15.266  1.2584 -0.0347  1.5178
 1459TIP3   OH225867   1.017   0.353  14.151  0.4098 -0.1603 -0.0520
 1459TIP3    H125868   0.956   0.416  14.110  0.6419 -0.5438 -1.0274
 1459TIP3    H225869   1.084   0.408  14.192  0.1290  0.2454 -0.1288
 1460TIP3   OH225870   0.603   5.474   5.448  0.7015  0.0415 -0.0675
 1460TIP3    H125871   0.588   5.417   5.524  0.9933  0.0979  0.0351
 1460TIP3    H225872   0.519   5.477   5.403  0.7885 -0.8140 -0.3133
 1461TIP3   OH225873   5.470   6.530   0.412 -0.0471  0.2100  0.5265
 1461TIP3    H125874   5.520   6.541   0.331  0.4978 -0.2260  0.7946
 1461TIP3    H225875   5.445   6.437   0.411 -2.2048  0.7361 -0.3677
 1462TIP3   OH225876   1.472   5.947   5.709  0.0530 -0.8149 -0.3884
 1462TIP3    H125877   1.448   5.949   5.801  1.4860  0.8125  0.0003
 1462TIP3    H225878   1.545   5.886   5.705  1.0629  0.3384 -0.1203
 1463TIP3   OH225879   6.272   3.374  11.410  0.0101  0.4474 -0.9392
 1463TIP3    H125880   6.333   3.384  11.483 -0.5884  0.6345 -0.4552
 1463TIP3    H225881   6.327   3.357  11.334  0.6653  0.6959 -0.5228
 1464TIP3   OH225882   3.446   6.639   1.230 -0.1332 -0.2566  0.2177
 1464TIP3    H125883   3.502   6.702   1.276 -0.2488 -0.5141  0.7138
 1464TIP3    H225884   3.400   6.692   1.165 -1.5976  0.5306  1.8285
 1465TIP3   OH225885   4.565   3.217   5.533 -0.7485  0.3835 -0.2611
 1465TIP3    H125886   4.552   3.228   5.439 -1.3318  0.1343 -0.2161
 1465TIP3    H225887   4.639   3.274   5.554  0.8422 -1.1951 -1.2437
 1466TIP3   OH225888   6.021   1.323   2.448  0.0809 -0.0571  0.5734
 1466TIP3    H125889   6.074   1.310   2.369  1.1059 -1.4205  1.4349
 1466TIP3    H225890   5.940   1.276   2.430  0.9932 -1.8682  0.9381
 1467TIP3   OH225891   5.744   2.196   3.590 -0.0174 -0.3970  0.2683
 1467TIP3    H125892   5.693   2.270   3.556 -2.0066 -1.1012  1.5563
 1467TIP3    H225893   5.751   2.136   3.515  0.2288  0.3720 -0.3414
 1468TIP3   OH225894   2.967   2.310  12.163 -0.0642 -0.4399  0.3062
 1468TIP3    H125895   2.939   2.384  12.108  2.7626  0.5097 -0.0079
 1468TIP3    H225896   3.019   2.255  12.104  0.4049 -1.0593  1.2844
 1469TIP3   OH225897   5.229   4.523   1.233  0.5465 -0.0621 -0.3412
 1469TIP3    H125898   5.299   4.573   1.191  0.9795  0.3529  0.8412
 1469TIP3    H225899   5.224   4.559   1.322 -2.1634  0.9354 -0.8101
 1470TIP3   OH225900   0.566   6.558  13.259 -0.1744 -0.1810 -0.0883
 1470TIP3    H125901   0.631   6.623  13.236  0.5527 -0.7638  0.2589
 1470TIP3    H225902   0.540   6.519  13.176  0.4043 -0.3885 -0.1769
 1471TIP3   OH225903   6.357   4.697  11.631 -0.2016  0.1948 -0.1299
 1471TIP3    H125904   6.438   4.688  11.682 -0.8049 -2.5894  0.5052
 1471TIP3    H225905   6.380   4.664  11.544 -0.6162 -0.5200  0.0268
 1472TIP3   OH225906   4.370   5.137  17.173 -0.3276  0.2050  0.1643
 1472TIP3    H125907   4.439   5.091  17.221 -1.8855 -2.0643  0.3301
 1472TIP3    H225908   4.289   5.111  17.215 -1.4662  1.1542 -1.3498
 1473TIP3   OH225909   2.499   4.085  11.163 -0.4248  0.3456  0.1955
 1473TIP3    H125910   2.586   4.055  11.189 -0.2435  0.0735 -0.6992
 1473TIP3    H225911   2.452   4.005  11.141 -0.0816  0.6361 -1.7686
 1474TIP3   OH225912   1.719   6.752   2.560 -0.0348 -0.3274  0.5053
 1474TIP3    H125913   1.812   6.770   2.572 -0.1373 -0.9920  2.6768
 1474TIP3    H225914   1.716   6.678   2.499  0.7501  0.5266 -0.6281
 1475TIP3   OH225915   2.370   3.764   2.758 -0.2562  0.2195  0.3008
 1475TIP3    H125916   2.386   3.837   2.697 -0.2172 -0.2472 -0.2517
 1475TIP3    H225917   2.432   3.779   2.829  0.9476 -0.1998 -0.6281
 1476TIP3   OH225918   4.519   2.656   0.888 -0.2336  0.3633  0.2887
 1476TIP3    H125919   4.543   2.612   0.969  0.6418  0.9751  0.3813
 1476TIP3    H225920   4.478   2.588   0.834 -1.1697  0.0353  1.3737
 1477TIP3   OH225921   0.308   2.816   1.557  0.1339 -0.4661  0.1588
 1477TIP3    H125922   0.216   2.832   1.538 -0.4903 -3.5049  0.1321
 1477TIP3    H225923   0.345   2.784   1.474  1.5323  1.6333 -0.1093
 1478TIP3   OH225924   3.160   0.043   0.048  0.4680  0.3743 -0.4124
 1478TIP3    H125925   3.207   0.106  -0.007 -1.4101  1.0174 -1.3812
 1478TIP3    H225926   3.168  -0.040   0.001  1.4715  0.2389 -0.0309
 1479TIP3   OH225927   5.518   4.742   1.621  0.1991  0.1681  0.0676
 1479TIP3    H125928   5.584   4.803   1.587  0.8441 -0.2519  0.5320
 1479TIP3    H225929   5.540   4.658   1.580 -0.8255  0.2854 -0.7453
 1480TIP3   OH225930   5.513   3.121   3.620 -0.0089 -0.1708  0.3170
 1480TIP3    H125931   5.500   3.185   3.550  1.0144 -0.8761 -0.5423
 1480TIP3    H225932   5.603   3.135   3.648 -0.4901  0.3014  1.7313
 1481TIP3   OH225933   3.390   5.911   2.580 -0.0869  0.1975  0.2349
 1481TIP3    H125934   3.468   5.871   2.542  1.6801  2.6154  1.1081
 1481TIP3    H225935   3.324   5.842   2.575  2.5779 -2.6716  1.2555
 1482TIP3   OH225936   6.554   0.713  14.159  0.0839 -0.2038  0.4242
 1482TIP3    H125937   6.531   0.792  14.110 -2.1348 -0.7816  0.4497
 1482TIP3    H225938   6.608   0.745  14.232  1.3996  0.9400 -0.9780
 1483TIP3   OH225939   1.304   5.631   0.746  0.3336  0.4108  0.2605
 1483TIP3    H125940   1.389   5.599   0.716 -0.1915 -0.1417 -0.6947
 1483TIP3    H225941   1.276   5.692   0.678  0.3342  1.2454  0.9890
 1484TIP3   OH225942   0.996   2.416   4.720 -0.9620 -0.5741  0.5315
 1484TIP3    H125943   1.091   2.408   4.730 -0.9233  0.8146  1.5976
 1484TIP3    H225944   0.977   2.506   4.747 -2.2309  0.1613 -2.4093
 1485TIP3   OH225945   4.565   1.644  14.032  0.0820  0.7339 -0.2679
 1485TIP3    H125946   4.490   1.648  14.092 -0.2600  0.9017 -0.7056
 1485TIP3    H225947   4.553   1.718  13.973 -0.9767 -0.8769 -2.1731
 1486TIP3   OH225948   6.025   0.972   6.458  0.5718  0.4868 -0.3179
 1486TIP3    H125949   5.961   0.978   6.529 -0.2684 -0.8970 -0.9184
 1486TIP3    H225950   6.044   1.063   6.435 -1.9565  0.9511 -0.7999
 1487TIP3   OH225951   4.287   0.828  14.144 -0.1591  0.0051  0.0182
 1487TIP3    H125952   4.303   0.735  14.128  0.1716 -0.5185  2.8730
 1487TIP3    H225953   4.372   0.862  14.172 -0.5310  0.9368  0.0545
 1488TIP3   OH225954   0.660   3.066   2.015 -0.7026  0.7225 -0.9290
 1488TIP3    H125955   0.570   3.078   2.047  0.0971  3.0796  0.7382
 1488TIP3    H225956   0.687   3.154   1.988  1.5028  0.3163 -0.2004
 1489TIP3   OH225957   4.950   2.615   1.133 -0.1138 -0.3040  0.2292
 1489TIP3    H125958   4.857   2.609   1.155 -0.4392  0.6461 -0.7872
 1489TIP3    H225959   4.992   2.635   1.216 -0.7641 -1.1216  0.7749
 1490TIP3   OH225960   0.383   2.955   3.770  0.2988 -0.2811 -0.0654
 1490TIP3    H125961   0.376   2.862   3.749  0.6262 -0.6248  1.2607
 1490TIP3    H225962   0.318   2.969   3.840  1.2458  0.1611  0.7482
 1491TIP3   OH225963   4.120   2.989   0.356  0.7167 -0.4289 -0.1128
 1491TIP3    H125964   4.179   3.057   0.389  1.6450 -1.2172 -0.1260
 1491TIP3    H225965   4.167   2.950   0.283  0.5232 -1.5864  0.3627
 1492TIP3   OH225966   5.758   5.496   4.850  0.1198 -0.1514  1.5602
 1492TIP3    H125967   5.732   5.584   4.824 -0.8059 -0.8731 -0.1076
 1492TIP3    H225968   5.854   5.501   4.857  0.2916  0.5360 -0.4783
 1493TIP3   OH225969   2.591   0.804   2.200  0.0643 -0.5810  0.2947
 1493TIP3    H125970   2.497   0.816   2.216  0.2437  1.3114  0.2449
 1493TIP3    H225971   2.601   0.827   2.107  0.5032 -1.3104  0.1607
 1494TIP3   OH225972   1.833   2.368   3.342 -0.0526  0.5629  0.3454
 1494TIP3    H125973   1.837   2.288   3.394  0.6362  0.5124  0.2254
 1494TIP3    H225974   1.924   2.387   3.320 -0.3144  0.6850 -0.6866
 1495TIP3   OH225975   3.246   1.968  12.138 -0.2213 -0.3102  0.4695
 1495TIP3    H125976   3.172   1.909  12.129 -1.8364  1.0153  3.6151
 1495TIP3    H225977   3.224   2.043  12.083 -0.0843 -0.8910 -0.3919
 1496TIP3   OH225978   0.794   2.980  16.167  0.1767 -0.0312  0.0892
 1496TIP3    H125979   0.705   2.951  16.187  0.8351 -2.0106  0.3485
 1496TIP3    H225980   0.824   3.020  16.249 -0.8923  1.9228 -0.4030
 1497TIP3   OH225981   0.280   3.617   6.119 -0.2319 -0.0484  0.4507
 1497TIP3    H125982   0.302   3.637   6.210  1.4337 -1.1912  0.3369
 1497TIP3    H225983   0.186   3.636   6.113 -0.3249  0.3379  2.3121
 1498TIP3   OH225984   3.564   4.974   0.926  0.4255  0.1607  0.0651
 1498TIP3    H125985   3.651   4.934   0.926  0.9834  1.2838 -1.2811
 1498TIP3    H225986   3.510   4.913   0.975  1.4811 -1.6788 -0.9366
 1499TIP3   OH225987   2.110   6.009  11.391 -0.2755  0.1127 -0.1836
 1499TIP3    H125988   2.164   5.982  11.316 -0.2581  0.5908 -0.3481
 1499TIP3    H225989   2.022   6.017  11.356 -0.2015  0.7091 -0.2487
 1500TIP3   OH225990   1.824   5.152   1.361 -0.0117 -0.1525  0.0162
 1500TIP3    H125991   1.848   5.120   1.448  1.8293  1.6746  0.2603
 1500TIP3    H225992   1.783   5.236   1.376 -0.8942 -0.4084 -0.8387
 1501TIP3   OH225993   5.258   5.957  15.951  0.4317  0.3866  0.9548
 1501TIP3    H125994   5.286   5.932  16.039  0.6341 -3.4110 -0.0074
 1501TIP3    H225995   5.162   5.956  15.955  0.4237 -0.8043  0.9751
 1502TIP3   OH225996   2.374   1.430   2.014  0.2590  0.0908 -0.4985
 1502TIP3    H125997   2.430   1.357   1.985 -0.8412 -0.3769 -1.5465
 1502TIP3    H225998   2.426   1.475   2.080  1.5945 -0.7342 -0.9372
 1503TIP3   OH225999   5.231   1.863  15.614  0.0773 -0.6062  0.0363
 1503TIP3    H126000   5.138   1.847  15.596 -0.7038  1.8270  1.3131
 1503TIP3    H226001   5.232   1.888  15.707  1.7730  0.7817 -0.3120
 1504TIP3   OH226002   6.087   1.593   1.784 -0.1238 -0.3996  0.3082
 1504TIP3    H126003   6.147   1.559   1.850 -0.5676 -2.6728 -0.3683
 1504TIP3    H226004   6.052   1.673   1.822  1.6626 -0.1881  1.6409
 1505TIP3   OH226005   3.016   6.799   4.823  0.1896  0.1851 -0.2233
 1505TIP3    H126006   3.065   6.769   4.900 -0.2523  0.6703  0.2543
 1505TIP3    H226007   2.943   6.850   4.859 -0.3082  0.0019 -0.9470
 1506TIP3   OH226008   2.128   4.290  15.776 -0.4609 -0.4786  0.1579
 1506TIP3    H126009   2.212   4.251  15.799  0.0423  1.1497  1.3009
 1506TIP3    H226010   2.132   4.302  15.681  0.6380 -0.3453  0.2122
 1507TIP3   OH226011   4.693   0.466  12.754 -0.8664  0.1732 -0.2295
 1507TIP3    H126012   4.694   0.416  12.672 -0.8546  0.6963 -0.5526
 1507TIP3    H226013   4.609   0.511  12.754 -0.3451  1.1908 -0.5926
 1508TIP3   OH226014   3.214   0.944  15.980 -0.3068 -0.3419  0.0057
 1508TIP3    H126015   3.180   0.879  16.042 -1.3801  0.8948  0.7723
 1508TIP3    H226016   3.298   0.970  16.016 -0.8294  0.2176  0.8641
 1509TIP3   OH226017   4.572   5.297   5.529  0.2759 -0.1989  0.4119
 1509TIP3    H126018   4.619   5.342   5.459 -0.3822 -1.1292 -0.6757
 1509TIP3    H226019   4.622   5.216   5.542  0.1368 -0.2398  0.6851
 1510TIP3   OH226020   4.193   1.398   3.939  1.0842 -0.3368 -0.3110
 1510TIP3    H126021   4.264   1.334   3.931 -0.3994 -2.3497  1.5756
 1510TIP3    H226022   4.218   1.451   4.015  1.3746  0.0520 -0.6774
 1511TIP3   OH226023   0.911   5.333  17.150  0.1811 -0.7532  0.3067
 1511TIP3    H126024   0.854   5.264  17.116 -2.6879  0.6221  1.9788
 1511TIP3    H226025   0.902   5.327  17.245  2.4283 -0.0505  0.6285
 1512TIP3   OH226026   0.105   5.410   2.354  0.3423 -0.4209 -0.3032
 1512TIP3    H126027   0.082   5.354   2.280 -2.1577 -0.8446  0.7116
 1512TIP3    H226028   0.046   5.486   2.346  0.1657 -0.3881  1.1374
 1513TIP3   OH226029   0.767   0.490   1.927 -0.1737  0.0319  0.7380
 1513TIP3    H126030   0.729   0.416   1.973  0.0557 -0.8679 -0.4673
 1513TIP3    H226031   0.786   0.457   1.839 -0.7121  1.7201 -0.0556
 1514TIP3   OH226032   6.410   5.604   5.489 -0.2446  0.1566  0.5361
 1514TIP3    H126033   6.412   5.681   5.546 -0.5995 -0.1471  0.9663
 1514TIP3    H226034   6.319   5.575   5.493 -0.0786 -0.3747  0.4944
 1515TIP3   OH226035   1.052   6.776   5.254 -0.4500 -0.5146 -0.5100
 1515TIP3    H126036   1.123   6.803   5.196 -0.5115 -0.6737 -0.6585
 1515TIP3    H226037   0.994   6.852   5.257 -0.3623 -0.4471 -0.5276
 1516TIP3   OH226038   6.161   4.913  15.870  0.1375  0.1950 -0.1587
 1516TIP3    H126039   6.182   4.947  15.783  0.8888  1.7331  0.5825
 1516TIP3    H226040   6.244   4.915  15.918 -0.1781 -1.0235  0.4814
 1517TIP3   OH226041   0.150   6.186   1.428  0.8533 -0.3189 -0.2968
 1517TIP3    H126042   0.116   6.158   1.343 -2.9921  1.7409  0.3284
 1517TIP3    H226043   0.151   6.281   1.424  2.0699 -0.1961  1.5145
 1518TIP3   OH226044   4.045   1.025  11.517 -0.3955  0.2733  0.1700
 1518TIP3    H126045   4.035   1.013  11.423 -2.1084  0.5276  0.2762
 1518TIP3    H226046   4.067   0.938  11.551  1.5147  0.4251 -0.5613
 1519TIP3   OH226047   5.961   0.712   0.352  0.3378  0.8977 -0.1966
 1519TIP3    H126048   5.971   0.789   0.297 -0.7995  0.1493 -1.5210
 1519TIP3    H226049   5.881   0.728   0.401  1.3135  1.5346  1.2688
 1520TIP3   OH226050   2.582   1.543   2.536  0.4584  0.2305 -0.0018
 1520TIP3    H126051   2.655   1.552   2.475  1.9951  1.0911  1.8387
 1520TIP3    H226052   2.583   1.451   2.562  0.9906  0.2638  0.1055
 1521TIP3   OH226053   0.164   3.866  10.877 -0.1943 -0.2201  0.0588
 1521TIP3    H126054   0.248   3.829  10.849  0.0826 -1.7587  2.6654
 1521TIP3    H226055   0.099   3.813  10.832  0.1845  0.2957 -1.1501
 1522TIP3   OH226056   4.527   0.047   0.040  0.4381 -0.0626 -0.5534
 1522TIP3    H126057   4.513   0.141   0.032 -2.2437 -0.3515 -0.3432
 1522TIP3    H226058   4.487   0.024   0.124  1.3548 -1.3474 -0.4417
 1523TIP3   OH226059   3.323   4.681  15.628 -0.3256  0.0072 -0.1976
 1523TIP3    H126060   3.355   4.771  15.615 -0.3214  0.3989  2.0737
 1523TIP3    H226061   3.402   4.629  15.640 -0.3148 -0.3949 -1.8117
 1524TIP3   OH226062   3.094   4.340   1.597 -0.2244  0.3792  0.2843
 1524TIP3    H126063   3.179   4.382   1.583 -0.5776  0.3137 -2.7402
 1524TIP3    H226064   3.110   4.275   1.666  1.5594  1.9476  1.4352
 1525TIP3   OH226065   4.684   3.267  14.637  0.4868 -0.0960 -0.5777
 1525TIP3    H126066   4.598   3.306  14.618  0.8974  0.6305 -0.9900
 1525TIP3    H226067   4.696   3.201  14.568 -1.3404 -2.9293  1.5401
 1526TIP3   OH226068   2.793   0.797   2.388  0.0242 -0.4861 -0.4047
 1526TIP3    H126069   2.854   0.850   2.337  0.9766 -2.5250 -1.5016
 1526TIP3    H226070   2.713   0.794   2.335  0.1892 -0.6697 -0.6437
 1527TIP3   OH226071   5.872   2.352  16.667  0.6892 -0.1341  0.9485
 1527TIP3    H126072   5.891   2.263  16.697  0.9640 -0.2832  0.3465
 1527TIP3    H226073   5.778   2.353  16.653  0.6600 -0.2765  1.1275
 1528TIP3   OH226074   0.159   5.003  15.551 -0.4298  0.2110 -0.4246
 1528TIP3    H126075   0.073   5.043  15.544 -0.4015  0.9276  2.1769
 1528TIP3    H226076   0.147   4.930  15.613  0.6524 -0.2506 -0.7243
 1529TIP3   OH226077   3.768   4.483   0.253  0.1154  0.1358  0.0965
 1529TIP3    H126078   3.820   4.552   0.213  1.9793 -2.6230 -2.6676
 1529TIP3    H226079   3.720   4.443   0.180  0.1808 -2.3277  1.3039
 1530TIP3   OH226080   0.937   6.363  11.341 -0.2156 -0.1431  0.0950
 1530TIP3    H126081   0.959   6.353  11.248  0.1554 -1.4994  0.3099
 1530TIP3    H226082   1.020   6.349  11.386 -0.2477  1.2424  0.6112
 1531TIP3   OH226083   6.424   5.978  14.852  0.4330 -0.0584  0.2340
 1531TIP3    H126084   6.428   5.889  14.889 -1.2495 -0.4699 -0.5102
 1531TIP3    H226085   6.436   5.965  14.758  2.3144  0.7631  0.3041
 1532TIP3   OH226086   0.355   4.981   3.941 -0.8182 -0.3166 -0.5668
 1532TIP3    H126087   0.334   4.937   4.024 -0.6905  0.8793  0.1232
 1532TIP3    H226088   0.433   4.936   3.909 -1.1317 -1.0911 -0.2687
 1533TIP3   OH226089   0.813   3.047   0.401  0.0340 -0.6174  0.3868
 1533TIP3    H126090   0.729   3.057   0.447 -0.4975 -1.1211 -0.4324
 1533TIP3    H226091   0.812   3.115   0.334  0.6409 -0.1217  0.8740
 1534TIP3   OH226092   6.629   2.956   1.308 -0.0526  0.3085 -0.2597
 1534TIP3    H126093   6.562   2.893   1.333 -0.2984  0.3725 -0.7347
 1534TIP3    H226094   6.606   3.037   1.354 -0.3205  0.3373 -0.4416
 1535TIP3   OH226095   5.772   1.025  16.404  1.1614 -0.7472  0.2500
 1535TIP3    H126096   5.694   1.029  16.349  0.2748  0.3911  1.5081
 1535TIP3    H226097   5.769   0.938  16.444  0.3086 -0.5936  0.5534
 1536TIP3   OH226098   3.030   4.185   6.117 -0.2067  0.1810  0.0041
 1536TIP3    H126099   2.973   4.110   6.130  0.7480 -0.8514 -1.5181
 1536TIP3    H226100   3.038   4.224   6.204  0.8645 -2.6384  1.2766
 1537TIP3   OH226101   6.007   3.409  11.364  0.5684  0.1760  0.0681
 1537TIP3    H126102   6.018   3.498  11.329  2.6139 -0.5602 -1.3800
 1537TIP3    H226103   6.096   3.381  11.386  0.0009 -1.5990  0.2850
 1538TIP3   OH226104   6.695   0.835  15.809 -0.0089  0.5126  0.2710
 1538TIP3    H126105   6.686   0.796  15.722  3.9064 -1.7607  0.6394
 1538TIP3    H226106   6.719   0.762  15.866  0.3015  2.3807  2.6921
 1539TIP3   OH226107   0.672   6.238   2.294  0.0029 -0.2214 -0.4468
 1539TIP3    H126108   0.685   6.158   2.244  0.1904 -0.0626 -0.6602
 1539TIP3    H226109   0.723   6.304   2.246  0.0384 -0.0279 -0.1448
 1540TIP3   OH226110   1.124   6.749   6.236 -0.3055 -0.0252  0.4765
 1540TIP3    H126111   1.076   6.827   6.206 -0.2449 -0.3598 -0.5104
 1540TIP3    H226112   1.167   6.778   6.317 -1.6395  0.4710  1.0430
 1541TIP3   OH226113   0.417   1.408   5.564  0.0429 -0.3573 -0.1313
 1541TIP3    H126114   0.448   1.459   5.489 -0.3424  0.1452  0.0452
 1541TIP3    H226115   0.322   1.403   5.552 -0.0099 -0.3532  0.2805
 1542TIP3   OH226116   1.094   2.366   2.225 -0.2234 -0.1635  0.1656
 1542TIP3    H126117   1.072   2.279   2.194 -0.0566  0.0443 -0.5496
 1542TIP3    H226118   1.146   2.351   2.304  0.7033 -0.7517 -0.5308
 1543TIP3   OH226119   4.105   6.333   0.536 -0.0950 -0.0590 -0.1095
 1543TIP3    H126120   4.023   6.358   0.494 -0.1885 -1.0634 -0.5512
 1543TIP3    H226121   4.143   6.268   0.478 -0.2707 -1.5773  1.3959
 1544TIP3   OH226122   1.767   0.797   4.273  0.0800 -0.1256  0.2513
 1544TIP3    H126123   1.828   0.783   4.201  0.4675  3.9801 -0.4781
 1544TIP3    H226124   1.792   0.732   4.338  3.1082 -0.7324 -1.3241
 1545TIP3   OH226125   4.847   2.317  15.491  0.3188  0.7946 -0.4866
 1545TIP3    H126126   4.934   2.295  15.525 -0.4150  0.4423  1.2931
 1545TIP3    H226127   4.799   2.234  15.494 -0.5639  1.3168  0.1498
 1546TIP3   OH226128   6.090   0.937  12.217 -0.0596  0.4338  0.1367
 1546TIP3    H126129   6.022   0.984  12.170 -0.8857 -0.7498  0.0920
 1546TIP3    H226130   6.056   0.930  12.307  0.1590  0.1540  0.1993
 1547TIP3   OH226131   2.446   5.086  16.362 -0.1158 -0.2354  0.1382
 1547TIP3    H126132   2.500   5.109  16.438  1.4148  0.8326 -1.2020
 1547TIP3    H226133   2.371   5.040  16.399  1.3333 -1.1266  2.1760
 1548TIP3   OH226134   2.160   4.181  13.916  0.0923 -0.3273 -0.1487
 1548TIP3    H126135   2.099   4.253  13.903 -0.9947 -1.3317 -0.7621
 1548TIP3    H226136   2.192   4.160  13.828  1.8476  0.6079  0.2289
 1549TIP3   OH226137   1.092   3.197   3.051 -0.2759  0.2785 -0.4234
 1549TIP3    H126138   1.006   3.158   3.037 -0.6276  1.4518 -1.7350
 1549TIP3    H226139   1.081   3.254   3.127 -0.5032  0.0240 -0.2649
 1550TIP3   OH226140   0.306   0.021   6.644  0.0768  0.2018  0.0712
 1550TIP3    H126141   0.227   0.036   6.593  0.4238  1.8371 -0.0380
 1550TIP3    H226142   0.362   0.096   6.624  0.1834  0.9774  2.9365
 1551TIP3   OH226143   3.145   3.817   4.104 -0.1863 -0.3723  0.4844
 1551TIP3    H126144   3.136   3.761   4.180 -2.1085  0.9188  1.2881
 1551TIP3    H226145   3.056   3.843   4.082  0.3408 -0.3775 -1.9851
 1552TIP3   OH226146   0.852   0.130  16.943 -0.0097  0.1433  0.2763
 1552TIP3    H126147   0.815   0.084  17.018 -0.0112 -1.2798 -0.5734
 1552TIP3    H226148   0.790   0.114  16.872  1.3367 -0.8262 -0.7191
 1553TIP3   OH226149   2.219   3.519   3.489  0.0485 -0.5316 -0.3167
 1553TIP3    H126150   2.130   3.531   3.522 -0.5581 -0.7800 -1.7564
 1553TIP3    H226151   2.241   3.602   3.448  0.1656 -0.7188 -0.6406
 1554TIP3   OH226152   4.813   5.359  15.220 -0.0182 -0.1360 -0.1655
 1554TIP3    H126153   4.845   5.278  15.180 -0.0469 -0.2096 -0.0417
 1554TIP3    H226154   4.762   5.402  15.152  0.0465 -0.1940 -0.2503
 1555TIP3   OH226155   0.368   2.521  10.583  0.4113  0.0248  0.1233
 1555TIP3    H126156   0.302   2.586  10.558 -0.1947 -1.2659 -1.8326
 1555TIP3    H226157   0.332   2.480  10.662 -1.6389 -1.2285 -1.3522
 1556TIP3   OH226158   5.951   0.012   4.319  0.3538 -0.0638 -0.1281
 1556TIP3    H126159   5.893  -0.029   4.382  0.0200  0.5702 -0.0129
 1556TIP3    H226160   5.951  -0.047   4.244 -0.1507 -0.2541  0.0184
 1557TIP3   OH226161   0.004   6.101  14.269  0.0684  0.2800 -0.0957
 1557TIP3    H126162  -0.038   6.073  14.351  1.2002 -1.0637  0.0754
 1557TIP3    H226163  -0.032   6.188  14.252  0.4702  0.9918  2.3114
 1558TIP3   OH226164   1.772   2.470  16.506 -0.7134  0.1115 -0.1393
 1558TIP3    H126165   1.763   2.444  16.415  0.3182 -0.3308 -0.1223
 1558TIP3    H226166   1.846   2.419  16.539 -2.3550 -1.3417  1.5502
 1559TIP3   OH226167   5.482   6.490  16.331 -0.1821 -0.6025 -0.3145
 1559TIP3    H126168   5.455   6.464  16.244 -0.3292 -0.0193 -0.4489
 1559TIP3    H226169   5.533   6.570  16.318  1.3768 -1.5051 -0.0425
 1560TIP3   OH226170   1.389   2.324   0.015  0.4629  0.9678  0.1244
 1560TIP3    H126171   1.346   2.408   0.033 -0.3643  0.8737 -1.2045
 1560TIP3    H226172   1.444   2.341  -0.062  1.5836  0.6809  0.8441
 1561TIP3   OH226173   3.168   4.579  13.374 -0.6072 -0.1131 -0.4189
 1561TIP3    H126174   3.151   4.507  13.314  1.1781  1.3821 -2.8815
 1561TIP3    H226175   3.260   4.569  13.398 -0.1761  1.5560 -1.2158
 1562TIP3   OH226176   4.585   0.713  13.100  0.5660 -0.1224 -0.3661
 1562TIP3    H126177   4.610   0.706  13.192 -1.2512  0.4970  0.2059
 1562TIP3    H226178   4.490   0.700  13.099  0.6303 -0.7670 -2.2393
 1563TIP3   OH226179   2.698   0.350  16.731 -0.5965 -0.5200  0.1902
 1563TIP3    H126180   2.703   0.419  16.664 -2.2894 -2.3242 -1.9708
 1563TIP3    H226181   2.626   0.376  16.788  0.8623  1.0412  1.4104
 1564TIP3   OH226182   5.077   5.773  12.933 -0.0470 -0.1257 -0.0322
 1564TIP3    H126183   5.039   5.746  12.849  0.2393  0.6578 -0.4263
 1564TIP3    H226184   5.018   5.840  12.966  1.0439  1.2610 -0.7554
 1565TIP3   OH226185   0.930   3.845   5.823 -0.3473  0.3669 -0.2577
 1565TIP3    H126186   0.867   3.821   5.890 -0.2476 -0.7853 -0.5604
 1565TIP3    H226187   0.877   3.886   5.754 -0.7384 -0.3717 -0.4045
 1566TIP3   OH226188   2.652   1.342   2.742  0.3526 -0.7230 -0.1236
 1566TIP3    H126189   2.667   1.252   2.773 -0.3821 -2.3227 -3.8855
 1566TIP3    H226190   2.736   1.368   2.703 -0.1195 -0.7807 -1.2072
 1567TIP3   OH226191   1.097   1.825  16.632 -0.6837 -0.0386  0.2666
 1567TIP3    H126192   1.105   1.838  16.538  0.7721 -0.6177  0.2858
 1567TIP3    H226193   1.070   1.733  16.641  3.1149 -1.3402  0.4204
 1568TIP3   OH226194   5.882   2.826   3.750 -0.3906 -0.0032 -0.1366
 1568TIP3    H126195   5.956   2.803   3.694 -1.5894 -0.0735 -1.7368
 1568TIP3    H226196   5.915   2.899   3.804  0.6271  0.4501 -1.3194
 1569TIP3   OH226197   0.671   3.162  12.185 -0.3393 -0.2103  0.5076
 1569TIP3    H126198   0.677   3.136  12.277 -1.9321  0.2537  0.7654
 1569TIP3    H226199   0.717   3.092  12.137  0.1079 -0.6897  1.6074
 1570TIP3   OH226200   5.665   1.028  14.707  0.0727 -0.0145  0.6820
 1570TIP3    H126201   5.741   1.078  14.676  0.7065 -1.4204 -0.0916
 1570TIP3    H226202   5.619   1.090  14.764  0.3754  1.7371 -0.8555
 1571TIP3   OH226203   4.041   3.368  16.526  0.1147  0.0106  0.5110
 1571TIP3    H126204   4.023   3.373  16.619  2.0948  2.3859  0.8665
 1571TIP3    H226205   3.991   3.440  16.488  2.2294  1.5050  0.3778
 1572TIP3   OH226206   0.695   4.172  13.358 -0.4328 -0.5986  0.2550
 1572TIP3    H126207   0.625   4.234  13.340  1.0944  0.7624 -1.4037
 1572TIP3    H226208   0.685   4.105  13.291  0.3791  0.1206 -0.6194
 1573TIP3   OH226209   3.248   4.591   5.972  0.4667  0.1141  0.1159
 1573TIP3    H126210   3.217   4.537   5.899  1.0176 -0.3420  0.2127
 1573TIP3    H226211   3.174   4.595   6.032 -0.3360  1.2922 -0.8948
 1574TIP3   OH226212   0.880   5.654   2.477 -0.2980  0.6458 -0.5044
 1574TIP3    H126213   0.838   5.636   2.561 -1.3545 -0.6630 -1.2717
 1574TIP3    H226214   0.937   5.729   2.494  2.0593 -1.5296  2.2117
 1575TIP3   OH226215   6.787   5.361   4.889  0.1158 -0.2209 -0.3726
 1575TIP3    H126216   6.816   5.380   4.978  0.7810  1.0818 -0.8446
 1575TIP3    H226217   6.846   5.411   4.833 -1.3394  0.3186 -1.4867
 1576TIP3   OH226218   3.422   0.386   1.183  0.0470 -0.6070 -0.4242
 1576TIP3    H126219   3.446   0.468   1.226 -1.3192 -0.0134 -0.7380
 1576TIP3    H226220   3.391   0.412   1.096 -0.0271 -1.4998 -0.6799
 1577TIP3   OH226221   2.929   0.783   4.724 -0.1276  0.0509 -0.3106
 1577TIP3    H126222   3.006   0.827   4.761 -1.5450  2.8116 -0.4160
 1577TIP3    H226223   2.960   0.747   4.641  0.9900  1.5521 -0.5970
 1578TIP3   OH226224   4.856   5.694   5.867 -0.6769  0.3695  0.6391
 1578TIP3    H126225   4.796   5.652   5.806  1.0796  0.5179 -1.2921
 1578TIP3    H226226   4.828   5.786   5.869 -1.0416  0.2642  0.4384
 1579TIP3   OH226227   3.303   1.262  11.422 -0.1935 -0.2309  0.7178
 1579TIP3    H126228   3.381   1.210  11.401 -0.8502 -0.7954 -0.4222
 1579TIP3    H226229   3.243   1.200  11.462 -0.2476  0.1017  1.1644
 1580TIP3   OH226230   0.900   3.788   3.417  0.0901 -0.8541 -0.2788
 1580TIP3    H126231   0.915   3.696   3.439 -0.4196 -0.7568  0.5418
 1580TIP3    H226232   0.890   3.789   3.322  0.6419 -1.5658 -0.3499
 1581TIP3   OH226233   5.578   4.119  11.381  0.5330  0.4609  0.6648
 1581TIP3    H126234   5.567   4.085  11.470  0.5942  0.1509  0.5569
 1581TIP3    H226235   5.555   4.211  11.387 -0.5956  0.1815  0.7585
 1582TIP3   OH226236   0.398   0.645  15.404 -0.2360  0.0056  0.3628
 1582TIP3    H126237   0.379   0.563  15.359  0.0111  0.3104 -0.3072
 1582TIP3    H226238   0.404   0.621  15.496  1.3932 -1.0359  0.0302
 1583TIP3   OH226239   5.777   2.005   5.754  0.3249 -0.0078  0.8279
 1583TIP3    H126240   5.782   2.024   5.660 -1.8706  1.3079  0.8915
 1583TIP3    H226241   5.796   1.911   5.760  0.1870 -0.2025 -0.9927
 1584TIP3   OH226242   1.477   3.941  10.339 -0.5414 -0.3384  0.2829
 1584TIP3    H126243   1.414   3.992  10.388 -3.0894 -1.3118 -1.7421
 1584TIP3    H226244   1.454   3.850  10.358 -0.2750 -0.7149 -1.0750
 1585TIP3   OH226245   1.727   1.893  12.229 -0.5215  0.2507 -0.0287
 1585TIP3    H126246   1.794   1.855  12.172  0.1305 -1.1198  1.5320
 1585TIP3    H226247   1.656   1.828  12.229 -0.1638 -0.1806  1.2919
 1586TIP3   OH226248   1.279   1.019   0.934 -0.4350  0.0439  0.2714
 1586TIP3    H126249   1.348   0.961   0.903  0.3434  0.9165  0.3256
 1586TIP3    H226250   1.208   0.960   0.960 -0.0905 -0.8215 -0.6809
 1587TIP3   OH226251   4.229   2.325   3.449 -0.4187  0.4364 -0.2776
 1587TIP3    H126252   4.315   2.286   3.434 -0.7549  0.0700 -1.3776
 1587TIP3    H226253   4.227   2.345   3.542 -0.4286 -2.6607  0.4800
 1588TIP3   OH226254   5.482   5.705  14.733  0.2265  0.0127 -0.2210
 1588TIP3    H126255   5.474   5.752  14.650  0.8033 -0.2930 -0.4581
 1588TIP3    H226256   5.573   5.675  14.734  0.6043  1.0745  1.0732
 1589TIP3   OH226257   4.451   2.662  15.648  0.3562 -0.3417  0.0098
 1589TIP3    H126258   4.404   2.616  15.578 -4.0793  0.8060  1.9269
 1589TIP3    H226259   4.519   2.600  15.675 -0.0507 -2.2741 -2.8461
 1590TIP3   OH226260   0.392   4.958   0.979 -0.1397  0.0656  0.4397
 1590TIP3    H126261   0.462   4.960   0.914 -1.2435 -0.3551 -0.8011
 1590TIP3    H226262   0.388   5.048   1.013  0.9811  0.0961  0.5549
 1591TIP3   OH226263   6.357   1.447  16.133  0.1024  0.9336 -0.3530
 1591TIP3    H126264   6.340   1.354  16.150  0.9693  0.6719 -0.8322
 1591TIP3    H226265   6.273   1.482  16.106  0.1970 -0.2655 -2.4718
 1592TIP3   OH226266   4.026   0.602   3.072 -0.2544 -0.3076 -0.0567
 1592TIP3    H126267   4.013   0.620   2.979  0.5449  0.5608 -0.0195
 1592TIP3    H226268   3.998   0.512   3.084 -3.9840  0.6359 -0.3999
 1593TIP3   OH226269   1.708   3.759  15.934  0.1437  0.4249  0.1929
 1593TIP3    H126270   1.787   3.807  15.959 -0.0376 -0.6390  3.1571
 1593TIP3    H226271   1.738   3.671  15.915 -0.1672  0.4039 -0.2276
 1594TIP3   OH226272   5.409   1.266  14.522  0.2232 -0.3121  0.0152
 1594TIP3    H126273   5.460   1.198  14.567 -0.0806 -1.0494 -0.7156
 1594TIP3    H226274   5.402   1.234  14.432  0.1254  0.7345 -0.3537
 1595TIP3   OH226275   3.277   0.541   4.593 -0.1883  0.4494  0.1182
 1595TIP3    H126276   3.348   0.521   4.654 -1.7065 -1.8291  1.2642
 1595TIP3    H226277   3.204   0.569   4.650 -0.6370  1.5230 -0.9382
 1596TIP3   OH226278   4.880   3.275   1.936 -0.4362 -0.3390  0.2927
 1596TIP3    H126279   4.796   3.285   1.892  0.3949  2.6344 -0.8497
 1596TIP3    H226280   4.945   3.292   1.868  1.0835 -1.3799  1.4232
 1597TIP3   OH226281   5.161   5.947  14.148  0.5107 -0.2484 -0.1809
 1597TIP3    H126282   5.222   6.002  14.099  1.1529  0.3487  1.2188
 1597TIP3    H226283   5.075   5.983  14.129  0.9741  1.9056  1.3983
 1598TIP3   OH226284   4.958   3.292   6.019 -0.9498  0.1364 -0.0376
 1598TIP3    H126285   5.007   3.220   6.060 -0.6301  0.4834  0.1952
 1598TIP3    H226286   4.902   3.325   6.089 -1.2167  0.0072 -0.1909
 1599TIP3   OH226287   4.846   3.426   3.658  0.5751  0.0553  0.0599
 1599TIP3    H126288   4.928   3.471   3.679 -0.9910  2.2943  1.8375
 1599TIP3    H226289   4.812   3.471   3.582  0.3456  0.0384  0.1503
 1600TIP3   OH226290   5.113   0.087  11.861  0.6269 -0.5829 -0.7629
 1600TIP3    H126291   5.171   0.011  11.868  2.1027  0.5584  0.0789
 1600TIP3    H226292   5.099   0.114  11.952 -0.7957 -0.4812 -0.9899
 1601TIP3   OH226293   5.112   4.537   1.806 -0.0356 -0.6058 -0.6270
 1601TIP3    H126294   5.080   4.519   1.895  0.2792 -0.5823 -0.5086
 1601TIP3    H226295   5.069   4.620   1.783  1.4850  0.5115  0.3283
 1602TIP3   OH226296   1.703   1.433  12.492  0.1086  0.4311 -0.4652
 1602TIP3    H126297   1.726   1.438  12.399 -1.0348 -1.3874 -0.9023
 1602TIP3    H226298   1.607   1.429  12.492  0.0893  0.5997  0.8222
 1603TIP3   OH226299   6.165   0.957   0.812 -0.4261 -0.9102  0.1705
 1603TIP3    H126300   6.165   1.042   0.767 -1.2022 -2.0428 -2.1725
 1603TIP3    H226301   6.257   0.940   0.832  0.2635 -1.0727 -2.6626
 1604TIP3   OH226302   2.537   3.175  15.609 -0.1067  0.0970 -0.3182
 1604TIP3    H126303   2.533   3.258  15.562 -0.2516 -0.2761 -0.9754
 1604TIP3    H226304   2.622   3.177  15.653 -0.1950  0.6782 -0.1699
 1605TIP3   OH226305   2.016   1.814  15.478  0.3588  0.0294 -0.4256
 1605TIP3    H126306   2.099   1.845  15.514  0.7620  0.1790 -1.4350
 1605TIP3    H226307   2.040   1.778  15.393 -0.8352  1.6200 -1.4990
 1606TIP3   OH226308   5.043   5.729  11.789  0.7220  0.8337  0.1087
 1606TIP3    H126309   4.997   5.751  11.870 -0.1475 -2.1828  0.5919
 1606TIP3    H226310   5.076   5.640  11.804  1.0410  0.3950 -2.6124
 1607TIP3   OH226311   0.269   4.185  12.565 -0.0374 -0.0080 -0.5056
 1607TIP3    H126312   0.317   4.266  12.580 -1.0199  0.5375 -0.2308
 1607TIP3    H226313   0.181   4.214  12.538 -0.8552 -0.9515  0.9925
 1608TIP3   OH226314   2.170   5.041   2.222  0.2855  0.4415  0.8736
 1608TIP3    H126315   2.106   4.997   2.278  0.7767 -2.0640 -0.4241
 1608TIP3    H226316   2.246   5.054   2.278 -0.2161  0.5351  1.5478
 1609TIP3   OH226317   1.437   0.942  16.479  0.5910 -0.2289 -0.1855
 1609TIP3    H126318   1.431   0.984  16.565  1.1070  1.3805 -0.8887
 1609TIP3    H226319   1.529   0.951  16.454  0.7713 -2.0057 -0.2973
 1610TIP3   OH226320   5.017   1.788   4.478  0.2697 -0.1093 -0.2106
 1610TIP3    H126321   5.078   1.860   4.469  0.1899  0.0053  0.1537
 1610TIP3    H226322   4.953   1.818   4.543  1.1958 -1.1500  1.2441
 1611TIP3   OH226323   4.998   3.170  13.978  0.9323 -0.4897 -0.2318
 1611TIP3    H126324   4.939   3.244  13.994  2.0424  0.2620  0.6273
 1611TIP3    H226325   4.972   3.135  13.893 -0.9263 -0.3840  0.2532
 1612TIP3   OH226326   2.721   6.798  14.440  0.6653 -0.2299 -0.2348
 1612TIP3    H126327   2.703   6.834  14.354  0.9535 -0.2766 -0.3183
 1612TIP3    H226328   2.699   6.706  14.433 -0.8480  0.0797  0.2167
 1613TIP3   OH226329   5.903   6.369   2.028  0.0590  0.0139 -0.5591
 1613TIP3    H126330   5.914   6.426   2.104  3.1037  0.1298 -0.9663
 1613TIP3    H226331   5.897   6.281   2.064 -0.7874  0.2477 -0.1110
 1614TIP3   OH226332   4.074   2.116  12.989 -0.1020 -0.2411  0.0365
 1614TIP3    H126333   4.065   2.141  13.081 -1.2870 -0.0034 -0.1309
 1614TIP3    H226334   4.002   2.056  12.973  0.0086 -0.1679 -0.7701
 1615TIP3   OH226335   1.558   6.377   0.514  0.6959  0.0510 -0.3801
 1615TIP3    H126336   1.484   6.436   0.526  0.4035 -0.2753 -0.5572
 1615TIP3    H226337   1.618   6.398   0.585  0.8182  0.8970 -0.7224
 1616TIP3   OH226338   3.604   3.088  11.509 -0.2172 -0.0954  0.3880
 1616TIP3    H126339   3.680   3.041  11.541  0.5890 -0.0007 -1.2811
 1616TIP3    H226340   3.629   3.119  11.422 -1.6597  1.1601  0.3680
 1617TIP3   OH226341   5.562   4.975  11.754 -0.3663  0.1142 -0.1248
 1617TIP3    H126342   5.594   5.065  11.748 -0.2429  0.1901  1.4849
 1617TIP3    H226343   5.641   4.921  11.751 -0.4649  0.0015 -1.5480
 1618TIP3   OH226344   5.388   5.299   3.328 -0.2175  0.3847  0.3293
 1618TIP3    H126345   5.394   5.204   3.327  0.2866  0.4033  0.9045
 1618TIP3    H226346   5.369   5.323   3.238  0.3495 -0.2224  0.0405
 1619TIP3   OH226347   4.359   2.606   1.230  0.3410  0.7793  0.0866
 1619TIP3    H126348   4.336   2.555   1.153  1.2417 -0.7638  0.7887
 1619TIP3    H226349   4.343   2.697   1.205  1.1976  0.3686 -2.1235
 1620TIP3   OH226350   1.579   0.040  12.984 -0.5679 -0.6573  0.3841
 1620TIP3    H126351   1.508  -0.011  13.024 -0.3885 -0.1221  1.4402
 1620TIP3    H226352   1.650  -0.023  12.972 -0.4602 -0.7492  1.3841
 1621TIP3   OH226353   4.526   5.636   0.205 -0.3900 -0.3985  0.4347
 1621TIP3    H126354   4.485   5.558   0.165  1.5175 -1.9113  1.2593
 1621TIP3    H226355   4.498   5.634   0.296  0.0618 -0.4184  0.5753
 1622TIP3   OH226356   0.470   3.262  15.396  0.1729  0.5543 -0.2931
 1622TIP3    H126357   0.375   3.268  15.408  0.0347  0.0892 -1.0714
 1622TIP3    H226358   0.485   3.299  15.309  0.5402 -0.5616 -0.7198
 1623TIP3   OH226359   3.394   0.852  13.503 -0.0186 -0.0098 -0.8750
 1623TIP3    H126360   3.369   0.928  13.451  0.7257  1.5691  0.9576
 1623TIP3    H226361   3.334   0.783  13.475 -1.5140  1.5696 -1.7538
 1624TIP3   OH226362   6.498   5.171  15.085 -0.6150 -0.2448  0.4848
 1624TIP3    H126363   6.479   5.109  15.014  0.8320 -0.5951  0.3601
 1624TIP3    H226364   6.579   5.214  15.056 -1.1950  1.1629  0.9316
 1625TIP3   OH226365   6.016   3.521  16.159  0.1150 -0.0488 -0.3995
 1625TIP3    H126366   5.928   3.493  16.186 -0.0843  1.1732  0.2707
 1625TIP3    H226367   6.066   3.525  16.241  0.7619 -0.5921 -0.7612
 1626TIP3   OH226368   2.844   5.519   2.427  0.1585 -0.5459  0.4138
 1626TIP3    H126369   2.857   5.607   2.463  2.1834 -0.4447 -0.4389
 1626TIP3    H226370   2.931   5.492   2.398 -0.7242 -2.1642 -0.8652
 1627TIP3   OH226371   1.780   2.462  15.123 -0.2347 -0.0488  0.3400
 1627TIP3    H126372   1.816   2.447  15.210  1.1612 -0.6134 -0.3123
 1627TIP3    H226373   1.690   2.489  15.139  0.1113  0.2332  1.9731
 1628TIP3   OH226374   0.077   6.382  12.478  0.5251 -0.2572 -0.1212
 1628TIP3    H126375   0.135   6.344  12.544  0.3378 -1.0441 -0.3989
 1628TIP3    H226376   0.015   6.435  12.529  0.6015 -0.5659  0.3023
 1629TIP3   OH226377   4.207   0.215   6.400  0.2141 -0.1777  0.2576
 1629TIP3    H126378   4.168   0.139   6.444 -0.9077  1.3418  2.0099
 1629TIP3    H226379   4.142   0.240   6.334  0.0959 -0.0868  0.4093
 1630TIP3   OH226380   3.943   2.507  13.131  0.1683  0.0922  0.0238
 1630TIP3    H126381   4.021   2.509  13.076  1.8115 -0.7456  2.1898
 1630TIP3    H226382   3.951   2.426  13.182 -2.8573 -0.7468 -0.6228
 1631TIP3   OH226383   6.532   2.133   0.901 -0.8768 -0.1048  0.2912
 1631TIP3    H126384   6.512   2.170   0.815  1.5967  0.4011 -0.1427
 1631TIP3    H226385   6.565   2.207   0.952 -0.1046 -0.8480  0.8994
 1632TIP3   OH226386   3.618   6.332  12.232 -0.0747 -0.1039  0.4521
 1632TIP3    H126387   3.621   6.427  12.242  1.4314 -0.0264 -0.3632
 1632TIP3    H226388   3.526   6.310  12.240 -0.4145  1.3899  0.9886
 1633TIP3   OH226389   6.372   5.575   4.949  0.4615 -0.3791  0.4383
 1633TIP3    H126390   6.291   5.526   4.935  0.2131  0.0576  0.3305
 1633TIP3    H226391   6.344   5.658   4.986  0.7788  0.1140 -0.3920
 1634TIP3   OH226392   1.401   5.695  15.209  0.4662 -0.0648  0.2752
 1634TIP3    H126393   1.359   5.752  15.274  1.1192 -0.3976  0.9895
 1634TIP3    H226394   1.342   5.699  15.134  0.5298  1.6413  0.2647
 1635TIP3   OH226395   1.402   0.695   3.110  0.2757 -0.1115 -0.3400
 1635TIP3    H126396   1.482   0.719   3.064  0.1068 -1.2304 -1.2473
 1635TIP3    H226397   1.332   0.740   3.062  0.1844 -0.6024 -0.6725
 1636TIP3   OH226398   2.249   1.743   4.892 -0.0170  0.0596 -0.0315
 1636TIP3    H126399   2.199   1.690   4.954  1.8251  0.1863  1.6473
 1636TIP3    H226400   2.340   1.723   4.910  0.6218  0.5062 -2.4055
 1637TIP3   OH226401   5.849   3.568   5.001  0.7165 -0.6115 -0.3463
 1637TIP3    H126402   5.828   3.610   5.084 -1.7275  1.0028 -1.6630
 1637TIP3    H226403   5.835   3.474   5.018 -0.2963 -0.2632  0.9480
 1638TIP3   OH226404   6.713   6.188   0.650  0.5732 -0.0676  0.0283
 1638TIP3    H126405   6.749   6.207   0.737  0.5883 -0.5586  0.1316
 1638TIP3    H226406   6.631   6.143   0.668  0.1177  0.6498 -0.2106
 1639TIP3   OH226407   0.391   1.584   2.069 -0.2213 -0.4379  0.5273
 1639TIP3    H126408   0.414   1.649   2.003  1.9864 -0.3312  1.3329
 1639TIP3    H226409   0.296   1.571   2.058 -0.1077  0.3557 -1.9042
 1640TIP3   OH226410   1.107   1.235   0.667 -0.3576  1.0253 -0.4046
 1640TIP3    H126411   1.089   1.328   0.681 -1.3543  1.0416 -1.6048
 1640TIP3    H226412   1.199   1.225   0.691  0.0959  2.5650 -1.3353
 1641TIP3   OH226413   2.692   4.269  11.805  0.2466 -0.0872  0.0573
 1641TIP3    H126414   2.765   4.226  11.849 -0.7785 -2.0239 -0.0462
 1641TIP3    H226415   2.730   4.306  11.725  1.2328 -0.5137  0.3220
 1642TIP3   OH226416   4.423   6.317   3.950 -0.3145 -0.1093  0.1498
 1642TIP3    H126417   4.362   6.360   3.890  2.2138  0.7599 -2.0029
 1642TIP3    H226418   4.487   6.275   3.893  3.0052  1.8237  2.1209
 1643TIP3   OH226419   2.078   0.228  13.304 -0.0038 -0.5540 -0.2360
 1643TIP3    H126420   1.997   0.257  13.346  1.2940  1.0364  1.3125
 1643TIP3    H226421   2.070   0.257  13.213 -0.9182  0.0901  0.0327
 1644TIP3   OH226422   0.179   3.593  14.615  0.0793  0.5225 -0.4994
 1644TIP3    H126423   0.195   3.533  14.687  4.2998  0.1945 -1.4583
 1644TIP3    H226424   0.158   3.676  14.658 -0.0772 -0.2393  0.9829
 1645TIP3   OH226425   2.498   2.772  14.769  0.3481 -0.0220 -0.2595
 1645TIP3    H126426   2.554   2.761  14.846  0.1857 -1.3510 -0.3098
 1645TIP3    H226427   2.421   2.818  14.802  0.4947 -0.1526  0.2770
 1646TIP3   OH226428   6.027   5.415   2.843 -0.6902  0.2971  0.7620
 1646TIP3    H126429   6.037   5.332   2.890  0.5018 -0.0214  0.0092
 1646TIP3    H226430   6.088   5.475   2.886  1.8882 -0.5342 -1.4460
 1647TIP3   OH226431   5.415   1.897  11.659 -0.2834  0.7757  0.4475
 1647TIP3    H126432   5.444   1.987  11.643 -0.3754  0.2211 -3.8712
 1647TIP3    H226433   5.326   1.894  11.626  0.0687 -1.1086 -0.4358
 1648TIP3   OH226434   3.221   0.593  12.681 -0.1926  0.2197  0.2048
 1648TIP3    H126435   3.182   0.631  12.603  1.3096  0.5813 -0.4032
 1648TIP3    H226436   3.237   0.501  12.658 -0.8490  0.0162  0.5298
 1649TIP3   OH226437   6.506   5.261   0.404  0.0372 -0.0388  0.3412
 1649TIP3    H126438   6.548   5.270   0.490  0.2935  1.1752  0.1007
 1649TIP3    H226439   6.479   5.169   0.401  1.0095 -0.3831  1.2701
 1650TIP3   OH226440   0.210   4.556   4.293 -0.0884 -0.5782  0.4951
 1650TIP3    H126441   0.130   4.542   4.343 -1.1821  0.4033 -0.8880
 1650TIP3    H226442   0.281   4.531   4.352 -1.4093 -1.4936  1.7435
 1651TIP3   OH226443   3.732   5.509   2.208 -0.2700 -0.1320  0.4487
 1651TIP3    H126444   3.665   5.488   2.273 -0.9271 -3.4925 -1.0542
 1651TIP3    H226445   3.798   5.440   2.219  1.7815  1.7086  0.2965
 1652TIP3   OH226446   1.927   6.347   3.080 -0.0222 -0.3628 -0.0587
 1652TIP3    H126447   1.863   6.290   3.122  1.0392 -0.5051  1.4670
 1652TIP3    H226448   1.980   6.288   3.026  0.5776 -0.7313  0.9031
 1653TIP3   OH226449   3.448   1.026  16.681  0.5258  0.3511  0.1053
 1653TIP3    H126450   3.408   1.085  16.744  0.9251  1.6896 -0.8430
 1653TIP3    H226451   3.389   1.027  16.606  0.7637 -0.1040 -0.0963
 1654TIP3   OH226452   1.468   3.552   5.111  0.1408  0.0479 -0.0719
 1654TIP3    H126453   1.388   3.510   5.080  0.1390 -0.5287  0.6898
 1654TIP3    H226454   1.469   3.537   5.206  1.5906 -0.7547 -0.1772
 1655TIP3   OH226455   6.156   6.502  15.839  0.6263  0.0494  0.6135
 1655TIP3    H126456   6.083   6.563  15.830  1.4575  1.1736  1.2626
 1655TIP3    H226457   6.211   6.519  15.762 -0.9602 -2.5430 -1.2755
 1656TIP3   OH226458   5.327   3.141  13.706  0.1045 -0.0461 -0.0781
 1656TIP3    H126459   5.254   3.082  13.724 -0.4523  0.7219  0.2126
 1656TIP3    H226460   5.398   3.083  13.675 -0.7189 -0.7568 -0.6767
 1657TIP3   OH226461   0.953   1.970  15.689 -0.8998 -0.0167  0.7303
 1657TIP3    H126462   0.946   1.970  15.784 -1.1455 -0.5747  0.7162
 1657TIP3    H226463   0.881   1.914  15.659  0.1560 -1.2015  0.3000
 1658TIP3   OH226464   3.468   4.556  15.376 -0.4389 -0.0170 -0.0838
 1658TIP3    H126465   3.510   4.470  15.377  1.5182  0.9040  0.4815
 1658TIP3    H226466   3.501   4.600  15.454 -2.6786  0.7070  0.5526
 1659TIP3   OH226467   1.477   2.015  10.723 -0.3962  0.0449  0.0211
 1659TIP3    H126468   1.484   2.110  10.729  0.7299 -0.0333  0.1061
 1659TIP3    H226469   1.383   1.998  10.717 -0.6242  1.1373  0.3574
 1660TIP3   OH226470   4.134   2.817   4.713 -0.9921 -0.3405  0.7118
 1660TIP3    H126471   4.212   2.773   4.744 -1.5446 -2.0025 -0.1511
 1660TIP3    H226472   4.073   2.813   4.787 -0.6202  0.0771  1.0463
 1661TIP3   OH226473   3.627   0.214   3.956 -0.1581  0.3617  0.4731
 1661TIP3    H126474   3.584   0.277   4.014 -0.6686  0.0088  0.4857
 1661TIP3    H226475   3.676   0.157   4.014 -0.8966 -0.1659  0.5873
 1662TIP3   OH226476   6.251   5.979  13.456 -0.1369 -0.0921 -0.3776
 1662TIP3    H126477   6.277   5.893  13.424  0.2088  1.0447 -3.5245
 1662TIP3    H226478   6.318   6.038  13.422 -0.0966  1.4272  2.1128
 1663TIP3   OH226479   2.468   2.103  16.930  0.1113 -0.0741  0.2153
 1663TIP3    H126480   2.500   2.076  17.016 -0.8430 -3.4811 -0.3356
 1663TIP3    H226481   2.393   2.046  16.914 -0.0185  0.7559 -2.6776
 1664TIP3   OH226482   0.614   2.966   2.863 -0.0814  0.4251 -0.2600
 1664TIP3    H126483   0.629   3.014   2.782  1.4211  0.5440  0.0580
 1664TIP3    H226484   0.537   3.009   2.902  1.0581  2.4715 -0.1074
 1665TIP3   OH226485   0.622   1.655  14.137  0.5799 -0.4055 -0.0056
 1665TIP3    H126486   0.568   1.586  14.099 -0.0072 -0.6671  1.2376
 1665TIP3    H226487   0.711   1.630  14.114  0.6140 -2.8800  2.2332
 1666TIP3   OH226488   3.918   0.925  13.480  0.0456 -0.0208 -0.7269
 1666TIP3    H126489   3.858   0.856  13.453  0.3583  0.2024 -2.0164
 1666TIP3    H226490   3.995   0.914  13.424  1.3347 -0.4224  1.0211
 1667TIP3   OH226491   2.166   4.387  14.417  0.0236 -0.2698 -0.6945
 1667TIP3    H126492   2.207   4.431  14.342 -0.2214 -0.8100 -1.1543
 1667TIP3    H226493   2.181   4.446  14.491  0.7795  0.0001 -1.0506
 1668TIP3   OH226494   6.512   6.297  13.874  0.1586 -0.1464  0.3373
 1668TIP3    H126495   6.564   6.253  13.807 -0.4400  1.4751 -1.2834
 1668TIP3    H226496   6.576   6.342  13.929  0.6255 -0.8776  0.4012
 1669TIP3   OH226497   1.332   1.456  15.677 -0.7920  0.2417  0.4506
 1669TIP3    H126498   1.374   1.414  15.752  0.7265  0.7671 -0.0754
 1669TIP3    H226499   1.402   1.468  15.613 -2.2435 -1.1761 -1.5260
 1670TIP3   OH226500   3.851   0.144  16.584 -0.3877 -0.5063  0.1380
 1670TIP3    H126501   3.773   0.120  16.633 -1.2049 -0.0345 -0.9105
 1670TIP3    H226502   3.827   0.131  16.492 -0.5252  3.1274 -0.4757
 1671TIP3   OH226503   4.808   4.044   5.478 -0.3842  0.3531 -0.3117
 1671TIP3    H126504   4.879   4.108   5.474 -2.3696  2.7029 -0.5665
 1671TIP3    H226505   4.837   3.980   5.543  1.6814  1.5238  0.0119
 1672TIP3   OH226506   6.544   6.813  16.393  0.2673  0.1229  0.6089
 1672TIP3    H126507   6.457   6.782  16.418  0.6400 -0.7896  0.8179
 1672TIP3    H226508   6.572   6.868  16.466 -0.0518  0.2633  0.6271
 1673TIP3   OH226509   4.858   2.516   3.265 -0.4082 -0.0647 -0.4571
 1673TIP3    H126510   4.814   2.447   3.215 -1.4118  0.8802 -0.9248
 1673TIP3    H226511   4.828   2.503   3.355 -0.8799 -0.0328 -0.6049
 1674TIP3   OH226512   1.452   6.607   3.758  0.2718  0.8101 -0.0463
 1674TIP3    H126513   1.410   6.647   3.834  0.7190 -0.2012  0.7509
 1674TIP3    H226514   1.432   6.514   3.766 -1.6820  0.9096 -2.4591
 1675TIP3   OH226515   0.693   2.150  15.052 -0.6806  0.0205 -0.4999
 1675TIP3    H126516   0.713   2.098  14.974 -0.7963  1.0110 -1.2074
 1675TIP3    H226517   0.598   2.150  15.057 -0.7333  1.2270 -1.2570
 1676TIP3   OH226518   6.344   5.627  12.271 -0.3920 -0.3414 -0.3588
 1676TIP3    H126519   6.282   5.587  12.211  0.1686 -0.7366 -0.6841
 1676TIP3    H226520   6.320   5.592  12.357 -0.4914 -0.6442 -0.5104
 1677TIP3   OH226521   4.637   6.598  14.945 -0.3288  0.0869  0.4451
 1677TIP3    H126522   4.643   6.539  15.020  3.0065  0.9980  1.0675
 1677TIP3    H226523   4.626   6.684  14.984  0.1299  0.4263 -0.1680
 1678TIP3   OH226524   4.301   6.095  13.487  0.3967 -0.0599 -0.0161
 1678TIP3    H126525   4.375   6.152  13.469 -0.6130  2.4560  2.8562
 1678TIP3    H226526   4.230   6.130  13.434 -0.1770  1.4113  1.6175
 1679TIP3   OH226527   3.585   0.056  16.089  0.5556 -0.4567 -0.1479
 1679TIP3    H126528   3.670   0.045  16.046  0.5819  2.6123 -1.0697
 1679TIP3    H226529   3.576   0.150  16.102 -3.2947 -0.4890 -1.3101
 1680TIP3   OH226530   5.702   1.173  13.894 -1.0654  0.1997  0.2529
 1680TIP3    H126531   5.625   1.185  13.838 -0.9043 -1.7839 -0.4693
 1680TIP3    H226532   5.766   1.236  13.860 -2.3893  2.0488  1.0179
 1681TIP3   OH226533   6.791   3.913   5.508 -0.2525  0.1056 -0.2791
 1681TIP3    H126534   6.855   3.893   5.440 -0.4241  1.9595 -1.0324
 1681TIP3    H226535   6.707   3.890   5.468 -0.2279 -0.4213 -0.0381
 1682TIP3   OH226536   0.276   0.598  16.085 -0.4634  0.5104 -0.2197
 1682TIP3    H126537   0.259   0.690  16.065 -0.4460  0.6740  0.4805
 1682TIP3    H226538   0.189   0.560  16.099 -0.4226  0.7430  0.8013
 1683TIP3   OH226539   4.368   6.167   2.779 -0.1519  0.7245 -0.5795
 1683TIP3    H126540   4.310   6.110   2.830  2.3044  0.1464  1.7990
 1683TIP3    H226541   4.352   6.254   2.814 -1.4295  1.0069 -1.7994
 1684TIP3   OH226542   5.528   4.197  13.720 -0.4879  0.2867  0.0627
 1684TIP3    H126543   5.466   4.125  13.718 -0.3389  0.1559  0.1712
 1684TIP3    H226544   5.485   4.267  13.670 -0.1313 -0.2886 -1.1029
 1685TIP3   OH226545   6.789   3.625   0.490 -0.0754  0.0039  0.1519
 1685TIP3    H126546   6.814   3.664   0.407  2.0857 -0.9334  0.3094
 1685TIP3    H226547   6.714   3.569   0.468 -0.6082  1.0607 -0.8110
 1686TIP3   OH226548   1.842   0.678  12.132 -0.0370  0.4937  0.1175
 1686TIP3    H126549   1.852   0.773  12.135 -1.6125  0.7055 -0.2756
 1686TIP3    H226550   1.872   0.654  12.045 -1.7326  0.9617 -0.6412
 1687TIP3   OH226551   6.162   1.565   3.711 -0.0293  0.0760 -0.6016
 1687TIP3    H126552   6.145   1.565   3.805 -2.4054 -1.7608 -0.9698
 1687TIP3    H226553   6.140   1.477   3.682  0.9103  0.5219 -2.8794
 1688TIP3   OH226554   2.218   4.556   6.004 -0.3420 -0.4858 -0.6905
 1688TIP3    H126555   2.277   4.481   5.995 -0.9264 -0.8726 -1.5499
 1688TIP3    H226556   2.152   4.527   6.067 -1.0592 -1.0541 -1.6644
 1689TIP3   OH226557   2.822   2.588  17.093  0.6328  0.0374  1.1460
 1689TIP3    H126558   2.743   2.613  17.141  1.1387 -0.8141  2.4572
 1689TIP3    H226559   2.814   2.493  17.081  1.2012  0.0276  0.8145
 1690TIP3   OH226560   5.180   2.060   6.213  0.2105 -0.2036 -0.2629
 1690TIP3    H126561   5.240   2.107   6.271 -1.4027  1.1704  0.3682
 1690TIP3    H226562   5.145   1.988   6.267 -1.1277  0.9467  0.4606
 1691TIP3   OH226563   6.463   6.360  16.637  0.2563  0.3252 -0.5039
 1691TIP3    H126564   6.522   6.297  16.596  0.8670  1.2195 -1.0317
 1691TIP3    H226565   6.513   6.441  16.641 -0.9192  1.1014 -0.9388
 1692TIP3   OH226566   1.019   3.733  10.360  0.4304 -0.0890  0.2989
 1692TIP3    H126567   0.958   3.796  10.397 -0.3439 -0.8796  0.4179
 1692TIP3    H226568   1.062   3.779  10.289  0.1753  0.6928  0.6416
 1693TIP3   OH226569   2.790   2.195   3.648 -0.1343  0.3422  0.0081
 1693TIP3    H126570   2.720   2.182   3.712 -1.5661  1.2099 -1.3174
 1693TIP3    H226571   2.808   2.289   3.649  0.1643  0.2981 -0.5127
 1694TIP3   OH226572   3.810   3.525  12.082 -0.6339  0.3388 -0.5959
 1694TIP3    H126573   3.796   3.609  12.038  0.1564 -1.0527 -3.8245
 1694TIP3    H226574   3.903   3.505  12.066 -0.7272 -1.0062  0.3646
 1695TIP3   OH226575   0.899   0.515   3.526  0.8813 -0.8664  0.0366
 1695TIP3    H126576   0.944   0.473   3.452  0.6750 -0.0437 -0.5760
 1695TIP3    H226577   0.964   0.519   3.595  1.0914 -1.6235 -0.1078
 1696TIP3   OH226578   0.726   6.546  13.937 -0.1966  0.0945 -0.0937
 1696TIP3    H126579   0.641   6.518  13.903  0.3249 -0.7529 -0.7563
 1696TIP3    H226580   0.711   6.564  14.030 -0.5808 -2.4641  0.3979
 1697TIP3   OH226581   1.209   6.625   4.289  0.5385 -0.7306 -0.1413
 1697TIP3    H126582   1.204   6.719   4.302 -1.2164 -0.7064 -0.7051
 1697TIP3    H226583   1.119   6.594   4.300  1.1257 -2.3986  0.4005
 1698TIP3   OH226584   4.352   6.074  15.143  0.4731  0.8475  0.4274
 1698TIP3    H126585   4.390   5.989  15.164 -0.9907 -0.1578 -0.7887
 1698TIP3    H226586   4.283   6.055  15.079 -1.1287  2.7261  1.4749
 1699TIP3   OH226587   5.750   0.843  12.345  0.6602  0.0194 -0.3420
 1699TIP3    H126588   5.722   0.763  12.389 -1.5232  0.5485 -0.6591
 1699TIP3    H226589   5.829   0.871  12.392 -0.0349 -0.9081  1.4367
 1700TIP3   OH226590   2.518   4.132  14.717 -0.1770 -0.2477 -0.2960
 1700TIP3    H126591   2.583   4.200  14.734 -1.7453  1.6872 -1.4458
 1700TIP3    H226592   2.434   4.178  14.724 -1.3553 -2.2475 -0.5172
 1701TIP3   OH226593   4.241   4.219   4.468  0.8276  0.5461 -0.4547
 1701TIP3    H126594   4.219   4.311   4.485 -1.0598  0.6167 -2.7562
 1701TIP3    H226595   4.336   4.218   4.467  0.9036  2.5267 -0.5323
 1702TIP3   OH226596   0.854   4.331  12.821  0.0878 -0.4717 -0.3793
 1702TIP3    H126597   0.798   4.275  12.767 -1.0557  0.1722  0.0987
 1702TIP3    H226598   0.935   4.282  12.831 -0.2253 -1.2494 -1.4512
 1703TIP3   OH226599   3.966   0.979   5.351  0.8771  0.0924 -0.3667
 1703TIP3    H126600   3.940   1.068   5.330  0.3069 -0.3953 -1.8936
 1703TIP3    H226601   3.917   0.958   5.431 -0.5851  0.4591 -1.1335
 1704TIP3   OH226602   2.983   6.144  11.365  0.4983 -0.5579  0.0441
 1704TIP3    H126603   3.019   6.195  11.293  0.8501 -0.7633  0.0713
 1704TIP3    H226604   2.968   6.057  11.329 -1.8792  0.0221 -0.5327
 1705TIP3   OH226605   5.519   5.122   0.266 -0.3122 -0.3799  0.1232
 1705TIP3    H126606   5.449   5.184   0.287 -0.2782  0.3703 -1.7896
 1705TIP3    H226607   5.507   5.051   0.329 -2.9809 -0.4302 -0.3142
 1706TIP3   OH226608   1.812   1.955   5.066 -0.5329 -0.1010  0.1548
 1706TIP3    H126609   1.763   2.012   5.126  2.1266 -1.0286  3.5451
 1706TIP3    H226610   1.904   1.976   5.083  0.4282 -1.4170 -2.7650
 1707TIP3   OH226611   4.229   4.422  13.987  0.3638 -0.0518  0.0958
 1707TIP3    H126612   4.139   4.402  13.963  0.5250 -0.3305 -0.2862
 1707TIP3    H226613   4.282   4.366  13.931  0.7852  0.3599  0.0737
 1708TIP3   OH226614   3.365   5.090  13.907  0.1496 -0.8517 -0.1126
 1708TIP3    H126615   3.293   5.142  13.943  0.9308  0.0923  0.1355
 1708TIP3    H226616   3.326   5.006  13.884 -0.8245 -0.6919  0.9177
 1709TIP3   OH226617   2.832   2.255   2.377 -0.1412 -0.2215 -0.4644
 1709TIP3    H126618   2.760   2.224   2.431 -0.4332  1.1242 -0.0334
 1709TIP3    H226619   2.910   2.244   2.432  0.0318 -1.7501 -0.9606
 1710TIP3   OH226620   4.692   4.200   2.245  0.1248  0.4556 -0.4491
 1710TIP3    H126621   4.769   4.224   2.296  1.6663  0.8401 -2.7865
 1710TIP3    H226622   4.697   4.255   2.167 -1.6131 -0.7036 -1.4462
 1711TIP3   OH226623   5.544   1.072   3.344 -0.4092  0.6692  0.6605
 1711TIP3    H126624   5.632   1.075   3.383  0.3238  0.5684 -0.8804
 1711TIP3    H226625   5.484   1.071   3.418  0.9646 -2.1787  1.9005
 1712TIP3   OH226626   6.244   3.083   4.822 -0.8804  0.2099  0.2876
 1712TIP3    H126627   6.279   3.058   4.908 -0.1650  2.4527  0.7115
 1712TIP3    H226628   6.278   3.016   4.762  2.5162  1.1010  1.0175
 1713TIP3   OH226629   3.471   1.461  11.609  0.6558  0.0276 -0.9027
 1713TIP3    H126630   3.406   1.452  11.539 -0.1947 -2.2582  0.0948
 1713TIP3    H226631   3.487   1.372  11.639  3.2137  0.6505 -0.1076
 1714TIP3   OH226632   4.965   0.340   0.002  0.3124  0.3948  0.2972
 1714TIP3    H126633   4.982   0.426  -0.036  0.3392  0.8010  1.1942
 1714TIP3    H226634   4.897   0.302  -0.053  1.4009  0.3313 -1.0415
 1715TIP3   OH226635   2.899   5.356  17.079  0.3741 -0.0046  0.2421
 1715TIP3    H126636   2.971   5.364  17.142  0.3711 -1.4964  0.4570
 1715TIP3    H226637   2.927   5.288  17.019  0.2034  1.1311 -1.1761
 1716TIP3   OH226638   6.565   5.744  13.914  0.1692 -0.1492  0.2385
 1716TIP3    H126639   6.573   5.668  13.972 -0.2760  0.4001  1.0276
 1716TIP3    H226640   6.607   5.816  13.961 -0.8342  0.4733  0.2090
 1717TIP3   OH226641   2.163   1.622   2.091  0.3302  0.4458 -0.5682
 1717TIP3    H126642   2.237   1.565   2.072  0.3003  1.2008 -3.5045
 1717TIP3    H226643   2.203   1.702   2.126  0.5464 -0.4395  1.3156
 1718TIP3   OH226644   3.078   6.247  11.607  0.0702  0.9041 -0.1776
 1718TIP3    H126645   3.069   6.201  11.523  3.0698  3.4246 -2.0827
 1718TIP3    H226646   2.994   6.290  11.620 -0.5580  0.1996 -1.6994
 1719TIP3   OH226647   3.449   4.955   0.297 -0.2077 -0.0297 -0.3060
 1719TIP3    H126648   3.509   4.883   0.279 -0.6964 -0.2113 -1.2769
 1719TIP3    H226649   3.488   5.001   0.371 -0.0077 -1.4283  0.5034
 1720TIP3   OH226650   3.919   4.797   4.455  0.1099 -0.4636 -0.3809
 1720TIP3    H126651   3.845   4.736   4.460 -0.6830  0.5390  1.0465
 1720TIP3    H226652   3.889   4.867   4.397 -1.2410  1.3284  2.2735
 1721TIP3   OH226653   5.317   4.663  13.624 -0.1691  0.2368 -0.5117
 1721TIP3    H126654   5.368   4.582  13.628  0.0271  0.3847  2.7805
 1721TIP3    H226655   5.226   4.634  13.614 -0.0057 -0.3338 -0.3405
 1722TIP3   OH226656   1.522   3.427   3.497  0.3488 -0.1938 -0.2616
 1722TIP3    H126657   1.549   3.462   3.582  2.0662 -1.1895 -0.3479
 1722TIP3    H226658   1.455   3.362   3.518 -3.8392  3.6717 -0.1726
 1723TIP3   OH226659   5.531   6.396  17.191  1.0668 -0.8397  0.2614
 1723TIP3    H126660   5.492   6.340  17.124  1.6622 -1.8065  0.7019
 1723TIP3    H226661   5.531   6.342  17.270  0.9953  0.0468  0.8771
 1724TIP3   OH226662   2.965   1.288  13.342 -0.1096  0.0492  0.3776
 1724TIP3    H126663   3.046   1.256  13.382  0.7148  2.3097  0.6437
 1724TIP3    H226664   2.993   1.357  13.282 -1.8559  1.0309  0.6303
 1725TIP3   OH226665   0.946   4.251  11.477 -0.5256  0.2622  0.1471
 1725TIP3    H126666   0.970   4.344  11.481 -1.7035  0.7164 -1.8905
 1725TIP3    H226667   1.022   4.208  11.438  0.0235  0.3463  1.0963
 1726TIP3   OH226668   3.907   2.766   0.890 -0.3179 -0.3285  0.1698
 1726TIP3    H126669   3.899   2.682   0.936  0.1913 -0.2825  0.3471
 1726TIP3    H226670   3.960   2.745   0.812  1.9132  0.2797  1.4440
 1727TIP3   OH226671   5.527   5.468  13.812 -0.2497 -0.6651  0.4861
 1727TIP3    H126672   5.520   5.412  13.735  1.3451  0.1139 -0.2936
 1727TIP3    H226673   5.442   5.512  13.818 -1.3547 -2.7474  0.8414
 1728TIP3   OH226674   1.331   4.906   1.024 -0.1964  0.7945  0.4301
 1728TIP3    H126675   1.344   4.937   0.934 -1.2044 -1.7248 -0.6800
 1728TIP3    H226676   1.367   4.817   1.024  1.8998  1.5099  3.2192
 1729TIP3   OH226677   6.204   6.728   5.338  0.1255  0.0764  0.4371
 1729TIP3    H126678   6.163   6.806   5.374 -1.4008 -0.3424 -0.2879
 1729TIP3    H226679   6.164   6.655   5.386 -0.3156 -0.3675 -0.5755
 1730TIP3   OH226680   6.658   1.894  16.798 -0.1786 -0.2445 -0.1207
 1730TIP3    H126681   6.572   1.873  16.763 -0.3377 -0.9476  0.6452
 1730TIP3    H226682   6.641   1.929  16.885  0.1383  2.5689 -1.0924
 1731TIP3   OH226683   5.406   3.242  13.465 -0.2124 -0.6345 -0.1073
 1731TIP3    H126684   5.360   3.182  13.406 -1.0863 -1.0788  0.9981
 1731TIP3    H226685   5.370   3.224  13.551  1.1367 -0.0822  0.6019
 1732TIP3   OH226686   1.806   3.111   2.654 -0.1497  0.0677 -0.8413
 1732TIP3    H126687   1.728   3.104   2.600 -1.0280  0.4200  0.3436
 1732TIP3    H226688   1.873   3.064   2.605 -1.6404 -2.1383 -0.8909
 1733TIP3   OH226689   4.103   4.018  11.903 -0.1274  0.3469 -0.1978
 1733TIP3    H126690   4.071   4.041  11.816  1.2734  0.9429 -0.5861
 1733TIP3    H226691   4.138   4.100  11.938 -1.3462  0.2863  1.2545
 1734TIP3   OH226692   4.216   1.635   0.647 -0.0410  0.1591  0.0638
 1734TIP3    H126693   4.305   1.645   0.683  0.6768 -1.0898 -1.2870
 1734TIP3    H226694   4.229   1.593   0.562 -2.0298 -1.3765  0.4636
 1735TIP3   OH226695   6.018   3.843   4.024  0.2553 -0.2912 -0.0438
 1735TIP3    H126696   6.097   3.892   3.999  0.7456 -0.7149  0.6769
 1735TIP3    H226697   6.049   3.770   4.077 -0.6902  0.0324  1.0039
 1736TIP3   OH226698   4.211   4.573  12.636 -0.4444 -0.3022 -0.0013
 1736TIP3    H126699   4.210   4.572  12.541 -0.4203 -0.2278 -0.0029
 1736TIP3    H226700   4.280   4.636  12.658 -0.8841  0.1634  0.0626
 1737TIP3   OH226701   1.999   6.599  12.593 -0.3888 -0.8175 -0.3107
 1737TIP3    H126702   1.984   6.639  12.679 -0.9494 -2.8750  0.6108
 1737TIP3    H226703   1.917   6.554  12.573  0.0724 -1.1735 -1.4646
 1738TIP3   OH226704   3.040   0.445   1.154 -0.1135  0.2382  0.5229
 1738TIP3    H126705   3.053   0.515   1.090 -0.4069 -0.9451 -0.8797
 1738TIP3    H226706   2.955   0.409   1.133  0.9472 -1.9608 -0.2264
 1739TIP3   OH226707   0.653   0.297   6.193 -0.7007  0.1114  0.0691
 1739TIP3    H126708   0.725   0.335   6.242  0.1145 -1.7848  0.4381
 1739TIP3    H226709   0.622   0.225   6.248 -3.6981  1.5486  0.4758
 1740TIP3   OH226710   5.398   3.195   1.169 -0.1934 -0.5680 -0.1612
 1740TIP3    H126711   5.325   3.167   1.114 -1.4081  0.0544  1.0519
 1740TIP3    H226712   5.401   3.130   1.239 -0.0902 -0.1618  0.2128
 1741TIP3   OH226713   3.095   2.766  15.197 -0.1963 -0.1220  0.3877
 1741TIP3    H126714   3.106   2.850  15.240  0.2794  0.5721 -1.0492
 1741TIP3    H226715   3.172   2.715  15.222  0.5768  0.6292 -0.4242
 1742TIP3   OH226716   3.336   6.118  14.902  0.1842 -0.1873 -0.3236
 1742TIP3    H126717   3.281   6.192  14.878  0.5561  0.4311  0.6957
 1742TIP3    H226718   3.390   6.150  14.974  1.6754 -0.8681 -1.0996
 1743TIP3   OH226719   2.655   4.274   5.346  0.3723  0.2991  0.5107
 1743TIP3    H126720   2.679   4.264   5.439  1.2765 -0.9638  0.1677
 1743TIP3    H226721   2.563   4.300   5.349  0.5680  0.9691  1.7752
 1744TIP3   OH226722   0.403   2.575  12.796 -0.1986  0.3114 -0.2137
 1744TIP3    H126723   0.444   2.659  12.776  0.4653 -0.1297 -0.7380
 1744TIP3    H226724   0.425   2.559  12.888  0.8563  0.0694 -0.4916
 1745TIP3   OH226725   3.669   5.454  11.405  0.1927  0.2556  0.0661
 1745TIP3    H126726   3.638   5.443  11.315  1.5932  0.9096 -0.5131
 1745TIP3    H226727   3.596   5.421  11.459  0.0499 -1.9190 -1.3164
 1746TIP3   OH226728   6.089   5.744  10.745 -0.0688  0.0616 -0.5345
 1746TIP3    H126729   6.096   5.716  10.654 -2.2213  0.9947 -1.0555
 1746TIP3    H226730   6.007   5.793  10.749  1.2125  2.2711  1.3410
 1747TIP3   OH226731   0.922   1.252   5.650 -0.4587 -0.9051  0.6185
 1747TIP3    H126732   0.830   1.226   5.660 -0.9631  0.3761 -0.4449
 1747TIP3    H226733   0.924   1.344   5.677 -0.1061 -0.0422 -2.1231
 1748TIP3   OH226734   6.241   2.658  14.179 -0.2980 -0.3832  0.1359
 1748TIP3    H126735   6.165   2.631  14.230 -0.0983  0.9335  1.1797
 1748TIP3    H226736   6.314   2.656  14.241  0.1801  0.0820 -0.3934
 1749TIP3   OH226737   0.100   2.843   5.015 -0.0670  0.1116 -0.5392
 1749TIP3    H126738   0.064   2.809   4.934 -0.6813  0.9741 -0.6347
 1749TIP3    H226739   0.176   2.895   4.988 -0.1096  0.1730 -0.5423
 1750TIP3   OH226740   3.889   4.311  16.949  0.0540  0.0996  0.0700
 1750TIP3    H126741   3.909   4.369  16.875  2.1944 -1.1135 -0.3980
 1750TIP3    H226742   3.858   4.231  16.908  0.5799 -0.3355  0.5042
 1751TIP3   OH226743   4.512   0.741   0.397 -0.4788  0.0363 -0.1560
 1751TIP3    H126744   4.552   0.696   0.472 -1.5532 -1.0834 -0.2195
 1751TIP3    H226745   4.419   0.722   0.405 -0.4599 -1.4336 -2.6334
 1752TIP3   OH226746   2.821   1.786  16.547 -0.3786  0.4116 -0.0741
 1752TIP3    H126747   2.856   1.753  16.629 -0.8714 -0.6913 -0.3004
 1752TIP3    H226748   2.875   1.745  16.479 -0.6150  0.5354 -0.3414
 1753TIP3   OH226749   0.805   0.048   2.051  0.5329  0.2175 -0.5758
 1753TIP3    H126750   0.787   0.135   2.087  1.7847 -0.2622  1.3314
 1753TIP3    H226751   0.792  -0.012   2.124 -1.0100 -1.3301 -2.0412
 1754TIP3   OH226752   0.004   4.125  11.602  0.1147 -0.7803 -0.2709
 1754TIP3    H126753  -0.075   4.073  11.592 -1.0407  0.9296 -0.3782
 1754TIP3    H226754   0.027   4.150  11.513  0.6498 -1.0501 -0.2153
 1755TIP3   OH226755   1.000   4.208   0.431 -0.1969  0.3518  0.4138
 1755TIP3    H126756   0.968   4.135   0.378 -0.3304  0.0330  0.9198
 1755TIP3    H226757   1.039   4.269   0.368  0.7818 -0.5998  0.0649
 1756TIP3   OH226758   0.975   2.760  15.119 -0.3297 -0.6724 -0.2414
 1756TIP3    H126759   1.040   2.781  15.052  0.2148 -0.7883  0.2426
 1756TIP3    H226760   0.993   2.821  15.190 -1.3745 -0.0612 -0.4857
 1757TIP3   OH226761   1.093   3.810   5.497 -0.4547 -0.5310 -0.0063
 1757TIP3    H126762   1.169   3.757   5.520 -1.8712 -2.7833 -0.1815
 1757TIP3    H226763   1.096   3.818   5.402 -0.4429 -0.6432 -0.0149
 1758TIP3   OH226764   1.058   2.470  15.954 -0.1889 -0.1449 -0.3529
 1758TIP3    H126765   1.048   2.390  15.903 -2.0442  1.5509 -2.8769
 1758TIP3    H226766   1.150   2.494  15.945  0.4938 -2.1302  0.7877
 1759TIP3   OH226767   2.904   6.587   4.462  0.6225 -0.7758 -0.0414
 1759TIP3    H126768   2.982   6.542   4.428  0.2464 -1.7238  0.3166
 1759TIP3    H226769   2.940   6.665   4.506  1.2607 -0.5586 -0.9167
 1760TIP3   OH226770   3.731   6.178  16.279  0.3722 -0.7188  0.1252
 1760TIP3    H126771   3.649   6.153  16.236  0.4217 -1.5366  0.4964
 1760TIP3    H226772   3.797   6.173  16.209 -0.0230  0.9092 -0.4293
 1761TIP3   OH226773   4.958   2.329  11.950 -0.2170  0.2230  0.3721
 1761TIP3    H126774   4.913   2.389  12.010  0.7643  1.8600 -0.4592
 1761TIP3    H226775   5.035   2.301  11.999  0.4082  1.2964  0.0305
 1762TIP3   OH226776   5.072   5.674   2.386  0.8113  0.6123  1.4353
 1762TIP3    H126777   5.083   5.752   2.333  2.7242 -1.1836 -1.0756
 1762TIP3    H226778   5.149   5.673   2.443  1.0762  0.3238  1.0806
 1763TIP3   OH226779   0.320   1.654  15.015  0.3581  0.9634  0.4632
 1763TIP3    H126780   0.339   1.570  15.056 -1.2540  1.0465  1.4620
 1763TIP3    H226781   0.358   1.647  14.928  1.1178 -0.4206  0.8803
 1764TIP3   OH226782   1.718   0.404   3.686 -0.1449  0.4321 -0.2861
 1764TIP3    H126783   1.724   0.310   3.670  2.7344  0.3986  0.4427
 1764TIP3    H226784   1.714   0.444   3.599 -1.4163 -0.3114 -0.5980
 1765TIP3   OH226785   5.870   2.554  15.342 -0.5688 -0.1583  0.1388
 1765TIP3    H126786   5.954   2.594  15.319 -1.4003  1.8111  0.2952
 1765TIP3    H226787   5.880   2.526  15.433 -0.0264 -0.1362  0.0885
 1766TIP3   OH226788   3.812   5.223  16.535  0.5170 -0.3165 -0.0615
 1766TIP3    H126789   3.882   5.287  16.527  1.2087 -1.1132 -0.6388
 1766TIP3    H226790   3.731   5.274  16.531  1.0625  0.6674  1.1080
 1767TIP3   OH226791   4.511   4.484  16.689 -0.0483  1.1613 -0.0389
 1767TIP3    H126792   4.577   4.484  16.759  0.1616  0.3424 -0.2263
 1767TIP3    H226793   4.549   4.540  16.621  1.2080 -0.5384 -0.8139
 1768TIP3   OH226794   3.574   2.642   3.615  0.1685  0.0538 -0.0103
 1768TIP3    H126795   3.522   2.703   3.667 -0.6930 -1.7776  1.4044
 1768TIP3    H226796   3.568   2.559   3.663 -1.1133 -1.9401 -3.3048
 1769TIP3   OH226797   4.796   1.027   3.297 -0.0558 -0.0158  0.4947
 1769TIP3    H126798   4.736   0.986   3.235 -0.4093  0.5502  0.4551
 1769TIP3    H226799   4.856   0.957   3.322 -1.0486 -0.7333  0.9332
 1770TIP3   OH226800   0.764   3.440  12.936  0.4057 -0.1713 -0.1920
 1770TIP3    H126801   0.766   3.353  12.976  0.2065  0.3006  0.8844
 1770TIP3    H226802   0.792   3.425  12.845 -0.2569 -1.4555 -0.2194
 1771TIP3   OH226803   0.298   3.651  13.618 -0.0517  0.0959  0.4578
 1771TIP3    H126804   0.297   3.694  13.532  0.8906 -1.3529 -0.3225
 1771TIP3    H226805   0.238   3.577  13.609 -0.5643  0.3875  1.3280
 1772TIP3   OH226806   6.696   5.521   2.578  0.4087  0.4609  0.1121
 1772TIP3    H126807   6.657   5.597   2.621  0.8737  0.9452 -0.3167
 1772TIP3    H226808   6.787   5.520   2.608  0.4197  0.0957  0.0775
 1773TIP3   OH226809   4.573   5.756  11.813 -0.0463  0.1207  0.7667
 1773TIP3    H126810   4.581   5.832  11.871  1.5875 -1.4157  2.7276
 1773TIP3    H226811   4.619   5.782  11.733 -0.3764  1.5064  0.9906
 1774TIP3   OH226812   3.522   4.611  12.061  0.1096  0.1330  0.4099
 1774TIP3    H126813   3.545   4.522  12.034  0.6747  0.3965  0.0010
 1774TIP3    H226814   3.562   4.621  12.147 -2.0356 -0.8500  1.6196
 1775TIP3   OH226815   6.185   3.092  17.017 -0.0915  0.5112 -0.1780
 1775TIP3    H126816   6.261   3.139  17.050  0.9048 -2.1278  1.5734
 1775TIP3    H226817   6.222   3.015  16.972 -1.6683 -0.5246  0.2137
 1776TIP3   OH226818   0.028   0.861   4.806  0.0875 -0.0413 -0.8873
 1776TIP3    H126819  -0.002   0.815   4.728 -2.3700  0.8729 -0.5464
 1776TIP3    H226820  -0.050   0.871   4.861  0.6651  3.5154 -0.4584
 1777TIP3   OH226821   0.878   3.759  14.273 -0.0725 -0.0535 -0.6262
 1777TIP3    H126822   0.899   3.683  14.219  1.6121 -0.9923  1.2262
 1777TIP3    H226823   0.787   3.779  14.251  0.4007 -0.6012 -3.4646
 1778TIP3   OH226824   5.924   2.508  16.170  0.0145 -0.1092 -0.1210
 1778TIP3    H126825   5.931   2.526  16.264  0.7771 -1.8745  0.2054
 1778TIP3    H226826   5.872   2.428  16.165 -0.3962  0.2136 -1.2377
 1779TIP3   OH226827   2.578   3.008  10.612  0.5206 -0.6401  0.5335
 1779TIP3    H126828   2.573   2.912  10.617  1.3258 -0.6118  2.4385
 1779TIP3    H226829   2.503   3.032  10.557 -1.7744 -2.1573  2.7698
 1780TIP3   OH226830   0.073   2.366  11.463  0.3470  0.0211 -0.2442
 1780TIP3    H126831  -0.003   2.329  11.507  0.5843  1.2832  1.3199
 1780TIP3    H226832   0.037   2.410  11.386 -0.7447  1.7347  1.1608
 1781TIP3   OH226833   0.256   1.940  12.218  0.6148  0.5803  0.2108
 1781TIP3    H126834   0.346   1.908  12.229 -0.2186 -3.4074 -2.3019
 1781TIP3    H226835   0.263   2.008  12.152  1.8702  1.0390  0.7773
 1782TIP3   OH226836   1.726   1.555  15.360  0.4304 -0.5811  0.3407
 1782TIP3    H126837   1.730   1.649  15.345  1.7206 -0.4585  1.3003
 1782TIP3    H226838   1.745   1.515  15.275  1.1864  0.0359  0.2149
 1783TIP3   OH226839   5.436   0.716   4.802  0.0878  0.2218  0.1057
 1783TIP3    H126840   5.499   0.698   4.733 -0.4761 -0.1526 -0.3228
 1783TIP3    H226841   5.438   0.811   4.812  0.8508  0.1990  0.2316
 1784TIP3   OH226842   4.641   1.360  12.900  0.2216  0.2652  0.5713
 1784TIP3    H126843   4.651   1.403  12.815 -1.4046 -1.8656 -0.8119
 1784TIP3    H226844   4.684   1.276  12.889  0.4188  0.1562  2.0550
 1785TIP3   OH226845   4.856   3.911  16.257 -0.1380  0.0483  0.4877
 1785TIP3    H126846   4.851   3.999  16.296 -1.4184  0.9967 -1.6337
 1785TIP3    H226847   4.935   3.912  16.204 -0.6336  0.2743 -0.2659
 1786TIP3   OH226848   2.676   2.909   0.166  0.1331 -0.0166 -0.3841
 1786TIP3    H126849   2.654   2.889   0.257 -1.4122 -2.1422 -1.1426
 1786TIP3    H226850   2.617   2.981   0.142  0.0230  0.0553  0.1051
 1787TIP3   OH226851   5.694   6.580  13.607 -0.3525 -0.1704 -0.0453
 1787TIP3    H126852   5.651   6.652  13.654 -0.7038 -1.1388  1.1635
 1787TIP3    H226853   5.782   6.615  13.588 -1.3583  1.5470 -1.9002
 1788TIP3   OH226854   2.503   6.671  12.735  0.2219  0.0223 -0.5681
 1788TIP3    H126855   2.430   6.610  12.726 -0.0681 -0.1382  2.1599
 1788TIP3    H226856   2.578   6.615  12.755  0.5057  0.3902 -0.5995
 1789TIP3   OH226857   6.729   5.207  12.744 -0.4881 -0.2418 -0.3470
 1789TIP3    H126858   6.782   5.232  12.820  0.8082 -0.6791 -1.0726
 1789TIP3    H226859   6.780   5.138  12.701 -1.1484  0.0642 -1.6693
 1790TIP3   OH226860   0.105   1.152  12.904 -0.2603  0.7720 -0.6176
 1790TIP3    H126861   0.165   1.101  12.851  0.3624  0.1317  0.6579
 1790TIP3    H226862   0.144   1.153  12.991 -2.4578 -0.3449  0.4641
 1791TIP3   OH226863   5.030   1.706   3.177  0.5732  0.0642  0.1888
 1791TIP3    H126864   5.092   1.725   3.248  1.8884  1.2459 -1.2123
 1791TIP3    H226865   4.970   1.642   3.215  4.1600 -3.2656  0.9123
 1792TIP3   OH226866   6.470   2.974   6.841  0.6791  0.0056  0.5015
 1792TIP3    H126867   6.483   2.990   6.748 -0.6257 -0.8781  0.1338
 1792TIP3    H226868   6.382   3.008   6.859  0.7950 -0.1132  1.3360
 1793TIP3   OH226869   4.212   3.704  12.126  0.2303 -0.2928  0.2920
 1793TIP3    H126870   4.257   3.783  12.155  1.8890 -0.8790 -0.5507
 1793TIP3    H226871   4.120   3.729  12.121  0.8826  2.0925 -1.4940
 1794TIP3   OH226872   1.277   3.450   1.269 -0.5858 -0.0519  0.2018
 1794TIP3    H126873   1.261   3.446   1.363  1.0367 -0.6925  0.5006
 1794TIP3    H226874   1.253   3.539   1.244  0.7844  0.7769  1.6202
 1795TIP3   OH226875   6.359   1.687  14.916 -1.0378  0.0247 -0.3961
 1795TIP3    H126876   6.337   1.601  14.953 -0.1256 -0.3181 -0.6175
 1795TIP3    H226877   6.397   1.667  14.831 -3.2169  0.8023 -1.6444
 1796TIP3   OH226878   1.449   1.401  13.392 -0.0356  0.1102 -0.0110
 1796TIP3    H126879   1.518   1.405  13.458  0.4978 -0.8901 -0.4741
 1796TIP3    H226880   1.470   1.323  13.341 -0.6232  0.6684 -1.1451
 1797TIP3   OH226881   2.812   1.716   2.658  0.3850  0.0233  0.6607
 1797TIP3    H126882   2.719   1.694   2.659  0.4744 -0.4892 -0.6950
 1797TIP3    H226883   2.841   1.704   2.749 -0.8993  0.3427  1.1198
 1798TIP3   OH226884   0.788   1.668  16.412 -0.5489 -0.1482 -0.4671
 1798TIP3    H126885   0.846   1.610  16.460 -1.1797  0.8970  1.6939
 1798TIP3    H226886   0.847   1.726  16.364  0.2566  0.6039  1.3310
 1799TIP3   OH226887   4.001   0.411  16.260  0.3698  0.4482 -0.4815
 1799TIP3    H126888   3.991   0.450  16.173  1.0912  3.5165  0.6925
 1799TIP3    H226889   3.934   0.453  16.313  1.4776  0.4359  0.9901
 1800TIP3   OH226890   4.253   2.019  16.816 -0.2795 -0.0756 -0.8160
 1800TIP3    H126891   4.347   2.015  16.835 -0.2672  0.9527 -0.6231
 1800TIP3    H226892   4.245   1.987  16.726  0.3211  0.3767 -1.0294
 1801TIP3   OH226893   6.696   4.344   1.490 -0.5612  0.4180  0.1042
 1801TIP3    H126894   6.698   4.347   1.394  2.2712  0.2965  0.0841
 1801TIP3    H226895   6.714   4.435   1.516  0.8484  0.0609  0.4535
 1802TIP3   OH226896   3.758   3.407  12.332 -0.2115 -0.4139  0.0460
 1802TIP3    H126897   3.813   3.329  12.342 -0.1724 -0.3887  0.0276
 1802TIP3    H226898   3.793   3.452  12.255 -0.2657 -0.4044  0.0269
 1803TIP3   OH226899   2.833   4.798  15.851  0.0969 -0.1912  0.2545
 1803TIP3    H126900   2.814   4.740  15.777  1.4174 -0.1497 -0.1440
 1803TIP3    H226901   2.927   4.789  15.865  0.1543  1.0926  0.8465
 1804TIP3   OH226902   3.936   5.148   3.004  0.2427 -0.1247  0.1191
 1804TIP3    H126903   3.874   5.148   3.077  1.1476  1.0233  0.9176
 1804TIP3    H226904   4.022   5.148   3.046  0.7773  0.1971 -0.9477
 1805TIP3   OH226905   4.538   3.820   6.622 -0.1623 -0.0193  0.6375
 1805TIP3    H126906   4.471   3.778   6.568  0.1291 -0.5709  0.6932
 1805TIP3    H226907   4.489   3.871   6.686 -0.5134  1.6255 -0.8741
 1806TIP3   OH226908   5.597   4.156  12.387 -0.1167  0.0816  0.1769
 1806TIP3    H126909   5.679   4.140  12.341 -1.0626 -1.8061 -1.0036
 1806TIP3    H226910   5.579   4.074  12.432 -1.2737  0.5278  0.5603
 1807TIP3   OH226911   3.989   4.703   2.501 -0.5292  0.1572  0.1167
 1807TIP3    H126912   3.970   4.746   2.584  1.8712  0.8336  0.3671
 1807TIP3    H226913   4.082   4.717   2.487 -0.6866 -0.7354 -2.2543
 1808TIP3   OH226914   4.349   5.348   2.748  0.0658  0.0097  0.2038
 1808TIP3    H126915   4.395   5.408   2.689 -2.4113 -1.1484 -3.2234
 1808TIP3    H226916   4.257   5.371   2.739 -0.8913 -3.4972 -0.4326
 1809TIP3   OH226917   0.186   6.733  17.207  0.7004 -0.2854  0.2829
 1809TIP3    H126918   0.118   6.727  17.140 -0.5584 -0.4199  1.5257
 1809TIP3    H226919   0.247   6.663  17.186  0.5473 -0.0866 -0.9248
 1810TIP3   OH226920   1.963   1.162   3.852  0.6468  0.2397 -0.7131
 1810TIP3    H126921   1.896   1.140   3.788 -0.3519 -1.9115  0.9132
 1810TIP3    H226922   2.046   1.136   3.810 -0.0022 -1.3530 -1.0811
 1811TIP3   OH226923   6.729   4.743   0.890 -0.5245  0.1500 -0.3542
 1811TIP3    H126924   6.822   4.751   0.869 -0.4792  0.2462 -0.1272
 1811TIP3    H226925   6.722   4.780   0.978 -0.3338 -2.1658  0.7034
 1812TIP3   OH226926   5.937   1.138  16.081  0.2761  0.2663 -0.3371
 1812TIP3    H126927   5.954   1.097  16.166 -0.6652  1.5895  0.5437
 1812TIP3    H226928   5.891   1.219  16.103  0.6835  1.0195 -2.0784
 1813TIP3   OH226929   5.091   0.889   2.253  0.2894  0.5683 -0.5669
 1813TIP3    H126930   5.012   0.926   2.213  0.5899  0.9624 -0.8109
 1813TIP3    H226931   5.162   0.939   2.214  0.7221 -0.3755 -1.0071
 1814TIP3   OH226932   3.494   1.647   0.388 -0.5900  0.2075 -0.2881
 1814TIP3    H126933   3.404   1.616   0.378 -0.1773 -1.1981  0.0971
 1814TIP3    H226934   3.523   1.611   0.472  0.4323  0.3577 -0.5576
 1815TIP3   OH226935   0.459   6.317  11.907  0.1592 -0.1716  0.0326
 1815TIP3    H126936   0.519   6.377  11.863 -0.2332  0.0216 -0.2452
 1815TIP3    H226937   0.427   6.367  11.982 -0.4501  0.1065 -0.4051
 1816TIP3   OH226938   0.433   4.895   3.165  0.2856  0.0650 -0.4344
 1816TIP3    H126939   0.393   4.858   3.086  1.2149 -0.3354 -0.7360
 1816TIP3    H226940   0.516   4.848   3.174 -0.0794 -0.3430  1.1443
 1817TIP3   OH226941   4.806   2.604  13.153  0.1183  0.4841  0.2302
 1817TIP3    H126942   4.866   2.555  13.210  2.2630  0.8583 -1.5479
 1817TIP3    H226943   4.719   2.588  13.190  1.0998 -1.6751  1.8339
 1818TIP3   OH226944   6.356   1.389  16.575 -0.2224  0.5984  0.1039
 1818TIP3    H126945   6.272   1.433  16.567 -1.5327 -1.9599 -1.1707
 1818TIP3    H226946   6.412   1.454  16.618 -3.2954  1.7617  2.7971
 1819TIP3   OH226947   3.645   5.821   6.157  0.0662  0.4609  0.2583
 1819TIP3    H126948   3.582   5.782   6.096  0.6163  1.0705 -0.7090
 1819TIP3    H226949   3.604   5.809   6.243 -0.7143 -0.4144 -0.2124
 1820TIP3   OH226950   1.532   2.231  15.411  0.0376 -0.3595 -0.0703
 1820TIP3    H126951   1.464   2.298  15.418  2.0252  1.7601  0.2772
 1820TIP3    H226952   1.587   2.244  15.488  1.6794 -0.9626 -1.0793
 1821TIP3   OH226953   5.823   6.308   0.412 -0.1686 -0.5855 -0.0119
 1821TIP3    H126954   5.828   6.340   0.502 -0.3279 -0.6300  0.0145
 1821TIP3    H226955   5.805   6.386   0.360 -2.4229 -0.8606  0.2598
 1822TIP3   OH226956   1.189   5.766  11.027 -0.1318  0.2649  0.8402
 1822TIP3    H126957   1.240   5.687  11.040 -0.8234 -0.1765  0.9549
 1822TIP3    H226958   1.177   5.773  10.932  2.4810  1.9130  0.5359
 1823TIP3   OH226959   5.666   0.888   1.848 -0.0085 -0.2623 -0.3956
 1823TIP3    H126960   5.746   0.911   1.802  0.5479  1.3325  1.2378
 1823TIP3    H226961   5.692   0.815   1.905 -0.2814 -1.1345 -1.3590
 1824TIP3   OH226962   0.119   1.632   1.317 -0.0691 -0.3144  0.5306
 1824TIP3    H126963   0.050   1.689   1.284  1.1262  0.0986 -1.3913
 1824TIP3    H226964   0.089   1.543   1.299  0.3538 -0.1100 -1.3664
 1825TIP3   OH226965   2.970   1.225  12.220 -0.2164 -0.2929  0.5872
 1825TIP3    H126966   2.896   1.176  12.184  0.9204 -1.5466 -0.1531
 1825TIP3    H226967   2.995   1.178  12.299 -1.5563  1.4159  2.1254
 1826TIP3   OH226968   1.147   1.420  10.658  0.5656  0.0664  0.2904
 1826TIP3    H126969   1.165   1.463  10.741  0.4996  0.0011  0.3382
 1826TIP3    H226970   1.117   1.490  10.600  1.5784  0.3015  0.0186
 1827TIP3   OH226971   0.580   3.869  15.600  0.8195  0.1983 -0.4375
 1827TIP3    H126972   0.557   3.834  15.514 -1.5194 -0.3103  0.3136
 1827TIP3    H226973   0.654   3.817  15.629  1.3977  0.1244 -1.9627
 1828TIP3   OH226974   5.330   4.570  15.291  0.3018 -0.2336  0.2192
 1828TIP3    H126975   5.423   4.589  15.276  0.1210 -0.2506 -0.9842
 1828TIP3    H226976   5.284   4.630  15.233 -0.4228 -0.8558  0.1470
 1829TIP3   OH226977   6.345   4.281  17.015 -0.1940 -0.4441  0.3810
 1829TIP3    H126978   6.341   4.267  17.110  0.7938 -1.6495  0.2688
 1829TIP3    H226979   6.259   4.316  16.992 -1.1901 -2.0751  1.4456
 1830TIP3   OH226980   4.465   0.865  14.851  0.0072 -0.0267 -0.3330
 1830TIP3    H126981   4.500   0.892  14.766 -1.1720  0.7819 -0.5815
 1830TIP3    H226982   4.380   0.908  14.857 -0.6002 -1.2985  0.5981
 1831TIP3   OH226983   3.040   5.374  14.643 -0.0503  0.0423  0.2157
 1831TIP3    H126984   3.007   5.288  14.671 -1.3697  0.8654  1.3198
 1831TIP3    H226985   3.009   5.434  14.711  0.8551  1.3986 -0.5389
 1832TIP3   OH226986   1.217   6.573  16.977  0.3564  0.4743  0.2157
 1832TIP3    H126987   1.241   6.621  16.898  1.1814  0.9812  0.7705
 1832TIP3    H226988   1.248   6.627  17.049 -2.2018  1.0586  1.0022
 1833TIP3   OH226989   6.454   4.541   6.456  0.4898 -0.1019  0.8781
 1833TIP3    H126990   6.541   4.579   6.460  0.2466  0.4919  0.5843
 1833TIP3    H226991   6.395   4.615   6.442 -0.1473 -0.4019  1.8591
 1834TIP3   OH226992   1.019   3.049  12.307 -0.2812 -0.0512 -0.2731
 1834TIP3    H126993   1.109   3.020  12.291 -0.1935  0.4870 -0.7852
 1834TIP3    H226994   1.025   3.145  12.306 -0.9933 -0.0139 -1.0593
 1835TIP3   OH226995   5.639   0.991   2.812  0.2211 -0.2025 -0.1214
 1835TIP3    H126996   5.639   1.075   2.766  3.5712 -1.1769 -2.2800
 1835TIP3    H226997   5.701   1.004   2.884 -0.5208 -0.3679  0.5532
 1836TIP3   OH226998   6.558   5.205  10.988  0.3382 -0.1082 -0.0703
 1836TIP3    H126999   6.526   5.151  10.915 -0.8687 -1.1703  1.1756
 1836TIP3    H227000   6.626   5.260  10.949  2.8053 -3.5611 -1.1776
 1837TIP3   OH227001   1.817   0.310   3.255  0.4539  0.0447 -0.4639
 1837TIP3    H127002   1.820   0.350   3.169  1.5155  0.6254 -0.1724
 1837TIP3    H227003   1.745   0.247   3.250  0.2058  0.4056 -1.6169
 1838TIP3   OH227004   5.831   4.196  14.047  0.1204  0.0011  0.0139
 1838TIP3    H127005   5.756   4.136  14.050 -0.2717  0.4903  1.7158
 1838TIP3    H227006   5.872   4.186  14.133  0.5516  1.5156  0.0075
 1839TIP3   OH227007   2.692   1.723   0.149  0.5757  0.9117  0.1370
 1839TIP3    H127008   2.600   1.744   0.159  0.5204  1.1163 -0.6772
 1839TIP3    H227009   2.695   1.663   0.074  0.9993  0.0593  0.8123
 1840TIP3   OH227010   1.330   2.730   5.564 -0.4324  0.3787 -0.0482
 1840TIP3    H127011   1.290   2.665   5.506  0.2878 -0.4714  0.3866
 1840TIP3    H227012   1.256   2.774   5.606 -0.9257 -0.7476  0.2903
 1841TIP3   OH227013   1.614   0.054  16.307 -0.1544  0.4593 -0.5416
 1841TIP3    H127014   1.604   0.131  16.251 -0.6300  0.9283  0.1748
 1841TIP3    H227015   1.706   0.054  16.331 -0.4023  1.5715  0.5075
 1842TIP3   OH227016   4.473   2.639   4.673  0.1148 -0.4439  0.1548
 1842TIP3    H127017   4.505   2.703   4.737 -0.1744 -0.1247 -0.0116
 1842TIP3    H227018   4.460   2.690   4.593 -0.4174 -0.6449  0.1066
 1843TIP3   OH227019   1.291   6.181   2.675 -0.4347 -0.1713 -0.0763
 1843TIP3    H127020   1.336   6.265   2.679 -1.8522  0.7957 -2.6774
 1843TIP3    H227021   1.247   6.173   2.760  2.8402 -0.2592  1.7895
 1844TIP3   OH227022   6.597   0.351   2.370  0.3836  0.4679 -0.4126
 1844TIP3    H127023   6.636   0.301   2.442  0.4515 -0.2796 -0.9526
 1844TIP3    H227024   6.548   0.285   2.320  0.8630  0.8556 -1.4126
 1845TIP3   OH227025   2.242   1.342   3.004 -0.1818  0.0352 -0.2826
 1845TIP3    H127026   2.283   1.268   3.050 -1.0985 -1.9177 -2.3889
 1845TIP3    H227027   2.150   1.316   2.995 -0.9404  2.2754  0.4198
 1846TIP3   OH227028   3.138   4.840  13.616 -0.0650 -0.3560 -0.1270
 1846TIP3    H127029   3.155   4.930  13.643  0.6368  0.3806 -2.7705
 1846TIP3    H227030   3.052   4.844  13.575 -0.2331 -1.0227  0.1419
 1847TIP3   OH227031   3.956   6.818   1.084 -0.1978 -0.4842  0.3695
 1847TIP3    H127032   3.991   6.770   1.009  0.1427 -0.4942  0.5337
 1847TIP3    H227033   4.005   6.900   1.086 -0.3734 -0.3799  0.4378
 1848TIP3   OH227034   2.061   2.823   5.311 -0.2952  0.4751 -0.1694
 1848TIP3    H127035   2.071   2.730   5.332 -1.4359  0.0340 -1.3751
 1848TIP3    H227036   2.026   2.862   5.391  0.1560 -0.1391  0.3376
 1849TIP3   OH227037   1.896   2.519   0.362  0.0243 -0.2880 -0.4522
 1849TIP3    H127038   1.882   2.479   0.277 -1.4742  0.0923 -0.4165
 1849TIP3    H227039   1.829   2.481   0.418  0.6652 -0.1505  0.4247
 1850TIP3   OH227040   1.082   5.661   3.078 -0.2742 -0.2400  0.4834
 1850TIP3    H127041   1.052   5.623   2.996 -0.0927 -0.4655  0.5212
 1850TIP3    H227042   1.013   5.723   3.102 -1.1494 -1.3724  1.0077
 1851TIP3   OH227043   1.543   3.094   1.822  0.6547 -0.6294 -0.1249
 1851TIP3    H127044   1.582   3.012   1.852 -0.9256 -0.6897  2.0420
 1851TIP3    H227045   1.516   3.077   1.732  2.0437 -1.8444 -0.3398
 1852TIP3   OH227046   5.740   6.349  12.661  0.0209  0.2978 -0.3736
 1852TIP3    H127047   5.750   6.295  12.582  0.2561  0.4800 -0.4665
 1852TIP3    H227048   5.787   6.300  12.729 -0.3808  0.0208 -0.2865
 1853TIP3   OH227049   4.816   1.922   1.599 -0.2282 -0.2605  0.3505
 1853TIP3    H127050   4.855   1.845   1.641 -0.4529 -0.8301 -0.4463
 1853TIP3    H227051   4.886   1.987   1.597  0.2661 -0.7895  0.1770
 1854TIP3   OH227052   0.709   0.606   2.483  0.0093 -0.2774 -0.0645
 1854TIP3    H127053   0.680   0.693   2.455  1.4439  0.1414 -0.3905
 1854TIP3    H227054   0.629   0.555   2.493 -0.8339  0.9714 -0.2621
 1855TIP3   OH227055   6.514   5.945  14.598  0.3553 -0.6766  0.1058
 1855TIP3    H127056   6.598   5.973  14.635  0.4113  0.6913 -0.9825
 1855TIP3    H227057   6.498   6.006  14.526 -2.1514 -0.1569  1.0298
 1856TIP3   OH227058   5.797   6.239  17.127  0.1873  0.3290  0.1635
 1856TIP3    H127059   5.714   6.286  17.136  0.2972  0.2043  2.6879
 1856TIP3    H227060   5.852   6.297  17.075 -0.5367  1.8286  1.0027
 1857TIP3   OH227061   6.534   0.545  12.753  0.3814 -0.5319  0.6971
 1857TIP3    H127062   6.562   0.525  12.664  0.4971  0.9112  0.3797
 1857TIP3    H227063   6.582   0.484  12.808  1.1436 -0.7162 -0.1502
 1858TIP3   OH227064   5.040   1.825   0.449 -0.2684 -0.0428  0.0056
 1858TIP3    H127065   5.020   1.893   0.513 -1.3356 -0.7652  0.4738
 1858TIP3    H227066   5.097   1.868   0.385  1.8733  0.3929  2.0566
 1859TIP3   OH227067   1.849   4.869  14.859 -0.0179  0.3377 -0.2379
 1859TIP3    H127068   1.830   4.793  14.803 -1.3744 -0.1296  0.7850
 1859TIP3    H227069   1.927   4.909  14.821 -1.2692  0.4527 -2.8764
 1860TIP3   OH227070   0.547   0.519   5.583 -0.3379  0.0361  0.1842
 1860TIP3    H127071   0.531   0.517   5.488 -1.9439 -1.0355  0.4279
 1860TIP3    H227072   0.518   0.433   5.613  0.8204  0.1024  1.5689
 1861TIP3   OH227073   6.327   2.338   3.663 -0.1825  0.6172  0.5466
 1861TIP3    H127074   6.334   2.384   3.579 -0.3973 -0.1262  0.1018
 1861TIP3    H227075   6.258   2.273   3.648  1.1967 -0.9413  0.6025
 1862TIP3   OH227076   1.907   2.709   4.103  0.2005  0.3418 -0.2772
 1862TIP3    H127077   1.908   2.670   4.016 -0.6348 -2.0746  0.7074
 1862TIP3    H227078   1.819   2.744   4.114  0.4225  1.0026 -0.5045
 1863TIP3   OH227079   0.014   5.885  11.286 -0.3400 -0.5116  0.1857
 1863TIP3    H127080   0.064   5.878  11.368 -2.1770 -0.4952  1.3611
 1863TIP3    H227081   0.013   5.796  11.251 -0.5551 -0.7734  0.8319
 1864TIP3   OH227082   4.353   6.648   1.675  0.5529 -0.6186  0.8381
 1864TIP3    H127083   4.342   6.717   1.740 -0.3120  0.7300 -0.6791
 1864TIP3    H227084   4.274   6.652   1.622  1.8356 -0.6643 -1.2051
 1865TIP3   OH227085   0.684   5.056  15.718  0.8046 -0.3058  0.4136
 1865TIP3    H127086   0.621   5.092  15.781  2.5789  1.1687  1.4339
 1865TIP3    H227087   0.632   5.041  15.639 -0.5376  2.3676  0.6783
 1866TIP3   OH227088   5.728   0.257   4.998  0.0326 -0.0299  0.1379
 1866TIP3    H127089   5.737   0.269   5.092 -3.0879 -0.5642  0.6086
 1866TIP3    H227090   5.687   0.337   4.967 -4.7703 -2.0534  0.4357
 1867TIP3   OH227091   0.076   3.793  15.680 -0.0516  0.1113  0.4127
 1867TIP3    H127092   0.027   3.841  15.747 -0.8408 -1.1693  0.7848
 1867TIP3    H227093   0.168   3.812  15.700 -0.3311  1.4969  0.5031
 1868TIP3   OH227094   6.404   1.262   1.144  0.1400  0.3051  0.1531
 1868TIP3    H127095   6.334   1.232   1.086  0.7625 -0.6499 -0.1227
 1868TIP3    H227096   6.368   1.251   1.232  0.1909 -0.8621  0.0405
 1869TIP3   OH227097   1.782   6.027   3.726  0.0669 -0.1411  0.1757
 1869TIP3    H127098   1.824   6.064   3.803 -0.5052 -0.7645  0.8036
 1869TIP3    H227099   1.812   5.936   3.724  0.7920  0.0955 -0.8667
 1870TIP3   OH227100   5.675   1.679   3.817  0.0168 -0.4362 -0.6834
 1870TIP3    H127101   5.727   1.630   3.753  0.8403 -0.9906  0.3818
 1870TIP3    H227102   5.650   1.760   3.771  2.9819  0.5117 -0.8326
 1871TIP3   OH227103   4.750   1.072   5.352  0.8678 -0.1283  0.2372
 1871TIP3    H127104   4.701   0.994   5.326  1.4777 -0.8911  1.3408
 1871TIP3    H227105   4.729   1.136   5.284  0.3781 -1.2478 -0.7053
 1872TIP3   OH227106   3.079   2.574   4.516 -0.3929  0.2462  0.1070
 1872TIP3    H127107   3.042   2.633   4.581  0.3998  1.0393 -0.1407
 1872TIP3    H227108   3.070   2.621   4.433 -0.6664 -0.4118 -0.2445
 1873TIP3   OH227109   2.389   2.914  15.632 -0.8580 -0.2663  0.1455
 1873TIP3    H127110   2.368   3.004  15.607  0.3697  0.3222  1.1732
 1873TIP3    H227111   2.482   2.905  15.615 -0.2667 -0.3107  2.9766
 1874TIP3   OH227112   5.758   4.244  14.726 -0.4764 -0.0412  0.3336
 1874TIP3    H127113   5.718   4.330  14.733  0.4856  0.5163 -0.6628
 1874TIP3    H227114   5.838   4.258  14.675  0.8689 -1.1480  1.9996
 1875TIP3   OH227115   3.048   2.928  11.349 -0.3500  0.2138  0.5438
 1875TIP3    H127116   3.106   2.999  11.321 -0.1801  0.2762  1.0496
 1875TIP3    H227117   3.100   2.849  11.336 -0.6084  0.1562 -0.2064
 1876TIP3   OH227118   0.562   2.112   1.558 -0.3606  0.3394  0.0030
 1876TIP3    H127119   0.632   2.082   1.616  0.2937  0.2417 -0.8183
 1876TIP3    H227120   0.482   2.081   1.599  0.1574 -0.5952  0.3393
 1877TIP3   OH227121   4.004   5.819  14.475 -0.0870 -0.3832  0.4889
 1877TIP3    H127122   3.979   5.854  14.561 -0.2878 -0.7186  0.5703
 1877TIP3    H227123   3.942   5.748  14.460  0.0851 -0.4644  0.1609
 1878TIP3   OH227124   0.214   3.373  16.678  0.3483  0.5750  0.4364
 1878TIP3    H127125   0.269   3.410  16.747  0.9595 -0.3403  0.4570
 1878TIP3    H227126   0.276   3.336  16.615 -0.2320  0.0992  0.1347
 1879TIP3   OH227127   1.495   1.775  12.005  0.3057 -0.1012  0.5361
 1879TIP3    H127128   1.484   1.697  12.060  0.3234 -0.5764 -0.1250
 1879TIP3    H227129   1.588   1.797  12.014  1.2659 -2.4167 -2.1901
 1880TIP3   OH227130   6.437   2.251  13.380  0.3726  0.1390  0.0864
 1880TIP3    H127131   6.454   2.185  13.312  0.6630  0.4204 -0.1186
 1880TIP3    H227132   6.370   2.212  13.435  1.2395 -0.7429  0.5405
 1881TIP3   OH227133   2.719   1.646   4.989 -0.0790  0.1215 -1.0051
 1881TIP3    H127134   2.639   1.699   4.985 -0.7373 -0.8499 -1.1800
 1881TIP3    H227135   2.760   1.658   4.904 -0.8844 -0.6348 -1.5121
 1882TIP3   OH227136   3.060   5.071  13.984 -0.0903  0.1916  0.1176
 1882TIP3    H127137   3.033   5.078  13.893 -1.5232 -0.3477  0.4766
 1882TIP3    H227138   3.042   4.981  14.008  1.8414 -0.1452  0.4844
 1883TIP3   OH227139   5.959   5.854   4.837  0.0428 -0.2703 -0.3818
 1883TIP3    H127140   5.992   5.866   4.926 -1.6425 -0.6487  0.3346
 1883TIP3    H227141   5.996   5.928   4.788  1.9983 -0.7300  0.2856
 1884TIP3   OH227142   6.426   1.502  13.345  0.4402  0.3197 -0.0160
 1884TIP3    H127143   6.452   1.570  13.408  2.0875 -1.0197  0.8296
 1884TIP3    H227144   6.403   1.550  13.266  0.2928  1.9354  0.9576
 1885TIP3   OH227145   5.585   3.692   4.413 -0.2943  0.3959  0.1018
 1885TIP3    H127146   5.651   3.735   4.467 -0.1956  0.1428  0.1844
 1885TIP3    H227147   5.621   3.605   4.396 -1.1671 -0.2114  1.2020
 1886TIP3   OH227148   6.535   2.993  11.010  0.5069 -0.2404 -0.0333
 1886TIP3    H127149   6.570   2.997  10.921  2.9701 -0.7426  0.8223
 1886TIP3    H227150   6.575   3.067  11.056  3.9154 -3.0327  2.0208
 1887TIP3   OH227151   5.043   5.467   3.289  0.0869 -0.7397 -0.0832
 1887TIP3    H127152   5.016   5.551   3.327  1.2065 -1.1644  1.7736
 1887TIP3    H227153   4.984   5.402   3.327  0.5048 -1.0457  0.0477
 1888TIP3   OH227154   0.255   6.030  13.777  0.5833  0.4671  0.0234
 1888TIP3    H127155   0.301   5.963  13.726  0.6732 -0.1156  0.8452
 1888TIP3    H227156   0.320   6.100  13.789  1.0306 -0.0196  0.5329
 1889TIP3   OH227157   5.886   2.977  13.463 -0.2051  0.0424  0.1631
 1889TIP3    H127158   5.869   2.904  13.522 -2.2996  0.5334  0.2571
 1889TIP3    H227159   5.884   3.055  13.519  0.3252  0.3162 -0.1852
 1890TIP3   OH227160   1.946   1.372   4.176  0.1015  0.0066 -0.1705
 1890TIP3    H127161   1.895   1.292   4.164 -0.7098  0.3852  0.6332
 1890TIP3    H227162   1.926   1.401   4.265 -1.6681  2.4730 -1.2463
 1891TIP3   OH227163   3.950   0.472   5.327 -0.5403  0.3899 -0.2329
 1891TIP3    H127164   4.025   0.512   5.282  0.1276  0.1949  0.6847
 1891TIP3    H227165   3.974   0.473   5.419 -0.9187 -1.2641 -0.0956
 1892TIP3   OH227166   4.415   2.709   5.509  0.3617 -0.0108 -0.0227
 1892TIP3    H127167   4.328   2.736   5.538  0.6303  0.5596  0.2449
 1892TIP3    H227168   4.464   2.790   5.500  0.4881 -0.2096 -1.4341
 1893TIP3   OH227169   4.989   0.184   5.622  0.0620 -0.6764  0.1146
 1893TIP3    H127170   4.993   0.169   5.528 -0.9068 -2.0428  0.2607
 1893TIP3    H227171   4.962   0.276   5.630 -2.1520 -1.1491 -1.0128
 1894TIP3   OH227172   3.079   3.823  15.699  0.3496 -0.7584 -0.7716
 1894TIP3    H127173   3.073   3.819  15.794  0.4927  0.2010 -0.7214
 1894TIP3    H227174   3.147   3.888  15.681 -1.3627  0.9238 -1.5312
 1895TIP3   OH227175   1.358   4.057  12.572 -0.2312  0.1611  0.2184
 1895TIP3    H127176   1.442   4.017  12.597 -1.0752  0.2125  3.7602
 1895TIP3    H227177   1.376   4.150  12.566  0.0119  0.1796  1.0354
 1896TIP3   OH227178   0.892   1.483   1.623  0.2843 -0.4629  0.7349
 1896TIP3    H127179   0.871   1.394   1.649  1.3891 -0.6077  1.1679
 1896TIP3    H227180   0.982   1.479   1.591 -0.5272 -0.0338 -1.8965
 1897TIP3   OH227181   1.559   1.789  16.964 -0.4096  0.0620 -0.2672
 1897TIP3    H127182   1.557   1.755  17.053  0.7420  0.0010 -0.2522
 1897TIP3    H227183   1.478   1.839  16.956  0.0671  1.1473  1.2557
 1898TIP3   OH227184   3.419   3.198   2.593  0.6880 -0.0924 -0.4409
 1898TIP3    H127185   3.454   3.109   2.600 -1.1745 -0.8809 -0.3936
 1898TIP3    H227186   3.332   3.186   2.556  0.4664  1.7496 -0.6021
 1899TIP3   OH227187   3.100   5.262   0.364  0.4730  0.0296  0.9539
 1899TIP3    H127188   3.133   5.309   0.441 -1.0319  1.5222  0.7583
 1899TIP3    H227189   3.027   5.316   0.333 -0.6557 -1.9208  0.0444
 1900TIP3   OH227190   5.712   6.775   0.012  0.2943 -0.0341  0.3772
 1900TIP3    H127191   5.676   6.771   0.100 -1.7480 -3.2656 -0.4421
 1900TIP3    H227192   5.657   6.838  -0.034  0.5861  0.7322  1.0609
 1901TIP3   OH227193   1.747   6.393   0.318  0.7343  0.0644 -0.3751
 1901TIP3    H127194   1.678   6.389   0.384  2.7255 -0.5025  1.7753
 1901TIP3    H227195   1.738   6.310   0.269  0.2792 -0.2751  0.2681
 1902TIP3   OH227196   3.560   6.225  15.022  0.3527 -0.0653  0.7890
 1902TIP3    H127197   3.619   6.156  14.992 -0.5086 -0.8962  0.9441
 1902TIP3    H227198   3.577   6.233  15.116  2.1545  1.6544  0.3865
 1903TIP3   OH227199   3.649   1.963  16.069 -0.2441  0.2325 -0.1962
 1903TIP3    H127200   3.656   1.896  16.001  1.1386  1.5407 -1.3892
 1903TIP3    H227201   3.568   2.010  16.047  0.3745  0.8727 -1.1786
 1904TIP3   OH227202   4.511   4.939   4.295 -0.2931 -0.0405 -0.0471
 1904TIP3    H127203   4.517   5.028   4.261 -0.4892  0.2744  0.7283
 1904TIP3    H227204   4.587   4.930   4.353 -0.4992 -0.2428  0.1917
 1905TIP3   OH227205   1.177   5.094  16.869 -0.2856 -0.3141  0.5365
 1905TIP3    H127206   1.165   5.133  16.782  0.1742  1.7413  1.3347
 1905TIP3    H227207   1.105   5.032  16.877  1.0432 -2.4534 -2.2482
 1906TIP3   OH227208   2.469   3.251   1.420 -0.0577 -0.4404 -0.1442
 1906TIP3    H127209   2.473   3.274   1.513  2.1242 -0.3630 -0.2035
 1906TIP3    H227210   2.472   3.155   1.420 -0.9939 -0.4725 -0.1158
 1907TIP3   OH227211   1.273   5.812  12.421  0.5948 -0.0438 -0.1231
 1907TIP3    H127212   1.270   5.801  12.516  2.4857 -1.5150 -0.1857
 1907TIP3    H227213   1.185   5.791  12.391  0.3861 -1.0850  1.1652
 1908TIP3   OH227214   6.236   6.412  13.886  0.7026  0.0365  0.2118
 1908TIP3    H127215   6.184   6.419  13.966 -0.3632 -2.5264 -0.1600
 1908TIP3    H227216   6.309   6.356  13.909  0.1362 -1.1115 -0.6728
 1909TIP3   OH227217   6.693   3.066   2.331 -0.3357  0.2983  0.3252
 1909TIP3    H127218   6.691   3.065   2.235  0.9327  0.4409  0.2736
 1909TIP3    H227219   6.722   2.978   2.355  1.2813  0.8215  0.4642
 1910TIP3   OH227220   6.045   1.410   2.727  0.1131 -0.0384  0.3456
 1910TIP3    H127221   6.039   1.392   2.633 -1.5293 -0.2544  0.4625
 1910TIP3    H227222   6.138   1.401   2.747  0.7811  1.7958 -1.5947
 1911TIP3   OH227223   2.796   1.331   3.472  0.0855 -0.2910  0.2736
 1911TIP3    H127224   2.800   1.380   3.554  0.3429  1.0022 -0.4820
 1911TIP3    H227225   2.762   1.245   3.497 -2.6085  0.9601  1.3534
 1912TIP3   OH227226   1.644   3.218   5.547 -0.3442  0.2402  0.1045
 1912TIP3    H127227   1.625   3.139   5.497 -0.6612  1.8321 -2.4539
 1912TIP3    H227228   1.619   3.196   5.637 -1.6429 -2.1067 -0.7516
 1913TIP3   OH227229   0.591   3.613   0.722 -0.0124  0.3447  0.3568
 1913TIP3    H127230   0.646   3.576   0.653  0.7260  1.5298  0.2801
 1913TIP3    H227231   0.535   3.676   0.677 -1.2356 -0.6003  0.4906
 1914TIP3   OH227232   5.195   4.162   2.307 -0.6100  0.6964  0.7195
 1914TIP3    H127233   5.211   4.099   2.237 -0.0345  0.9620  0.6042
 1914TIP3    H227234   5.273   4.155   2.363 -0.8259  0.8613  1.0441
 1915TIP3   OH227235   3.676   4.205  13.639 -0.8809  0.0636 -0.0298
 1915TIP3    H127236   3.621   4.275  13.603 -0.1513  1.1219  0.8301
 1915TIP3    H227237   3.725   4.248  13.710 -0.5866 -1.3843  0.6760
 1916TIP3   OH227238   6.413   6.313  15.074 -0.5187  0.1035  0.5637
 1916TIP3    H127239   6.415   6.262  15.155 -1.4538 -2.1235 -0.7149
 1916TIP3    H227240   6.351   6.266  15.018 -0.1211  1.7350 -1.3557
 1917TIP3   OH227241   2.401   1.598   3.332 -0.0847  0.3865  0.6172
 1917TIP3    H127242   2.487   1.592   3.291  0.5242  3.2322  1.2436
 1917TIP3    H227243   2.339   1.595   3.259  0.6700  0.2401 -0.0210
 1918TIP3   OH227244   4.949   3.006  13.110  0.3784  0.3935  0.0271
 1918TIP3    H127245   5.012   2.938  13.133  0.2750 -0.4053 -1.8582
 1918TIP3    H227246   4.999   3.087  13.113  0.3229  0.4316  3.0750
 1919TIP3   OH227247   0.736   1.511  15.208  0.0655  0.1471  0.0082
 1919TIP3    H127248   0.666   1.573  15.230  0.9577  0.7505  1.2733
 1919TIP3    H227249   0.809   1.538  15.263  0.9009 -1.2370 -0.3965
 1920TIP3   OH227250   1.572   4.929  16.213  0.1246  0.2544 -0.6110
 1920TIP3    H127251   1.622   4.870  16.156  1.5621  1.2385 -0.4100
 1920TIP3    H227252   1.625   4.936  16.292 -0.4399  1.1747 -0.3036
 1921TIP3   OH227253   6.725   4.913   1.115  0.1068  0.1033  0.2295
 1921TIP3    H127254   6.725   4.859   1.194  1.6277 -0.2498  0.0176
 1921TIP3    H227255   6.643   4.963   1.120 -0.3771 -0.7710  1.4249
 1922TIP3   OH227256   2.096   6.064  11.894 -0.2142 -0.4757  0.5442
 1922TIP3    H127257   2.099   6.106  11.808 -0.9468 -0.3105  0.5893
 1922TIP3    H227258   2.167   6.000  11.892 -1.8178 -2.3363 -1.1701
 1923TIP3   OH227259   0.547   4.628   1.735  0.0989 -0.2822  0.4218
 1923TIP3    H127260   0.454   4.623   1.757  0.3275  0.6368  1.7211
 1923TIP3    H227261   0.549   4.646   1.641 -1.0009 -1.3683  0.1543
 1924TIP3   OH227262   2.416   6.798   5.264 -0.3108 -0.1225  0.5982
 1924TIP3    H127263   2.413   6.718   5.212  1.9025 -1.9404  3.0178
 1924TIP3    H227264   2.508   6.824   5.264 -0.7890  1.7503  0.8969
 1925TIP3   OH227265   1.647   1.477  10.635 -1.0215 -0.1163  0.1491
 1925TIP3    H127266   1.621   1.569  10.627 -0.4173 -0.0039 -0.7353
 1925TIP3    H227267   1.572   1.428  10.601 -0.7004  0.1360 -0.9671
 1926TIP3   OH227268   4.294   1.979   4.285 -0.1911  0.3415  0.1588
 1926TIP3    H127269   4.379   2.022   4.282 -1.3698  2.8571 -0.6488
 1926TIP3    H227270   4.313   1.885   4.281  2.4783  0.8635 -1.1474
 1927TIP3   OH227271   6.210   6.430   5.631  0.2890 -0.0001 -0.7807
 1927TIP3    H127272   6.291   6.415   5.583  0.4741  0.1712 -0.5243
 1927TIP3    H227273   6.238   6.467   5.715 -0.0561  0.1356 -0.7220
 1928TIP3   OH227274   4.212   2.552  11.529 -0.4801  0.5439  0.2043
 1928TIP3    H127275   4.215   2.554  11.625 -0.2249  0.3454  0.1982
 1928TIP3    H227276   4.298   2.584  11.502 -0.0431 -0.7202  0.0462
 1929TIP3   OH227277   6.765   0.948   3.503 -0.1742 -0.0605 -0.2429
 1929TIP3    H127278   6.804   1.033   3.525  0.4353 -0.7740  1.6632
 1929TIP3    H227279   6.682   0.947   3.551 -0.1477 -0.5730 -0.2022
 1930TIP3   OH227280   2.499   5.446   1.467  0.0013  0.0285  0.0757
 1930TIP3    H127281   2.446   5.518   1.503 -0.2624  0.3689 -0.9642
 1930TIP3    H227282   2.482   5.449   1.373  0.3277 -1.1331 -0.0286
 1931TIP3   OH227283   2.024   0.637  11.276  0.9439  0.2819 -0.0181
 1931TIP3    H127284   2.119   0.641  11.268  0.9149 -1.1600 -1.8587
 1931TIP3    H227285   1.991   0.683  11.198  0.0174  2.9119  1.7809
 1932TIP3   OH227286   6.349   3.021   0.211 -0.4340  0.7312 -0.3017
 1932TIP3    H127287   6.286   2.955   0.241  1.7794 -0.8709  1.0719
 1932TIP3    H227288   6.336   3.095   0.270 -2.2899  1.2264 -1.2508
 1933TIP3   OH227289   5.721   1.992   1.023 -0.5207  0.2126  0.2728
 1933TIP3    H127290   5.725   2.067   0.964 -2.2842  0.2978  0.1871
 1933TIP3    H227291   5.648   1.940   0.989  0.4948 -1.4057  0.4975
 1934TIP3   OH227292   1.561   5.111  16.651 -0.4819 -0.1054  0.0699
 1934TIP3    H127293   1.533   5.115  16.559 -0.3107  2.3100  0.0552
 1934TIP3    H227294   1.640   5.165  16.653 -0.8305  0.3888  1.7322
 1935TIP3   OH227295   1.124   3.967  16.344 -0.1625 -0.2380  0.0466
 1935TIP3    H127296   1.185   3.966  16.270 -0.4712 -2.5729 -0.2396
 1935TIP3    H227297   1.044   4.005  16.309  1.0613  3.0250  0.4633
 1936TIP3   OH227298   1.187   5.006   6.357 -0.0796 -0.3841 -0.2634
 1936TIP3    H127299   1.274   4.987   6.322 -0.6797  0.3480 -2.3202
 1936TIP3    H227300   1.203   5.064   6.431  1.1639  0.2348 -0.9853
 1937TIP3   OH227301   3.912   3.999   6.153 -0.4672  0.2472 -0.9229
 1937TIP3    H127302   3.871   4.053   6.221 -2.0807 -0.9965 -0.8446
 1937TIP3    H227303   3.983   3.953   6.199 -2.5271 -1.7895  0.4105
 1938TIP3   OH227304   2.793   1.617   4.536 -0.0492 -0.5428  0.0513
 1938TIP3    H127305   2.863   1.559   4.505 -1.5149 -1.4443 -1.8327
 1938TIP3    H227306   2.713   1.570   4.514 -1.2744  0.3420  2.3744
 1939TIP3   OH227307   1.966   6.691  14.695 -0.3623 -0.0959  0.0613
 1939TIP3    H127308   2.058   6.714  14.680 -0.0908 -1.2193 -0.1481
 1939TIP3    H227309   1.917   6.743  14.631 -0.0664  1.8199  1.3330
 1940TIP3   OH227310   6.328   3.617  13.199  0.5175 -0.8066 -0.4187
 1940TIP3    H127311   6.401   3.679  13.194 -0.1002  0.1352  1.4614
 1940TIP3    H227312   6.355   3.554  13.266 -0.4476 -0.3403  0.4326
 1941TIP3   OH227313   3.281   3.141  10.883 -0.3845  0.8394 -0.1256
 1941TIP3    H127314   3.343   3.083  10.927  0.0782  2.1858  1.0684
 1941TIP3    H227315   3.301   3.131  10.790 -0.5132 -1.0886  0.0012
 1942TIP3   OH227316   0.818   1.033   3.356 -0.2074 -0.0142  0.0739
 1942TIP3    H127317   0.837   0.964   3.421  0.2735 -0.8252 -0.9000
 1942TIP3    H227318   0.740   1.002   3.310  0.2111 -0.0843 -0.5994
 1943TIP3   OH227319   3.277   5.427  14.571 -0.4584  0.0820 -0.2547
 1943TIP3    H127320   3.187   5.400  14.587 -0.3390 -2.9341 -3.5110
 1943TIP3    H227321   3.270   5.518  14.542 -2.3260  0.1847  0.3998
 1944TIP3   OH227322   0.580   0.841  12.768  0.2057  0.4005  0.8605
 1944TIP3    H127323   0.609   0.750  12.774  0.2164  0.2640 -0.7992
 1944TIP3    H227324   0.624   0.884  12.842  1.4355 -0.6270  0.7814
 1945TIP3   OH227325   2.833   6.369   0.899 -0.3271  0.2778 -0.8259
 1945TIP3    H127326   2.922   6.384   0.869 -0.4947  0.1748 -1.3862
 1945TIP3    H227327   2.831   6.405   0.988  1.0623 -2.2448  0.3076
 1946TIP3   OH227328   1.900   0.616   5.569 -0.0515 -0.3303 -0.2867
 1946TIP3    H127329   1.944   0.627   5.485  0.2016  1.6048  0.0368
 1946TIP3    H227330   1.917   0.699   5.615 -1.5359 -0.7131  1.0246
 1947TIP3   OH227331   4.909   6.293  14.966 -0.2609 -0.1938  0.2043
 1947TIP3    H127332   4.946   6.358  14.907  0.4585 -1.2128 -0.5121
 1947TIP3    H227333   4.917   6.332  15.053  0.6548  0.4475 -0.1507
 1948TIP3   OH227334   6.562   6.422   3.108  0.2842 -0.2902  0.5578
 1948TIP3    H127335   6.476   6.461   3.091  0.3306 -0.9159 -1.2706
 1948TIP3    H227336   6.574   6.358   3.038  2.0985 -0.4664  0.9793
 1949TIP3   OH227337   5.500   1.172  12.584  0.4225  0.1427 -0.1518
 1949TIP3    H127338   5.406   1.156  12.590  0.6965 -1.9954 -0.8318
 1949TIP3    H227339   5.510   1.263  12.611 -1.7277  0.1645  0.7869
 1950TIP3   OH227340   6.157   6.429   1.174  0.1151 -0.5382 -0.8637
 1950TIP3    H127341   6.203   6.510   1.196 -1.6932  0.7628 -1.6059
 1950TIP3    H227342   6.130   6.393   1.258 -1.0313  0.8699 -0.5886
 1951TIP3   OH227343   3.223   4.007  12.009 -0.0922 -0.3768 -0.4554
 1951TIP3    H127344   3.263   4.089  11.978  0.3032 -0.4104 -0.0386
 1951TIP3    H227345   3.262   3.939  11.953  1.6457 -0.6055  0.9352
 1952TIP3   OH227346   4.004   0.433   0.812 -0.0440 -0.6173  0.0485
 1952TIP3    H127347   3.977   0.376   0.884 -0.6446  0.4258  0.6775
 1952TIP3    H227348   3.949   0.511   0.821 -1.7464 -1.3315 -2.8592
 1953TIP3   OH227349   6.305   2.991  11.496 -0.0741 -0.3734  0.9153
 1953TIP3    H127350   6.349   2.978  11.412 -0.5776 -0.3755  0.6443
 1953TIP3    H227351   6.274   3.082  11.493  0.5537 -0.1319  1.4166
 1954TIP3   OH227352   4.817   1.322  15.239 -0.3583  0.0958  0.1046
 1954TIP3    H127353   4.757   1.262  15.193 -0.4758 -0.0839  0.4854
 1954TIP3    H227354   4.894   1.327  15.182 -1.2348  1.3392 -1.0449
 1955TIP3   OH227355   6.656   1.119   1.042  0.1777  0.1454  0.4332
 1955TIP3    H127356   6.621   1.074   1.119  0.6912 -0.9952  0.0198
 1955TIP3    H227357   6.596   1.193   1.028 -1.3350 -1.0259  0.4947
 1956TIP3   OH227358   3.648   2.169   1.748  0.4447  0.6062  0.2416
 1956TIP3    H127359   3.608   2.145   1.664 -0.0610 -0.3830  0.7440
 1956TIP3    H227360   3.729   2.119   1.750  0.7205  1.0442  0.1155
 1957TIP3   OH227361   2.172   4.174   4.203 -0.5714  0.1381  0.5904
 1957TIP3    H127362   2.172   4.162   4.108  0.2057 -0.0326  0.6039
 1957TIP3    H227363   2.203   4.263   4.216 -1.1116  0.3177  0.6738
 1958TIP3   OH227364   2.098   0.542  15.305  0.4060 -0.2437  0.0007
 1958TIP3    H127365   2.181   0.590  15.301  0.8822 -1.0899 -0.8876
 1958TIP3    H227366   2.037   0.593  15.252  0.0199  0.9662  1.5533
 1959TIP3   OH227367   2.819   1.325  12.533 -0.5214  0.0037 -0.5310
 1959TIP3    H127368   2.791   1.403  12.485 -2.5257 -0.4471 -0.1682
 1959TIP3    H227369   2.823   1.257  12.466 -2.3317 -0.3890 -0.2894
 1960TIP3   OH227370   6.146   2.827  12.689  0.4144 -0.0013 -0.3803
 1960TIP3    H127371   6.157   2.905  12.634 -0.2428 -1.0752 -2.1091
 1960TIP3    H227372   6.139   2.755  12.627 -1.0344 -1.1976  1.0941
 1961TIP3   OH227373   0.463   3.284   4.199  0.5421  0.5601  1.0023
 1961TIP3    H127374   0.532   3.263   4.136  0.3973 -1.1181  1.3541
 1961TIP3    H227375   0.395   3.326   4.148  1.4434  1.4523  0.4932
 1962TIP3   OH227376   5.532   1.648  15.043  0.3990 -0.4554 -0.2124
 1962TIP3    H127377   5.556   1.557  15.057 -0.4189 -0.5601  0.5417
 1962TIP3    H227378   5.495   1.650  14.955 -0.2998 -0.9993  0.0641
 1963TIP3   OH227379   4.761   2.648  15.910 -0.0112 -0.3033 -0.1731
 1963TIP3    H127380   4.778   2.664  15.817 -1.7491 -1.9752 -0.8331
 1963TIP3    H227381   4.705   2.570  15.911 -3.2463  1.8169  2.0292
 1964TIP3   OH227382   0.241   0.977  14.084 -0.5050 -0.1777  0.0316
 1964TIP3    H127383   0.216   0.904  14.140 -0.6075  0.2774  0.5897
 1964TIP3    H227384   0.200   1.054  14.124  0.0235  0.2633 -0.2531
 1965TIP3   OH227385   6.313   3.113   1.171  0.1821  0.0046  0.3232
 1965TIP3    H127386   6.385   3.170   1.143  0.2058 -0.8148 -1.4289
 1965TIP3    H227387   6.235   3.170   1.167  0.3234  0.1506 -0.6352
 1966TIP3   OH227388   0.647   5.365   2.355 -0.2549 -0.0250 -0.2755
 1966TIP3    H127389   0.701   5.383   2.278  0.0731 -2.0875 -0.5962
 1966TIP3    H227390   0.610   5.278   2.338 -1.2266  0.0295  1.3295
 1967TIP3   OH227391   5.476   2.611   3.160 -0.1907  0.0842  0.9752
 1967TIP3    H127392   5.477   2.553   3.236 -1.5176  1.3659  2.0178
 1967TIP3    H227393   5.533   2.684   3.184 -0.1171  0.1953  0.4825
 1968TIP3   OH227394   6.314   0.510  16.262 -0.1772 -0.6103 -0.2806
 1968TIP3    H127395   6.398   0.549  16.288 -0.7104 -1.4616  3.2057
 1968TIP3    H227396   6.312   0.426  16.307 -2.5713 -0.9686 -0.9374
 1969TIP3   OH227397   5.004   0.537   2.496  0.6990 -0.5979  0.4295
 1969TIP3    H127398   5.017   0.442   2.498  0.8440 -0.5705  2.1708
 1969TIP3    H227399   4.915   0.550   2.530 -0.2200 -0.2014 -1.9482
 1970TIP3   OH227400   1.059   0.290  15.359  0.0250  0.5593 -0.5150
 1970TIP3    H127401   0.984   0.295  15.418  2.7201 -0.1969  3.2966
 1970TIP3    H227402   1.085   0.381  15.346 -0.4815  0.7243 -0.4114
 1971TIP3   OH227403   0.003   0.083   6.074 -0.6635 -0.1120  0.0491
 1971TIP3    H127404  -0.029   0.171   6.096 -1.9849 -0.5469 -0.0190
 1971TIP3    H227405   0.094   0.082   6.103 -0.8290  1.0506  0.6682
 1972TIP3   OH227406   0.828   4.692  15.504 -0.0254 -0.2961  0.3465
 1972TIP3    H127407   0.848   4.785  15.498 -0.4264 -0.1228  1.4464
 1972TIP3    H227408   0.878   4.652  15.433 -1.0024  0.9188 -1.0558
 1973TIP3   OH227409   2.601   0.276  13.146 -0.4306 -0.2298 -0.7348
 1973TIP3    H127410   2.636   0.226  13.219  0.8463  1.3764 -0.2037
 1973TIP3    H227411   2.520   0.230  13.122  0.1401 -1.8983  0.4002
 1974TIP3   OH227412   6.014   5.398   4.143 -0.5453 -0.4904  0.6050
 1974TIP3    H127413   6.070   5.475   4.149 -0.6696 -0.1483 -1.6478
 1974TIP3    H227414   5.936   5.428   4.095 -1.4970 -1.5724  1.3983
 1975TIP3   OH227415   0.300   5.328   4.212  0.2889  0.1327  0.4131
 1975TIP3    H127416   0.237   5.265   4.246 -1.2626  1.1995 -0.3631
 1975TIP3    H227417   0.378   5.316   4.266 -0.2035 -1.9354  0.7336
 1976TIP3   OH227418   0.334   0.647   4.239  0.1756  0.4096 -0.7370
 1976TIP3    H127419   0.345   0.691   4.324  0.5942 -0.4044 -0.3482
 1976TIP3    H227420   0.328   0.718   4.175  0.7177  1.0293 -0.1198
 1977TIP3   OH227421   6.579   6.522   4.843 -0.0209  0.8617 -0.0666
 1977TIP3    H127422   6.527   6.558   4.771 -0.5115  0.0737 -0.1221
 1977TIP3    H227423   6.670   6.534   4.816 -0.1999  0.0530 -1.0889
 1978TIP3   OH227424   5.003   3.984   5.698 -0.2672  1.0377 -0.1060
 1978TIP3    H127425   5.093   3.972   5.731 -0.0561  1.8339 -0.3869
 1978TIP3    H227426   4.953   3.915   5.742  0.2101  1.4388  1.1352
 1979TIP3   OH227427   0.230   0.959   2.308  0.2792  0.5232 -0.8948
 1979TIP3    H127428   0.252   0.979   2.217 -0.5025 -0.0890 -1.2308
 1979TIP3    H227429   0.269   0.873   2.323  0.1296  0.4805 -0.7500
 1980TIP3   OH227430   6.582   3.655   0.284 -0.1315  0.6461 -0.2870
 1980TIP3    H127431   6.660   3.600   0.281 -0.3165  0.3900 -0.3677
 1980TIP3    H227432   6.592   3.716   0.211 -0.0078  0.6137 -0.2965
 1981TIP3   OH227433   2.806   4.480   1.517  0.5787  0.4821  0.1180
 1981TIP3    H127434   2.820   4.489   1.423  0.3129  1.2845  0.1467
 1981TIP3    H227435   2.853   4.400   1.541  0.1264 -0.0680 -0.8004
 1982TIP3   OH227436   6.669   4.255   4.635  0.2678  0.1081 -0.2690
 1982TIP3    H127437   6.758   4.222   4.647  0.5436  1.0660  0.4313
 1982TIP3    H227438   6.625   4.187   4.584  1.0127 -1.0027  0.5269
 1983TIP3   OH227439   6.689   0.763  12.620  0.1279 -0.0202 -0.4784
 1983TIP3    H127440   6.616   0.798  12.570 -0.5714 -0.3505  0.2752
 1983TIP3    H227441   6.654   0.684  12.661  1.5527 -1.4095 -1.8320
 1984TIP3   OH227442   2.820   4.654  11.533  0.0892 -0.3571  0.7013
 1984TIP3    H127443   2.819   4.702  11.615  2.4863 -0.0185  0.5887
 1984TIP3    H227444   2.834   4.720  11.466  3.8295 -1.0809  0.5786
 1985TIP3   OH227445   1.979   2.852   0.683  0.2725  0.0988  0.3020
 1985TIP3    H127446   1.931   2.771   0.702 -0.0803  0.4160  0.8004
 1985TIP3    H227447   1.920   2.922   0.711  1.1255  0.4961  1.1962
 1986TIP3   OH227448   1.120   6.581   3.590 -0.5358 -0.4899 -0.7390
 1986TIP3    H127449   1.178   6.575   3.514 -0.6512 -1.8827 -0.7408
 1986TIP3    H227450   1.115   6.492   3.624  0.3226  0.2688  1.5526
 1987TIP3   OH227451   5.931   6.758   3.684 -0.3614  0.2800  0.9620
 1987TIP3    H127452   5.864   6.780   3.749 -0.9875  0.4268  0.2839
 1987TIP3    H227453   5.979   6.840   3.672 -0.2442  0.2535  1.2306
 1988TIP3   OH227454   2.677   4.441  14.974  0.0514  0.8539 -0.8563
 1988TIP3    H127455   2.721   4.390  15.043 -0.4200  2.4002  0.6738
 1988TIP3    H227456   2.711   4.405  14.892  1.8227 -0.0481  0.2014
 1989TIP3   OH227457   2.361   2.505  12.699  0.7321 -0.2326  0.2915
 1989TIP3    H127458   2.414   2.431  12.728  0.0112 -0.0816  2.0992
 1989TIP3    H227459   2.292   2.513  12.765  0.0308  1.2467 -0.5654
 1990TIP3   OH227460   2.226   1.806  14.927 -0.0170  0.1638  0.1027
 1990TIP3    H127461   2.285   1.837  14.858  0.4748 -1.2451 -0.1505
 1990TIP3    H227462   2.266   1.724  14.957 -1.0381 -0.0247  1.0050
 1991TIP3   OH227463   2.031   6.085   4.864 -0.4215  0.3484 -0.5571
 1991TIP3    H127464   2.001   6.176   4.872  0.6705  0.6931 -0.1522
 1991TIP3    H227465   1.969   6.044   4.804 -0.0197  1.7977 -2.0389
 1992TIP3   OH227466   4.228   6.749   5.646  0.0199  0.0204  0.1738
 1992TIP3    H127467   4.138   6.778   5.629  0.5209  0.3923 -2.1021
 1992TIP3    H227468   4.244   6.681   5.581  1.4611  0.0795  0.4402
 1993TIP3   OH227469   1.988   1.668   6.469 -0.0166 -0.6840 -0.3602
 1993TIP3    H127470   2.041   1.597   6.504  2.5868  0.8165 -0.9906
 1993TIP3    H227471   1.939   1.629   6.397  0.3307 -2.0984  0.1383
 1994TIP3   OH227472   5.784   4.046  14.428  0.7185 -0.3989  0.0896
 1994TIP3    H127473   5.752   4.002  14.507  0.7305 -0.9070 -0.1855
 1994TIP3    H227474   5.706   4.080  14.385  0.4350 -2.2978 -0.9808
 1995TIP3   OH227475   4.187   3.490   5.519 -0.0081 -0.3017  0.1337
 1995TIP3    H127476   4.152   3.407   5.550  0.9800 -1.2342 -1.0814
 1995TIP3    H227477   4.131   3.514   5.445 -2.0796  1.6745  2.1909
 1996TIP3   OH227478   3.267   5.153   0.198 -0.7882 -0.4078  0.1345
 1996TIP3    H127479   3.336   5.099   0.237  0.2775 -0.3687 -1.6128
 1996TIP3    H227480   3.208   5.172   0.271  0.0911 -1.9163  1.3015
 1997TIP3   OH227481   6.245   3.838   2.310  0.4956 -0.0017 -0.1902
 1997TIP3    H127482   6.247   3.838   2.406  0.7086 -1.7194 -0.1570
 1997TIP3    H227483   6.337   3.837   2.284  0.4509 -1.5907 -0.3506
 1998TIP3   OH227484   5.365   6.678   3.173 -0.0221  0.0659  0.3090
 1998TIP3    H127485   5.447   6.638   3.145  0.2252  1.5593 -1.2003
 1998TIP3    H227486   5.299   6.639   3.116  0.0348  0.8190 -0.2816
 1999TIP3   OH227487   4.652   5.813   3.334  0.2875  0.0112 -0.1856
 1999TIP3    H127488   4.641   5.897   3.289  2.6994 -0.4720 -1.8588
 1999TIP3    H227489   4.583   5.758   3.296 -0.0144  0.6485 -0.6008
 2000TIP3   OH227490   6.594   4.128  11.274 -0.1330 -0.5830  0.3053
 2000TIP3    H127491   6.532   4.072  11.321  1.5881 -1.5086  1.5845
 2000TIP3    H227492   6.616   4.197  11.337 -1.7682  1.3200 -1.0443
 2001TIP3   OH227493   6.777   6.037  14.559 -0.3682  0.6348 -0.1255
 2001TIP3    H127494   6.830   6.037  14.639 -0.7116  0.6132  0.1038
 2001TIP3    H227495   6.789   5.950  14.522 -0.2189  0.6394 -0.0893
 2002TIP3   OH227496   6.240   2.985  13.457  0.4392  0.3933 -0.0992
 2002TIP3    H127497   6.233   2.922  13.529 -0.2873  0.1817 -0.3422
 2002TIP3    H227498   6.334   2.995  13.443  0.5688 -1.0292 -0.4016
 2003TIP3   OH227499   4.481   6.026   1.086  0.0388 -0.3877  0.0603
 2003TIP3    H127500   4.504   5.958   1.149  3.3006 -0.1407 -0.6917
 2003TIP3    H227501   4.398   5.997   1.048 -0.1985 -2.3419  1.9062
 2004TIP3   OH227502   1.012   1.826   4.683 -0.0617  0.1164  0.7492
 2004TIP3    H127503   0.965   1.906   4.707  1.6263  1.5708 -0.5185
 2004TIP3    H227504   0.955   1.783   4.620  1.0385  3.0190 -2.5629
 2005TIP3   OH227505   4.862   0.611  14.216 -0.5518 -0.1452  0.0255
 2005TIP3    H127506   4.942   0.592  14.167 -1.0479 -0.7042 -0.5892
 2005TIP3    H227507   4.884   0.687  14.270 -0.0943  0.7187 -1.3329
 2006TIP3   OH227508   3.376   6.489   2.670 -0.0398  0.5723  0.0372
 2006TIP3    H127509   3.462   6.453   2.653 -0.8893 -0.8615 -1.5450
 2006TIP3    H227510   3.368   6.491   2.765  0.9327 -1.3024  0.1958
 2007TIP3   OH227511   2.264   6.650  13.068 -0.3163 -0.3745  0.0238
 2007TIP3    H127512   2.234   6.668  13.157 -0.4511  2.1524 -0.4480
 2007TIP3    H227513   2.262   6.555  13.060  0.3996 -0.7020  2.9374
 2008TIP3   OH227514   5.710   2.823  13.771  0.2058  0.2890  0.6073
 2008TIP3    H127515   5.657   2.873  13.708  1.4595  1.1742  0.2219
 2008TIP3    H227516   5.752   2.755  13.718 -0.9197 -0.7696  1.0089
 2009TIP3   OH227517   4.723   6.379  12.464 -0.1620 -0.0150  0.0723
 2009TIP3    H127518   4.676   6.313  12.412  2.8673 -2.0640 -0.3517
 2009TIP3    H227519   4.766   6.435  12.399  1.0542 -0.6057  0.3290
 2010TIP3   OH227520   2.336   6.449  17.202 -0.6085 -0.4443  0.5468
 2010TIP3    H127521   2.395   6.398  17.146 -1.0442  0.7911 -1.1086
 2010TIP3    H227522   2.263   6.390  17.218 -0.3984 -0.8842 -0.0492
 2011TIP3   OH227523   6.362   6.525  14.674 -0.3682 -0.9441 -0.6169
 2011TIP3    H127524   6.356   6.498  14.766  1.0286 -0.6997 -0.4395
 2011TIP3    H227525   6.389   6.446  14.628  0.8208 -0.6039 -0.5267
 2012TIP3   OH227526   5.343   4.312   3.145 -0.5068  0.2807  0.3866
 2012TIP3    H127527   5.295   4.230   3.159 -0.3367  0.4121  1.9080
 2012TIP3    H227528   5.434   4.285   3.134 -0.4428  0.2532  0.9437
 2013TIP3   OH227529   4.019   4.443  15.474 -0.2894  0.0252 -0.4987
 2013TIP3    H127530   4.039   4.427  15.566 -0.4935  1.6554 -0.1442
 2013TIP3    H227531   3.993   4.357  15.440 -1.4622 -0.3803  1.2873
 2014TIP3   OH227532   3.078   3.172   0.272 -0.0883  0.7042  0.5222
 2014TIP3    H127533   3.157   3.184   0.325 -0.4733 -0.8461  1.5250
 2014TIP3    H227534   3.058   3.079   0.279 -1.6559  0.9407 -0.2295
 2015TIP3   OH227535   3.648   2.128  11.951 -0.5619  0.3686 -0.1129
 2015TIP3    H127536   3.584   2.100  11.885  0.4610 -1.5554 -0.3723
 2015TIP3    H227537   3.611   2.098  12.034  0.0066 -0.8846 -0.2783
 2016TIP3   OH227538   2.245   6.704  16.826 -0.1269 -0.2932  0.1793
 2016TIP3    H127539   2.339   6.691  16.824 -0.4437 -2.9437 -0.2262
 2016TIP3    H227540   2.207   6.617  16.817 -2.6426  0.5428  1.4622
 2017TIP3   OH227541   4.902   2.911  15.959 -0.0875  0.0556 -0.1876
 2017TIP3    H127542   4.835   2.844  15.972 -0.3377  0.2674 -0.3613
 2017TIP3    H227543   4.917   2.912  15.864  0.6193 -0.4252 -0.0842
 2018TIP3   OH227544   3.164   2.518  12.937  0.1607 -0.5699  0.7442
 2018TIP3    H127545   3.195   2.559  13.017  2.1602  0.5519 -0.5165
 2018TIP3    H227546   3.136   2.431  12.963  1.4147 -0.4745  2.5494
 2019TIP3   OH227547   6.100   1.244  13.950 -0.2284  0.2497 -0.2371
 2019TIP3    H127548   6.143   1.226  14.033 -0.5174 -0.5590 -0.2515
 2019TIP3    H227549   6.171   1.251  13.886 -0.0683 -0.3438 -0.1323
 2020TIP3   OH227550   2.669   2.643  11.856  0.2659 -0.4148  0.5161
 2020TIP3    H127551   2.586   2.612  11.819  0.5963  0.0453 -0.6842
 2020TIP3    H227552   2.664   2.622  11.949 -0.8665 -1.1012  0.3188
 2021TIP3   OH227553   2.641   4.797  14.922 -0.4161  0.0037  0.3007
 2021TIP3    H127554   2.686   4.850  14.988  0.2560 -0.4515  0.2286
 2021TIP3    H227555   2.586   4.738  14.973 -0.9378  0.5614  0.3930
 2022TIP3   OH227556   5.175   0.145  10.990 -0.2377  0.1095  0.8548
 2022TIP3    H127557   5.270   0.140  10.992 -0.3087 -1.6457  1.2078
 2022TIP3    H227558   5.155   0.201  10.915  1.0362 -1.5421 -0.8102
 2023TIP3   OH227559   4.637   3.130   2.974  0.2227  0.5568  0.3080
 2023TIP3    H127560   4.572   3.193   3.004 -0.5797  0.7395 -1.7123
 2023TIP3    H227561   4.704   3.182   2.931  0.1656  0.1344 -0.3078
 2024TIP3   OH227562   5.693   0.482  17.195 -0.0334 -0.6506  0.1319
 2024TIP3    H127563   5.756   0.543  17.158 -0.7273  0.7569  1.1734
 2024TIP3    H227564   5.727   0.463  17.283 -0.9474  0.0316  0.6602
 2025TIP3   OH227565   1.569   4.472   0.586 -0.1915  0.2512  0.0652
 2025TIP3    H127566   1.500   4.409   0.563 -2.0445  1.8322  0.9720
 2025TIP3    H227567   1.599   4.507   0.502 -1.9353  0.9272 -0.3312
 2026TIP3   OH227568   4.678   2.116   1.268 -0.2539  0.5951  0.0948
 2026TIP3    H127569   4.702   2.112   1.175 -1.1641  0.6255 -0.1523
 2026TIP3    H227570   4.601   2.061   1.275 -1.9991  2.9094  0.2284
 2027TIP3   OH227571   1.385   0.681  11.389  0.0069  0.6196 -0.3380
 2027TIP3    H127572   1.391   0.719  11.301  1.3196  0.8947 -0.1510
 2027TIP3    H227573   1.470   0.640  11.403 -0.8354 -1.0652  0.0930
 2028TIP3   OH227574   2.284   3.915  11.710 -0.5341 -0.1227 -0.4393
 2028TIP3    H127575   2.375   3.935  11.733 -0.8763  0.6079  0.3141
 2028TIP3    H227576   2.238   3.913  11.793 -0.8813 -2.3904 -0.6233
 2029TIP3   OH227577   6.405   1.997   4.841  0.0532 -0.6908  0.2203
 2029TIP3    H127578   6.346   2.032   4.908  0.2830 -0.5320  0.3409
 2029TIP3    H227579   6.492   2.007   4.879  0.2583  0.1666 -0.4370
 2030TIP3   OH227580   1.147   4.999  11.149 -0.2990 -0.6812 -0.1846
 2030TIP3    H127581   1.227   4.984  11.200 -0.3464 -1.9465 -0.4634
 2030TIP3    H227582   1.131   5.093  11.158  1.6909 -0.2352 -0.8141
 2031TIP3   OH227583   4.659   2.884   0.022 -0.6078  0.0486 -0.0339
 2031TIP3    H127584   4.629   2.887  -0.069  1.3367  0.4277 -0.7032
 2031TIP3    H227585   4.582   2.856   0.071 -1.9811  0.7426 -1.6645
 2032TIP3   OH227586   5.259   1.399   3.203  0.5393  0.6469  0.2216
 2032TIP3    H127587   5.337   1.349   3.225 -0.3675 -0.4865  0.9609
 2032TIP3    H227588   5.273   1.427   3.113  0.9434 -1.2556 -0.3542
 2033TIP3   OH227589   1.810   1.145  13.168 -0.2255 -0.4072 -0.3156
 2033TIP3    H127590   1.752   1.106  13.103 -1.4127 -1.2653  1.2198
 2033TIP3    H227591   1.763   1.222  13.199 -0.6508 -1.1938  1.0488
 2034TIP3   OH227592   1.071   4.404  12.531  0.3964 -0.4295  0.3860
 2034TIP3    H127593   0.998   4.355  12.492 -0.0815 -1.0614  1.9956
 2034TIP3    H227594   1.042   4.496  12.529  0.2896 -0.4778 -0.5104
 2035TIP3   OH227595   5.782   3.971   0.307  0.0840  0.4677 -0.0934
 2035TIP3    H127596   5.779   4.036   0.377  0.7936  0.1126  0.2796
 2035TIP3    H227597   5.869   3.932   0.314 -1.0347 -2.0269  1.0516
 2036TIP3   OH227598   5.548   5.704  11.291  0.1691 -0.4404  0.1856
 2036TIP3    H127599   5.453   5.705  11.304  0.1154 -2.2962  0.2289
 2036TIP3    H227600   5.560   5.676  11.200  0.6969  2.5561 -0.7872
 2037TIP3   OH227601   1.435   5.331  11.069 -0.1295  0.3832  0.1968
 2037TIP3    H127602   1.474   5.250  11.037  0.9776  0.4460  1.3325
 2037TIP3    H227603   1.421   5.384  10.990 -0.7853 -0.8513 -0.5485
 2038TIP3   OH227604   6.389   1.062   4.716  0.1702 -0.7976 -0.6890
 2038TIP3    H127605   6.301   1.026   4.709  0.2017 -0.9311 -0.4057
 2038TIP3    H227606   6.434   1.033   4.637 -0.0048 -0.8205 -0.7805
 2039TIP3   OH227607   1.241   6.763  12.285  0.4690 -0.3587  0.1495
 2039TIP3    H127608   1.313   6.783  12.226  0.3661 -0.9848 -0.1978
 2039TIP3    H227609   1.169   6.736  12.227 -0.3089  0.9973  0.4307
 2040TIP3   OH227610   0.702   0.407  16.869  0.0808 -0.4013  0.4175
 2040TIP3    H127611   0.751   0.464  16.811 -0.2635 -1.0742 -0.5563
 2040TIP3    H227612   0.664   0.340  16.812 -1.8221 -0.0301  1.1486
 2041TIP3   OH227613   5.353   0.268  12.125 -0.2615 -0.4247 -0.2281
 2041TIP3    H127614   5.286   0.326  12.089 -0.4736 -0.7612 -0.3763
 2041TIP3    H227615   5.349   0.283  12.220 -0.1889 -0.0644 -0.2799
 2042TIP3   OH227616   6.048   5.478   0.721  0.6102 -0.0255  0.6366
 2042TIP3    H127617   6.032   5.385   0.707  1.0479 -0.3233  1.9592
 2042TIP3    H227618   6.058   5.514   0.633  2.0177 -1.5183  0.1277
 2043TIP3   OH227619   3.039   1.784   0.674 -0.0189  0.0075 -0.3815
 2043TIP3    H127620   2.978   1.838   0.623  0.6905 -1.0458 -2.5022
 2043TIP3    H227621   3.061   1.837   0.750 -2.2450  1.1045 -0.4166
 2044TIP3   OH227622   2.163   6.366  11.128  0.2374 -0.5677  0.6525
 2044TIP3    H127623   2.233   6.348  11.190  1.1826 -0.4615 -0.3538
 2044TIP3    H227624   2.195   6.331  11.045 -1.9682 -2.8704  0.6346
 2045TIP3   OH227625   4.456   3.201  14.847  0.2458 -0.0338  0.1256
 2045TIP3    H127626   4.435   3.269  14.783  1.7396  0.2501 -0.1075
 2045TIP3    H227627   4.492   3.129  14.795  0.4048 -0.2514  0.5289
 2046TIP3   OH227628   2.886   2.005   0.579 -0.2462  0.0451  0.1614
 2046TIP3    H127629   2.793   1.982   0.588 -1.2407  2.6852 -1.8136
 2046TIP3    H227630   2.895   2.031   0.487  1.9390  1.7864  0.7813
 2047TIP3   OH227631   1.456   0.641  13.496  0.1259  0.5387 -0.0158
 2047TIP3    H127632   1.404   0.672  13.422  0.9707 -2.4547 -2.0271
 2047TIP3    H227633   1.396   0.584  13.545  0.4809 -0.1250 -0.3371
 2048TIP3   OH227634   5.611   0.590  11.086  0.2821 -0.5550 -0.4705
 2048TIP3    H127635   5.539   0.621  11.031  0.8483  0.9401 -0.4188
 2048TIP3    H227636   5.680   0.655  11.074  1.1783 -1.3028  0.4252
 2049TIP3   OH227637   4.763   2.059  13.061 -0.4969  0.0472  0.7558
 2049TIP3    H127638   4.712   2.068  12.981  1.3555  0.5680 -0.4422
 2049TIP3    H227639   4.722   1.987  13.108 -1.7164 -0.1914 -0.5947
 2050TIP3   OH227640   2.283   4.089   6.191 -0.1725 -0.0048 -0.0177
 2050TIP3    H127641   2.365   4.084   6.142  0.4318 -4.0188  1.0926
 2050TIP3    H227642   2.308   4.127   6.276 -0.2913  2.2330 -0.9034
 2051TIP3   OH227643   4.281   2.287   0.275 -0.1961 -0.1469 -0.4722
 2051TIP3    H127644   4.195   2.246   0.265 -1.2388  1.9416 -0.5872
 2051TIP3    H227645   4.264   2.381   0.265  1.9571  0.3997  0.4523
 2052TIP3   OH227646   4.287   5.999  15.481  0.2765 -0.3054  0.3388
 2052TIP3    H127647   4.276   5.911  15.445 -0.1209  0.2922 -1.0928
 2052TIP3    H227648   4.371   6.029  15.445 -1.2468  1.2323 -2.3072
 2053TIP3   OH227649   3.559   0.059   0.509 -0.6185  0.1063 -0.1369
 2053TIP3    H127650   3.595   0.018   0.588 -0.1047 -0.0301 -0.4333
 2053TIP3    H227651   3.473   0.091   0.535 -0.0053  1.0608  0.8023
 2054TIP3   OH227652   5.792   6.697  14.447  0.0814  0.1549  0.4479
 2054TIP3    H127653   5.717   6.719  14.392  0.2715 -1.3578 -0.4980
 2054TIP3    H227654   5.762   6.713  14.536 -1.5185 -0.7558  0.1159
 2055TIP3   OH227655   0.351   5.051  14.231 -0.3042 -0.9188 -0.1209
 2055TIP3    H127656   0.275   5.108  14.224 -0.2514 -0.7198  0.8151
 2055TIP3    H227657   0.418   5.105  14.274 -0.2412 -1.6710  0.7456
 2056TIP3   OH227658   5.414   2.040   3.943 -0.5025  0.5525  0.2680
 2056TIP3    H127659   5.353   2.082   3.883 -0.4217  1.9178  1.1187
 2056TIP3    H227660   5.500   2.049   3.900 -0.5875  0.5933  0.1063
 2057TIP3   OH227661   4.064   0.625   5.051  0.1323  0.0491 -0.4409
 2057TIP3    H127662   4.089   0.675   5.129 -0.9322 -2.0422  1.3814
 2057TIP3    H227663   3.983   0.665   5.022 -0.0211  0.2113  0.1918
 2058TIP3   OH227664   0.030   5.300   5.950 -0.5078  1.0867  0.7445
 2058TIP3    H127665  -0.001   5.255   5.871 -0.8899 -0.3269  1.6505
 2058TIP3    H227666  -0.001   5.245   6.022  1.4310  1.3083  1.8168
 2059TIP3   OH227667   3.620   1.801  16.524  0.2535  0.4454 -0.3666
 2059TIP3    H127668   3.541   1.815  16.473 -0.4072 -0.8144  0.2499
 2059TIP3    H227669   3.691   1.801  16.460 -0.5783 -1.4067 -1.3676
 2060TIP3   OH227670   4.515   2.051  16.893  0.4218 -0.8005 -0.6610
 2060TIP3    H127671   4.567   2.004  16.958  0.1156 -2.1189 -1.3190
 2060TIP3    H227672   4.576   2.114  16.854  0.6526 -0.1106  0.7473
 2061TIP3   OH227673   2.303   4.240   3.097  0.1129 -0.2931 -0.2273
 2061TIP3    H127674   2.285   4.160   3.047  1.1459 -1.2227  0.8408
 2061TIP3    H227675   2.289   4.311   3.034  1.0867 -1.4030 -1.7589
 2062TIP3   OH227676   6.522   0.114   2.257 -0.4505 -0.4588 -0.2693
 2062TIP3    H127677   6.544   0.021   2.267 -0.8077 -0.6685 -1.2445
 2062TIP3    H227678   6.428   0.114   2.239 -0.3565  0.0450 -0.7917
 2063TIP3   OH227679   6.389   6.615  15.653 -0.1930 -0.5380  0.0167
 2063TIP3    H127680   6.425   6.568  15.578  1.5625 -0.1321  0.5518
 2063TIP3    H227681   6.456   6.679  15.676 -1.1170  0.0147  1.3320
 2064TIP3   OH227682   4.850   1.911  14.742 -0.4009 -0.1331  0.3373
 2064TIP3    H127683   4.868   1.817  14.740  0.4976  0.0326 -0.9417
 2064TIP3    H227684   4.813   1.927  14.828 -0.0124 -1.5625  0.7927
 2065TIP3   OH227685   5.734   6.064   1.962  0.6565 -0.1408  0.1535
 2065TIP3    H127686   5.789   6.027   2.031  0.5928 -1.8571 -0.6550
 2065TIP3    H227687   5.664   6.110   2.009  0.8811 -0.8513  1.2254
 2066TIP3   OH227688   2.105   2.207   3.547 -0.3988  0.2571  0.4177
 2066TIP3    H127689   2.131   2.117   3.563  0.4605  0.4093 -0.0236
 2066TIP3    H227690   2.015   2.201   3.516 -0.3245 -0.4541  0.3221
 2067TIP3   OH227691   1.639   3.422  14.474 -0.1185 -0.4001  0.1999
 2067TIP3    H127692   1.544   3.432  14.487 -0.3235  0.2687 -1.5786
 2067TIP3    H227693   1.647   3.374  14.392  1.0977 -0.5483  0.3915
 2068TIP3   OH227694   0.413   5.263   1.783 -0.4264 -1.0099  0.0169
 2068TIP3    H127695   0.346   5.320   1.822 -1.1703 -2.1552  0.4750
 2068TIP3    H227696   0.420   5.189   1.844 -0.4395 -2.0495 -1.1978
 2069TIP3   OH227697   2.526   2.780   1.297  0.3294  0.1295 -0.1566
 2069TIP3    H127698   2.499   2.689   1.309  0.6836  0.1666  1.0492
 2069TIP3    H227699   2.621   2.777   1.299  0.4326  0.2838 -2.2202
 2070TIP3   OH227700   3.041   4.409   3.999  0.0138 -0.0562  0.1982
 2070TIP3    H127701   2.998   4.428   4.082 -0.8624  0.6305 -0.3931
 2070TIP3    H227702   3.103   4.339   4.019  2.6300  2.5771  2.2840
 2071TIP3   OH227703   3.171   0.054  12.463 -0.2884 -0.3201  0.2635
 2071TIP3    H127704   3.117   0.018  12.393 -0.3379  1.0915 -0.4613
 2071TIP3    H227705   3.258   0.017  12.448 -0.7565 -1.6243  0.6934
 2072TIP3   OH227706   1.940   2.447  12.733  0.4997  1.0370 -0.1370
 2072TIP3    H127707   1.897   2.527  12.701  0.0812  1.3395  1.1189
 2072TIP3    H227708   1.881   2.414  12.801  0.3878 -0.6690 -1.0080
 2073TIP3   OH227709   3.231   4.974  14.755  0.3972 -0.2460 -0.0635
 2073TIP3    H127710   3.283   4.912  14.806 -0.3222 -1.0793 -0.3253
 2073TIP3    H227711   3.245   4.948  14.664  1.5181  1.1142 -0.3080
 2074TIP3   OH227712   1.353   6.137   4.147 -0.2625  0.2859  0.1763
 2074TIP3    H127713   1.300   6.207   4.185  3.7813  2.1174  3.1645
 2074TIP3    H227714   1.386   6.089   4.223  2.2828 -0.7397 -1.4606
 2075TIP3   OH227715   5.273   3.103  10.980 -0.3160  0.2514  0.1358
 2075TIP3    H127716   5.202   3.158  10.947  1.4032  2.6805  0.1643
 2075TIP3    H227717   5.347   3.163  10.989  0.9674 -1.5306  2.7933
 2076TIP3   OH227718   5.383   3.844  13.275  0.7497  1.2807 -0.3227
 2076TIP3    H127719   5.350   3.932  13.260 -2.3155  0.3057 -0.1480
 2076TIP3    H227720   5.338   3.790  13.209 -2.2095 -0.9543  3.1100
 2077TIP3   OH227721   5.746   1.222  16.609  0.3063 -0.1008 -0.0386
 2077TIP3    H127722   5.793   1.150  16.567 -0.0508 -0.4536  0.1656
 2077TIP3    H227723   5.688   1.256  16.541  0.2913 -0.1708 -0.0591
 2078TIP3   OH227724   5.939   1.358   6.401 -0.2979 -0.1652 -0.7319
 2078TIP3    H127725   5.872   1.305   6.358  0.1632 -0.3428 -1.2483
 2078TIP3    H227726   5.890   1.424   6.450 -0.8289  0.3522 -1.9283
 2079TIP3   OH227727   3.948   5.747   6.666  0.2881 -0.7443 -0.5430
 2079TIP3    H127728   3.939   5.686   6.739 -0.2186  1.0936  1.0035
 2079TIP3    H227729   3.869   5.732   6.613 -1.5128  0.6506  1.5386
 2080TIP3   OH227730   4.311   0.155   6.116  0.0676  0.0192 -0.1096
 2080TIP3    H127731   4.264   0.105   6.183  0.5011 -1.4695 -0.8658
 2080TIP3    H227732   4.270   0.241   6.116 -2.7086 -1.2047 -0.7450
 2081TIP3   OH227733   4.287   6.699  15.975  0.6035 -0.2816  0.0019
 2081TIP3    H127734   4.281   6.748  16.058 -0.8684  1.5984 -1.1252
 2081TIP3    H227735   4.343   6.753  15.920 -1.1645  0.3176 -1.3120
 2082TIP3   OH227736   1.293   1.690  12.377 -0.5953 -0.2962 -0.1947
 2082TIP3    H127737   1.376   1.643  12.390 -0.6438 -0.4610 -0.4726
 2082TIP3    H227738   1.299   1.726  12.289 -0.1207  1.1186  0.3895
 2083TIP3   OH227739   4.735   0.820   2.161  0.0119 -0.3895  0.1250
 2083TIP3    H127740   4.650   0.847   2.197  0.5873 -0.6016  1.7345
 2083TIP3    H227741   4.789   0.899   2.166 -0.0808 -0.2510 -0.9082
 2084TIP3   OH227742   0.338   1.309   2.790  0.2781  0.3089  0.0128
 2084TIP3    H127743   0.302   1.265   2.713  1.9976 -1.1599  0.0012
 2084TIP3    H227744   0.310   1.400   2.781 -0.9355 -0.1777 -1.4730
 2085TIP3   OH227745   1.312   4.594   3.970 -0.2957 -0.3087 -0.4709
 2085TIP3    H127746   1.347   4.510   4.001  1.6735  0.1509 -1.2760
 2085TIP3    H227747   1.264   4.572   3.890 -1.8730 -0.9514  0.6093
 2086TIP3   OH227748   6.653   1.266  15.680 -0.1440 -0.2705  0.0345
 2086TIP3    H127749   6.587   1.297  15.741 -0.7065  0.5598 -0.9659
 2086TIP3    H227750   6.604   1.229  15.607  0.4721  0.3158 -0.7046
 2087TIP3   OH227751   6.657   0.662  16.598 -0.1017  0.0828 -0.5605
 2087TIP3    H127752   6.679   0.755  16.587 -1.2780  0.3398 -0.8841
 2087TIP3    H227753   6.739   0.616  16.580  0.6055  1.0776  0.0183
 2088TIP3   OH227754   1.313   5.388  15.934 -0.7506  0.3545 -0.1607
 2088TIP3    H127755   1.257   5.462  15.955 -2.1933 -0.6833 -0.1739
 2088TIP3    H227756   1.348   5.408  15.847 -1.3584  0.8978 -0.2884
 2089TIP3   OH227757   2.922   6.687   5.449  0.4869 -0.1797 -0.1063
 2089TIP3    H127758   2.872   6.684   5.530  2.0563 -2.1867  0.8880
 2089TIP3    H227759   3.009   6.717   5.476  0.7069  0.2510 -1.2487
 2090TIP3   OH227760   2.241   5.536   5.053 -0.8331 -0.6946  0.8219
 2090TIP3    H127761   2.278   5.533   4.965 -0.0748  0.0266  1.1021
 2090TIP3    H227762   2.195   5.452   5.063 -1.3405 -0.5885 -0.4245
 2091TIP3   OH227763   2.256   1.899   4.089 -0.2068  0.3469  0.3846
 2091TIP3    H127764   2.179   1.924   4.140 -0.7944  1.0176 -0.7795
 2091TIP3    H227765   2.256   1.960   4.015  0.7630 -0.4187 -0.2737
 2092TIP3   OH227766   5.964   2.431   5.017  0.2132  0.2913  0.4283
 2092TIP3    H127767   6.010   2.371   5.076 -0.6277 -0.2218  0.5837
 2092TIP3    H227768   6.028   2.452   4.949  1.4300  1.4231  1.8530
 2093TIP3   OH227769   6.302   6.296  14.276 -0.4970  0.3726 -0.3334
 2093TIP3    H127770   6.264   6.363  14.218 -0.7421 -0.3403 -1.0107
 2093TIP3    H227771   6.357   6.346  14.336 -0.8349  1.2113 -0.6942
 2094TIP3   OH227772   0.713   2.478   0.585  0.1903 -0.7695 -0.2206
 2094TIP3    H127773   0.721   2.509   0.675 -0.5130 -1.3076  0.0348
 2094TIP3    H227774   0.681   2.388   0.593  0.5837 -0.9947 -0.9966
 2095TIP3   OH227775   5.976   5.097  16.183 -0.0158 -0.1931 -0.1039
 2095TIP3    H127776   5.912   5.166  16.202 -1.3250 -0.6659 -2.4029
 2095TIP3    H227777   5.925   5.016  16.186  0.9529 -0.8153  0.0516
 2096TIP3   OH227778   4.422   2.419  12.820 -0.5275 -0.0578 -0.1315
 2096TIP3    H127779   4.451   2.504  12.789 -0.3862  0.0358  0.2533
 2096TIP3    H227780   4.500   2.363  12.814 -0.5136 -0.0531  0.0088
 2097TIP3   OH227781   5.330   4.842   3.560  0.7629 -0.1068 -0.4912
 2097TIP3    H127782   5.340   4.758   3.514  0.8035 -0.3791  0.0119
 2097TIP3    H227783   5.314   4.818   3.651 -1.4145  0.3602 -0.6930
 2098TIP3   OH227784   3.086   3.487   4.029  0.1301  0.1574 -0.1944
 2098TIP3    H127785   3.009   3.469   4.084 -1.3769 -0.2985 -2.3334
 2098TIP3    H227786   3.152   3.424   4.058 -1.4023 -1.6096 -0.3775
 2099TIP3   OH227787   1.831   6.727  16.381 -0.0386 -0.3039 -0.3906
 2099TIP3    H127788   1.880   6.805  16.407  1.9451 -1.1135 -1.4204
 2099TIP3    H227789   1.898   6.659  16.373 -1.4843 -1.7197 -1.0339
 2100TIP3   OH227790   2.185   5.833  16.056 -0.1069  0.3375  0.2318
 2100TIP3    H127791   2.123   5.892  16.101  0.1311 -0.5528  1.7683
 2100TIP3    H227792   2.160   5.746  16.085  2.9140  0.0133  2.3381
 2101TIP3   OH227793   6.281   5.608  15.963 -0.0928  0.2220  0.1049
 2101TIP3    H127794   6.190   5.579  15.969 -0.3103  1.1160  2.2822
 2101TIP3    H227795   6.283   5.668  15.888 -1.2490  0.0330 -0.0870
 2102TIP3   OH227796   4.952   5.941   4.601 -0.5039 -0.0519 -0.1507
 2102TIP3    H127797   5.008   5.875   4.560 -0.0544  0.1990  0.0541
 2102TIP3    H227798   4.866   5.899   4.606  0.4546 -2.0226  3.1111
 2103TIP3   OH227799   5.710   2.531  14.042  0.5495 -0.9719  0.5225
 2103TIP3    H127800   5.661   2.451  14.060 -1.3063 -0.0327 -0.0585
 2103TIP3    H227801   5.751   2.516  13.957 -0.4748 -1.0219  0.0213
 2104TIP3   OH227802   1.247   0.785   2.569  0.3668  0.0185  0.6053
 2104TIP3    H127803   1.244   0.876   2.599  0.1496 -0.5056  2.2685
 2104TIP3    H227804   1.309   0.742   2.629  2.7809 -0.3304 -1.9400
 2105TIP3   OH227805   3.963   0.898  12.615 -0.5322  0.0550 -0.3904
 2105TIP3    H127806   3.876   0.928  12.589 -0.8019 -0.4634 -0.1056
 2105TIP3    H227807   3.992   0.962  12.681 -0.7775  0.1177 -0.3428
 2106TIP3   OH227808   4.432   4.859   3.380  0.0968  0.2637 -0.8444
 2106TIP3    H127809   4.439   4.825   3.291  1.3525 -0.2496 -0.5716
 2106TIP3    H227810   4.495   4.931   3.383  2.0448 -1.3683  0.3382
 2107TIP3   OH227811   5.148   4.841  14.771  0.0675  0.0605 -0.0259
 2107TIP3    H127812   5.069   4.795  14.743 -0.4700  0.5555  0.6420
 2107TIP3    H227813   5.137   4.930  14.739  1.1601 -0.2682 -1.4174
 2108TIP3   OH227814   1.345   3.826  16.879  0.4002 -0.3404  0.3327
 2108TIP3    H127815   1.437   3.799  16.881  0.1956 -1.0294  0.7407
 2108TIP3    H227816   1.305   3.782  16.954  0.1037  1.3127  1.1920
 2109TIP3   OH227817   5.984   5.713   2.156  0.2755 -0.4278 -0.0168
 2109TIP3    H127818   5.957   5.695   2.066 -0.7321 -0.5218  0.3000
 2109TIP3    H227819   6.073   5.677   2.162  0.5496  0.0378 -1.1137
 2110TIP3   OH227820   4.551   6.672  15.734  0.3716  0.4663 -0.0050
 2110TIP3    H127821   4.465   6.667  15.693  1.0106 -2.1107 -1.2558
 2110TIP3    H227822   4.541   6.737  15.804 -2.2730  0.9874 -0.7650
 2111TIP3   OH227823   2.218   4.409   0.569 -0.8252  0.0411 -0.2137
 2111TIP3    H127824   2.185   4.421   0.480  3.1294  1.3897 -1.7128
 2111TIP3    H227825   2.290   4.346   0.559 -0.7699 -0.3759  2.2132
 2112TIP3   OH227826   3.388   3.914  10.157 -0.4178 -0.5635  0.5674
 2112TIP3    H127827   3.407   3.822  10.139 -0.5530 -0.4587 -0.1315
 2112TIP3    H227828   3.474   3.955  10.164 -0.2967 -0.0933 -2.5685
 2113TIP3   OH227829   4.836   5.457  15.480 -0.2349  0.1953  0.0617
 2113TIP3    H127830   4.921   5.484  15.445  0.0607 -0.8274 -0.0287
 2113TIP3    H227831   4.788   5.426  15.403  0.3103 -1.7873  0.4664
 2114TIP3   OH227832   1.234   0.792  13.397  0.2245 -0.6724  0.7275
 2114TIP3    H127833   1.189   0.734  13.335  2.1940 -1.8085  0.2568
 2114TIP3    H227834   1.207   0.762  13.483 -1.1145 -0.2861  0.4621
 2115TIP3   OH227835   2.865   0.695   1.085 -0.1552 -0.3938 -0.4994
 2115TIP3    H127836   2.826   0.610   1.107  0.3180 -0.9242 -1.5879
 2115TIP3    H227837   2.815   0.725   1.009  0.5445 -0.3431 -0.9461
 2116TIP3   OH227838   3.760   5.167   5.721  0.0953 -0.6125  0.1600
 2116TIP3    H127839   3.823   5.118   5.773 -0.7424 -2.3908 -0.4220
 2116TIP3    H227840   3.702   5.208   5.785  1.3394  0.4305  0.6706
 2117TIP3   OH227841   1.780   0.224   2.618  0.2342 -0.2364  0.7860
 2117TIP3    H127842   1.690   0.230   2.650 -0.0967  1.5005 -0.3316
 2117TIP3    H227843   1.797   0.129   2.613 -1.9685 -0.6587 -0.1142
 2118TIP3   OH227844   5.357   0.553  17.134 -0.0977 -0.2341  0.5222
 2118TIP3    H127845   5.362   0.580  17.042  0.0460 -2.0595 -0.0605
 2118TIP3    H227846   5.264   0.558  17.155 -0.1323  0.1987  0.2786
 2119TIP3   OH227847   4.853   0.732   0.901  0.5274 -0.1953 -0.3306
 2119TIP3    H127848   4.804   0.650   0.896  1.6729 -0.8657 -1.1961
 2119TIP3    H227849   4.866   0.747   0.994  1.4491 -1.7340 -0.1775
 2120TIP3   OH227850   0.017   5.928  15.455 -0.6049  0.2365  0.1016
 2120TIP3    H127851  -0.074   5.898  15.454 -0.5209 -0.0280  0.2859
 2120TIP3    H227852   0.069   5.848  15.468 -0.3309  0.3498 -0.2932
 2121TIP3   OH227853   1.133   4.871   4.005 -0.5223 -0.1849  0.5241
 2121TIP3    H127854   1.129   4.911   4.092 -0.6969 -0.1850  0.5163
 2121TIP3    H227855   1.066   4.803   4.007  1.4332 -2.2444  1.4162
 2122TIP3   OH227856   2.364   6.476   3.054  0.1853 -0.1453 -0.2825
 2122TIP3    H127857   2.287   6.503   3.103  1.6504  1.1759  1.4327
 2122TIP3    H227858   2.418   6.555   3.047  0.2500 -0.3431 -3.8273
 2123TIP3   OH227859   1.122   3.285  16.584  0.0255 -0.6870  0.0828
 2123TIP3    H127860   1.081   3.324  16.507  0.4810  0.9287  0.6208
 2123TIP3    H227861   1.101   3.191  16.577 -1.6892 -0.2770 -0.9007
 2124TIP3   OH227862   6.181   1.694   2.922 -0.2523 -0.2696  0.2422
 2124TIP3    H127863   6.115   1.705   2.990 -0.0480 -1.6377  0.7047
 2124TIP3    H227864   6.259   1.739   2.955 -0.6943  0.6165  0.0803
 2125TIP3   OH227865   2.560   2.490   2.532 -0.0351  0.4511  0.5083
 2125TIP3    H127866   2.509   2.412   2.554  0.2011  0.6115  1.6735
 2125TIP3    H227867   2.548   2.500   2.438 -0.5847 -0.6241  0.4459
 2126TIP3   OH227868   3.046   3.460  14.719  0.3848 -0.0428  0.1202
 2126TIP3    H127869   3.085   3.403  14.786 -0.5111  0.6239  1.2498
 2126TIP3    H227870   2.999   3.526  14.769 -1.3796 -0.2431 -1.1804
 2127TIP3   OH227871   6.691   5.848   4.382  0.0978 -0.2139  0.2487
 2127TIP3    H127872   6.667   5.763   4.346 -0.7505  0.3129 -0.4704
 2127TIP3    H227873   6.610   5.882   4.420 -0.3320  1.4700 -1.9606
 2128TIP3   OH227874   6.066   0.595  12.874 -0.1057 -0.2084  0.1316
 2128TIP3    H127875   6.154   0.630  12.885 -0.5958  0.7889  1.1392
 2128TIP3    H227876   6.030   0.645  12.801 -0.3830  0.5712  0.7826
 2129TIP3   OH227877   3.688   2.696   2.510 -0.0272 -0.3190 -0.0450
 2129TIP3    H127878   3.753   2.709   2.441 -0.9375  3.2911 -0.4107
 2129TIP3    H227879   3.615   2.652   2.466  0.0763  0.4500 -1.0350
 2130TIP3   OH227880   5.741   1.103  11.484 -0.1777  0.1280 -0.4672
 2130TIP3    H127881   5.772   1.018  11.455 -0.7187 -1.0199  2.0693
 2130TIP3    H227882   5.819   1.149  11.513 -0.0829 -0.1787 -0.2358
 2131TIP3   OH227883   1.697   5.246   0.798 -0.8239  0.4258 -0.5082
 2131TIP3    H127884   1.632   5.317   0.803 -0.6123  0.7612 -1.9950
 2131TIP3    H227885   1.702   5.224   0.705  0.3931 -0.3540 -0.2890
 2132TIP3   OH227886   5.432   5.486  14.905  0.3075  0.4217 -0.2949
 2132TIP3    H127887   5.417   5.511  14.996 -0.0406 -0.4522 -0.1064
 2132TIP3    H227888   5.460   5.567  14.863  0.7918  0.7679  0.6540
 2133TIP3   OH227889   5.633   5.871   1.798  0.2609  0.0218 -0.0506
 2133TIP3    H127890   5.724   5.870   1.770  0.2789  0.3970  0.0024
 2133TIP3    H227891   5.629   5.936   1.867  0.2718 -1.0731  1.0243
 2134TIP3   OH227892   1.682   4.110   3.034 -0.3971 -0.3241  0.5596
 2134TIP3    H127893   1.681   4.172   2.960 -3.0434  0.7413  1.3709
 2134TIP3    H227894   1.732   4.035   3.001 -1.8464 -0.1004 -2.5139
 2135TIP3   OH227895   4.161   5.952  11.375 -0.1924 -0.2348  0.7221
 2135TIP3    H127896   4.101   6.000  11.432 -1.2274  0.7301 -1.0608
 2135TIP3    H227897   4.108   5.880  11.340 -0.3934  0.6546 -0.9043
 2136TIP3   OH227898   2.749   5.353   5.979 -0.0247  0.3413  0.1407
 2136TIP3    H127899   2.796   5.272   5.958  2.5123  1.4933  0.9526
 2136TIP3    H227900   2.695   5.330   6.055 -1.8578 -1.3291 -1.5277
 2137TIP3   OH227901   4.818   6.488  15.812  0.3033  0.1352 -0.7368
 2137TIP3    H127902   4.855   6.576  15.808  1.2320 -0.1864  0.2477
 2137TIP3    H227903   4.732   6.496  15.771 -0.8326  2.1370  1.7871
 2138TIP3   OH227904   5.790   1.481   5.659 -0.3651  0.4800 -0.3385
 2138TIP3    H127905   5.731   1.529   5.600  0.1709 -0.1847 -1.4521
 2138TIP3    H227906   5.841   1.425   5.601  0.4122  0.0335  0.7461
 2139TIP3   OH227907   2.401   4.746   4.991  0.2915  0.1431  0.0748
 2139TIP3    H127908   2.355   4.685   4.933 -0.9939  1.5120 -0.4080
 2139TIP3    H227909   2.390   4.710   5.078 -0.8294 -0.0973 -0.1566
 2140TIP3   OH227910   0.635   2.264   3.569 -0.2137  0.3626 -0.1550
 2140TIP3    H127911   0.568   2.208   3.608  1.0800 -1.3493 -0.2428
 2140TIP3    H227912   0.602   2.284   3.481 -0.8283 -0.0830 -0.0273
 2141TIP3   OH227913   6.048   1.513   5.236 -0.3361  0.1417  0.2275
 2141TIP3    H127914   6.124   1.479   5.189  0.0361  0.0661  0.8829
 2141TIP3    H227915   6.084   1.564   5.308 -0.9037  0.3682  0.3574
 2142TIP3   OH227916   0.269   0.466   5.058  0.6314  0.3267 -0.4539
 2142TIP3    H127917   0.255   0.476   5.152 -0.1143 -1.5778 -0.3288
 2142TIP3    H227918   0.259   0.555   5.023 -1.6407  0.7140  0.9566
 2143TIP3   OH227919   3.308   2.229   5.588 -0.4795 -0.6000 -0.3643
 2143TIP3    H127920   3.265   2.310   5.562  0.3246  0.2123  0.7277
 2143TIP3    H227921   3.252   2.192   5.657  1.1181  1.1538  2.0365
 2144TIP3   OH227922   0.186   2.166  15.797 -0.4556  0.4118  0.2227
 2144TIP3    H127923   0.183   2.102  15.868  1.1949  0.0516  0.0096
 2144TIP3    H227924   0.141   2.243  15.832  0.0417  0.1235  1.5314
 2145TIP3   OH227925   4.771   1.854   0.878  0.0555  0.0005  0.0003
 2145TIP3    H127926   4.772   1.791   0.950  0.6768 -0.2930 -0.2554
 2145TIP3    H227927   4.740   1.935   0.919  0.0960 -0.2417  0.5297
 2146TIP3   OH227928   5.798   3.036   1.534  0.1591  0.3221  0.0577
 2146TIP3    H127929   5.875   3.084   1.505 -0.8069  1.7389 -0.2973
 2146TIP3    H227930   5.736   3.043   1.461  0.0457 -1.6733 -0.0830
 2147TIP3   OH227931   5.595   2.285   5.042  0.1304 -0.3734  0.0306
 2147TIP3    H127932   5.570   2.367   5.084  2.4198  1.0699 -1.2581
 2147TIP3    H227933   5.575   2.298   4.950 -0.1829 -1.5890 -0.0964
 2148TIP3   OH227934   3.118   6.459   2.002  0.7710  0.1565 -0.5363
 2148TIP3    H127935   3.122   6.543   1.956  1.2691 -0.7522 -2.2610
 2148TIP3    H227936   3.057   6.407   1.950 -2.4830  0.5214  2.5332
 2149TIP3   OH227937   4.374   0.792  16.030  0.1707 -0.3871 -0.0281
 2149TIP3    H127938   4.414   0.705  16.029 -0.2753 -0.6041  0.6023
 2149TIP3    H227939   4.282   0.776  16.050  0.3407  0.3232  1.4107
 2150TIP3   OH227940   6.022   6.075  12.765  0.7984 -0.2580 -0.2231
 2150TIP3    H127941   6.090   6.131  12.800  0.6448  1.6136 -2.6633
 2150TIP3    H227942   5.943   6.098  12.814  1.4239 -0.8639  1.1111
 2151TIP3   OH227943   1.091   4.881   4.508  0.0832  0.2632 -0.5820
 2151TIP3    H127944   1.015   4.827   4.531 -0.5463  1.1334 -0.5519
 2151TIP3    H227945   1.086   4.955   4.568 -0.2003  1.3437 -1.8793
 2152TIP3   OH227946   5.943   0.015   5.615 -0.2401 -0.0713  0.1448
 2152TIP3    H127947   5.897   0.099   5.618 -1.0617 -0.4294 -1.2498
 2152TIP3    H227948   6.007   0.020   5.686 -0.1821  1.7802  0.0182
 2153TIP3   OH227949   3.344   1.203  12.734 -0.1797  0.6103  0.0512
 2153TIP3    H127950   3.429   1.168  12.760 -0.4737  1.3855  2.2779
 2153TIP3    H227951   3.284   1.128  12.742  0.5564 -0.6711 -4.0225
 2154TIP3   OH227952   1.039   1.067   4.820  0.4204  0.4696 -0.5418
 2154TIP3    H127953   1.030   0.977   4.789  1.2321  0.2862 -0.2736
 2154TIP3    H227954   1.132   1.087   4.809  0.1130  1.5688 -1.3781
 2155TIP3   OH227955   2.375   4.986  12.825  0.1515 -0.0089 -0.4401
 2155TIP3    H127956   2.299   4.928  12.818 -0.2515  0.1472  2.0423
 2155TIP3    H227957   2.340   5.073  12.807  0.4393 -0.2585 -2.5096
 2156TIP3   OH227958   6.481   0.935  11.696 -1.0014  0.9021  0.3498
 2156TIP3    H127959   6.408   0.916  11.636 -1.3615 -0.1421  1.0934
 2156TIP3    H227960   6.559   0.932  11.640 -1.1598 -1.6171  0.1681
 2157TIP3   OH227961   1.336   2.430  15.058  0.0537  0.0710 -0.0007
 2157TIP3    H127962   1.262   2.387  15.102  0.7182 -0.1509  0.9479
 2157TIP3    H227963   1.315   2.425  14.965 -0.2195 -1.7429  0.1137
 2158TIP3   OH227964   1.878   5.373   1.044  0.3738  0.0863  0.1110
 2158TIP3    H127965   1.877   5.277   1.048  0.9785 -0.1740 -3.1998
 2158TIP3    H227966   1.796   5.396   1.002  0.9422  0.8789 -0.6018
 2159TIP3   OH227967   4.336   1.097  15.086  0.3530  0.3721 -0.0979
 2159TIP3    H127968   4.268   1.040  15.052  0.6367 -0.8921  1.2998
 2159TIP3    H227969   4.331   1.086  15.181  0.6564  2.4453  0.1979
 2160TIP3   OH227970   4.369   0.792   1.734  0.3133  0.1880 -0.2889
 2160TIP3    H127971   4.361   0.821   1.825 -1.0585  1.9419 -0.9198
 2160TIP3    H227972   4.463   0.779   1.721  0.6614  1.2237  0.9981
 2161TIP3   OH227973   6.572   2.655   4.787  0.1736 -0.2316 -0.1290
 2161TIP3    H127974   6.549   2.699   4.869 -1.1225 -1.5431  0.2576
 2161TIP3    H227975   6.668   2.653   4.787  0.2078 -0.8861  1.7631
 2162TIP3   OH227976   4.749   1.837  14.996 -0.3657 -0.3058 -0.9190
 2162TIP3    H127977   4.661   1.820  14.964 -0.4748 -1.0346 -0.2363
 2162TIP3    H227978   4.787   1.751  15.010 -0.0127 -0.0054  0.0684
 2163TIP3   OH227979   0.214   1.531  13.885  0.8189 -0.7153 -0.0926
 2163TIP3    H127980   0.144   1.531  13.950 -0.5117  2.2641 -1.3263
 2163TIP3    H227981   0.188   1.466  13.820 -1.5224  1.1033 -1.1117
 2164TIP3   OH227982   6.027   4.419   3.925  0.1976 -0.1709 -0.2865
 2164TIP3    H127983   6.024   4.495   3.867  1.2089 -0.1204 -0.2906
 2164TIP3    H227984   5.940   4.416   3.965  0.2139  1.1291 -0.1081
 2165TIP3   OH227985   4.679   6.446  15.467  0.3577  0.0155  0.3769
 2165TIP3    H127986   4.712   6.386  15.533 -0.4336 -0.7933  0.0613
 2165TIP3    H227987   4.584   6.434  15.470  0.2273  0.8649 -0.0658
 2166TIP3   OH227988   5.118   2.966  16.498  0.5180 -0.7789  0.0604
 2166TIP3    H127989   5.023   2.956  16.486  0.6132 -3.1561  0.7382
 2166TIP3    H227990   5.152   2.977  16.409 -0.4226  0.8479 -0.1384
 2167TIP3   OH227991   6.765   5.188   3.371 -0.4154 -0.5847  0.7245
 2167TIP3    H127992   6.754   5.116   3.310  0.8579 -0.6505  0.5582
 2167TIP3    H227993   6.678   5.228   3.377 -0.5486 -0.5191 -1.1847
 2168TIP3   OH227994   5.832   1.677   4.708  0.7362  0.2616 -0.0005
 2168TIP3    H127995   5.790   1.676   4.794 -0.5210 -1.4735 -0.5878
 2168TIP3    H227996   5.839   1.770   4.686 -0.6313  0.6747  1.1636
 2169TIP3   OH227997   0.560   6.076   0.493 -0.0855 -0.3148  0.5150
 2169TIP3    H127998   0.475   6.119   0.485  0.4114  0.5243 -0.6598
 2169TIP3    H227999   0.540   5.986   0.516 -1.3890 -0.5380 -1.3112
 2170TIP3   OH228000   3.967   0.068   6.081 -0.7037  0.4184 -0.4608
 2170TIP3    H128001   4.014   0.120   6.016  0.2219 -0.4942 -0.5524
 2170TIP3    H228002   3.977   0.117   6.163 -0.1770  0.5784 -0.6187
 2171TIP3   OH228003   1.064   1.042  16.617  0.3057  0.0700 -0.3452
 2171TIP3    H128004   1.061   1.010  16.707 -0.2952 -1.1106 -0.7754
 2171TIP3    H228005   1.015   1.124  16.619 -0.4768 -0.4061  0.2259
 2172TIP3   OH228006   6.111   1.641  13.296  0.2662 -0.2124 -0.7977
 2172TIP3    H128007   6.146   1.594  13.220  1.7093 -2.0164  0.8839
 2172TIP3    H228008   6.093   1.572  13.361  2.3659  1.4597  1.7553
 2173TIP3   OH228009   2.867   2.672   0.359 -0.5117  0.7182 -0.4633
 2173TIP3    H128010   2.906   2.597   0.403 -0.5364 -0.3062 -2.0742
 2173TIP3    H228011   2.935   2.700   0.297 -0.5953  1.8873 -0.0359
 2174TIP3   OH228012   5.851   2.047  12.181 -0.1600 -0.4206 -0.0666
 2174TIP3    H128013   5.812   2.134  12.191 -0.7495 -0.3334 -2.5881
 2174TIP3    H228014   5.779   1.986  12.196 -0.3539 -0.3807 -0.8104
 2175TIP3   OH228015   0.849   4.615  16.570  0.2325 -0.2537 -0.2138
 2175TIP3    H128016   0.784   4.684  16.585  0.3810 -0.2387  0.3745
 2175TIP3    H228017   0.853   4.607  16.474  1.0527  1.3531 -0.3572
 2176TIP3   OH228018   5.874   4.350   4.172  0.0158  0.0099  0.2181
 2176TIP3    H128019   5.870   4.321   4.263 -2.3242 -0.9531 -0.1011
 2176TIP3    H228020   5.860   4.270   4.121  3.0769  0.2068 -1.1319
 2177TIP3   OH228021   5.869   5.430  14.851 -0.1140 -0.6091  0.2586
 2177TIP3    H128022   5.886   5.387  14.935 -0.6503 -1.0587  0.1432
 2177TIP3    H228023   5.955   5.460  14.822  0.5925 -3.0674 -0.4447
 2178TIP3   OH228024   2.955   6.036   4.874 -0.0312 -0.5787  0.2233
 2178TIP3    H128025   2.968   5.948   4.839 -1.2377 -0.6756 -0.0076
 2178TIP3    H228026   2.940   6.091   4.797  2.0514  0.1146  0.2420
 2179TIP3   OH228027   6.600   2.491  12.036  0.3235 -0.4741  0.3198
 2179TIP3    H128028   6.525   2.431  12.041  1.5059 -2.2522 -1.7099
 2179TIP3    H228029   6.665   2.444  11.983  2.2411  1.6856  0.6121
 2180TIP3   OH228030   2.648   0.769  14.761  0.1195 -0.1229 -0.3644
 2180TIP3    H128031   2.656   0.806  14.673 -0.1664  0.0526 -0.3180
 2180TIP3    H228032   2.609   0.839  14.814  3.5909  1.1249  0.7915
 2181TIP3   OH228033   1.995   5.361  15.930 -0.2764 -0.4634 -0.0605
 2181TIP3    H128034   2.032   5.449  15.921 -0.3239 -0.2872  1.2213
 2181TIP3    H228035   1.910   5.367  15.886  0.5060 -0.4263 -1.6288
 2182TIP3   OH228036   1.923   3.537   5.358  0.1599 -0.1867 -0.3737
 2182TIP3    H128037   1.881   3.570   5.279  0.6836  1.5392  0.0351
 2182TIP3    H228038   1.984   3.606   5.384 -1.6173  0.3838  2.8539
 2183TIP3   OH228039   5.982   0.886   6.201  1.0613  0.0553  0.3688
 2183TIP3    H128040   5.953   0.795   6.196  0.8284  0.1864 -1.2641
 2183TIP3    H228041   5.964   0.912   6.291 -2.1681 -0.4602 -0.0157
 2184TIP3   OH228042   2.296   3.116  11.577  0.3674  0.1614  0.3413
 2184TIP3    H128043   2.216   3.067  11.557  0.4319  1.7020 -5.0333
 2184TIP3    H228044   2.364   3.049  11.584 -0.7011 -0.9113  0.8436
 2185TIP3   OH228045   4.863   0.810  16.076  0.8270  0.4038  0.0059
 2185TIP3    H128046   4.951   0.834  16.105  1.0181  1.4039 -1.2809
 2185TIP3    H228047   4.804   0.866  16.127  1.1193  1.6738 -1.0002
 2186TIP3   OH228048   0.461   6.301   3.115  0.0753  0.5357  0.4624
 2186TIP3    H128049   0.391   6.323   3.177 -0.5126 -0.2567  0.1050
 2186TIP3    H228050   0.512   6.382   3.106 -0.5180  0.9909  1.0918
 2187TIP3   OH228051   5.484   4.915  16.492  0.1640 -0.4712 -0.2431
 2187TIP3    H128052   5.496   4.847  16.425  0.8852 -1.2056  0.6119
 2187TIP3    H228053   5.572   4.932  16.525 -0.2133 -0.3258  0.7233
 2188TIP3   OH228054   5.253   4.152   2.730  0.1274 -0.1920  0.5959
 2188TIP3    H128055   5.226   4.079   2.786 -2.3098 -0.0407 -0.2637
 2188TIP3    H228056   5.179   4.212   2.731  0.3888  0.2995 -1.9643
 2189TIP3   OH228057   0.869   4.054  16.696 -0.7478  1.1892  0.0687
 2189TIP3    H128058   0.853   4.005  16.616 -1.1690  2.2151 -0.4859
 2189TIP3    H228059   0.812   4.131  16.690  1.2036  2.7158  0.0505
 2190TIP3   OH228060   4.900   4.990  14.883  0.2151  0.1198 -0.2408
 2190TIP3    H128061   4.965   5.048  14.843 -0.1723  1.5700  1.1259
 2190TIP3    H228062   4.824   4.997  14.826 -0.0094  1.4137  0.1813
 2191TIP3   OH228063   5.321   6.604  16.089 -0.0508 -0.3366 -0.1853
 2191TIP3    H128064   5.374   6.678  16.061  2.6077 -2.2737 -0.7446
 2191TIP3    H228065   5.322   6.544  16.014 -0.7646 -1.6019  0.7706
 2192TIP3   OH228066   5.764   2.957   2.040 -0.2518  0.3997  0.0316
 2192TIP3    H128067   5.805   2.898   2.104  1.0134  0.7300 -0.4443
 2192TIP3    H228068   5.757   2.904   1.960  0.6294  0.7862 -0.3146
 2193TIP3   OH228069   3.612   6.710  16.699  0.2921 -0.6538 -0.2933
 2193TIP3    H128070   3.564   6.628  16.688  1.4894 -1.5401  0.7944
 2193TIP3    H228071   3.680   6.707  16.633  0.4578 -0.6292 -0.1248
 2194TIP3   OH228072   2.950   0.928   0.691 -0.3106  0.0282 -0.1890
 2194TIP3    H128073   2.900   0.883   0.759  1.1720 -0.6864  0.4923
 2194TIP3    H228074   2.990   1.002   0.737 -0.2823  0.2531 -0.5757
 2195TIP3   OH228075   3.831   2.504   2.252  0.1933  0.3738 -0.0799
 2195TIP3    H128076   3.744   2.470   2.273  0.2853 -0.2462 -0.6768
 2195TIP3    H228077   3.869   2.528   2.337 -1.3602  2.6706  0.0796
 2196TIP3   OH228078   5.449   4.409  16.662 -0.1665  0.5589  0.0118
 2196TIP3    H128079   5.370   4.400  16.608 -0.0489  0.6243 -0.1705
 2196TIP3    H228080   5.500   4.330  16.642  0.0812  0.7990 -0.3082
 2197TIP3   OH228081   4.844   2.602   4.219  0.2258 -0.4552 -0.1491
 2197TIP3    H128082   4.808   2.513   4.216 -0.1045 -0.3193 -0.3002
 2197TIP3    H228083   4.840   2.625   4.312  0.2118 -0.5563 -0.1239
 2198TIP3   OH228084   4.227   0.635   0.541 -0.3424 -1.0508  0.0167
 2198TIP3    H128085   4.241   0.556   0.489  2.0514  0.4896 -1.8942
 2198TIP3    H228086   4.264   0.613   0.627  1.3333 -1.7339 -0.8177
 2199TIP3   OH228087   1.807   5.225  16.650  0.3605  0.2013 -0.2654
 2199TIP3    H128088   1.822   5.246  16.557 -0.6227 -0.1442 -0.5109
 2199TIP3    H228089   1.868   5.154  16.668  0.8791  0.5764 -0.5213
 2200TIP3   OH228090   3.053   5.615  13.296 -0.4730  0.5836  0.6836
 2200TIP3    H128091   3.102   5.585  13.220 -1.3370  2.4850 -0.7169
 2200TIP3    H228092   3.114   5.672  13.343 -0.0626 -0.2914  1.2378
 2201TIP3   OH228093   1.759   1.245  15.676 -0.6521 -0.4261  0.4567
 2201TIP3    H128094   1.850   1.222  15.657 -0.3933 -0.1903  1.3246
 2201TIP3    H228095   1.766   1.309  15.747 -1.3362  2.2622 -1.7382
 2202TIP3   OH228096   4.648   0.686  14.961 -0.2705 -0.1926  0.2854
 2202TIP3    H128097   4.597   0.747  14.906 -0.0743 -0.3013 -0.0226
 2202TIP3    H228098   4.658   0.731  15.044  0.5932  0.5685 -0.2079
 2203TIP3   OH228099   3.348   0.577  17.111 -0.0358 -0.1741  0.4952
 2203TIP3    H128100   3.368   0.561  17.019  0.3543  0.9326  0.3776
 2203TIP3    H228101   3.287   0.507  17.135 -0.3350 -0.3225 -0.6617
 2204TIP3   OH228102   3.568   6.059   6.441  0.5035 -0.1981 -0.3732
 2204TIP3    H128103   3.482   6.100   6.431  0.6725  0.8355  1.7179
 2204TIP3    H228104   3.584   6.060   6.536  3.3168  0.8030 -0.7466
 2205TIP3   OH228105   0.977   6.222   2.115 -0.1687 -0.0253  0.3716
 2205TIP3    H128106   0.901   6.268   2.079  0.3346  0.6447  0.1485
 2205TIP3    H228107   0.951   6.199   2.204 -2.2116 -3.4875 -0.9270
 2206TIP3   OH228108   1.580   2.428   2.288  0.0752 -0.1556  0.1908
 2206TIP3    H128109   1.565   2.490   2.217  1.3103  0.6772  0.6159
 2206TIP3    H228110   1.670   2.397   2.274  0.3481  0.0371  1.3819
 2207TIP3   OH228111   4.116   4.025   3.393  0.5383 -0.2087 -0.3762
 2207TIP3    H128112   4.172   4.103   3.400  0.1823  0.1516 -1.3684
 2207TIP3    H228113   4.172   3.960   3.349  1.1399 -0.8418  1.2492
 2208TIP3   OH228114   1.733   3.721   1.829 -0.0826 -0.1211  0.4649
 2208TIP3    H128115   1.794   3.700   1.900  0.6013 -0.6223 -0.2525
 2208TIP3    H228116   1.723   3.816   1.833 -0.0820 -0.1508  1.2542
 2209TIP3   OH228117   4.812   1.059  14.568 -0.0933 -0.0947 -0.0254
 2209TIP3    H128118   4.905   1.050  14.588 -0.4105 -0.8255  1.2011
 2209TIP3    H228119   4.809   1.121  14.495  1.4718 -1.3935 -1.2742
 2210TIP3   OH228120   3.585   3.173   4.834  0.1062  0.6708  0.0137
 2210TIP3    H128121   3.634   3.112   4.890 -1.3451 -0.7690 -0.2006
 2210TIP3    H228122   3.616   3.155   4.746 -0.3589  0.1913 -0.0551
 2211TIP3   OH228123   0.745   4.464  11.378 -0.0556 -0.0763  0.7655
 2211TIP3    H128124   0.764   4.403  11.306 -2.0012 -0.7059  0.7434
 2211TIP3    H228125   0.721   4.407  11.452 -0.1896  0.6345  1.2798
 2212TIP3   OH228126   1.043   6.258  14.374  0.7067  0.0820 -0.5207
 2212TIP3    H128127   0.988   6.301  14.440 -0.1947  1.0281 -1.8423
 2212TIP3    H228128   1.123   6.235  14.421  0.2948  1.1773  0.7821
 2213TIP3   OH228129   5.170   0.349   1.871 -0.2129  0.8052 -0.0580
 2213TIP3    H128130   5.160   0.414   1.802  1.6668  0.2176 -0.9700
 2213TIP3    H228131   5.188   0.267   1.825  2.1682  0.6024  1.0559
 2214TIP3   OH228132   2.782   1.507  10.580 -0.2327  0.5273  0.2536
 2214TIP3    H128133   2.828   1.491  10.663 -0.0923  2.3999  0.5920
 2214TIP3    H228134   2.768   1.420  10.543  0.9251 -0.2740  1.5821
 2215TIP3   OH228135   4.566   3.873   1.221 -0.3631  0.0560 -0.1805
 2215TIP3    H128136   4.645   3.838   1.261 -0.2356 -0.7535 -1.0849
 2215TIP3    H228137   4.551   3.956   1.265 -0.5223 -1.0122  1.8719
 2216TIP3   OH228138   1.919   4.291  14.264 -0.2257 -0.5775 -1.0662
 2216TIP3    H128139   1.996   4.324  14.310 -1.2615 -0.4724  0.6675
 2216TIP3    H228140   1.943   4.202  14.238  0.3549 -0.6849 -0.2083
 2217TIP3   OH228141   3.141   1.379  15.130 -0.3145  0.0937 -0.4409
 2217TIP3    H128142   3.234   1.381  15.109 -0.0801 -2.4946  0.0150
 2217TIP3    H228143   3.129   1.297  15.178 -2.3247  1.6875  2.1083
 2218TIP3   OH228144   4.642   3.874  11.610 -0.1989  0.5950 -0.0983
 2218TIP3    H128145   4.720   3.820  11.625 -0.4370  0.3877  0.4052
 2218TIP3    H228146   4.588   3.861  11.688 -1.6075 -0.7214 -1.2329
 2219TIP3   OH228147   4.969   5.267   1.751  0.1083  0.2016  0.2452
 2219TIP3    H128148   5.007   5.308   1.673  0.0434  1.6156  0.9139
 2219TIP3    H228149   4.998   5.323   1.824 -0.7185 -0.4631  1.1131
 2220TIP3   OH228150   3.577   0.778   2.912 -0.0552  0.0497 -0.0425
 2220TIP3    H128151   3.631   0.827   2.974 -1.1685  3.3618 -1.4774
 2220TIP3    H228152   3.513   0.732   2.967  1.1729 -0.0082  1.4059
 2221TIP3   OH228153   6.536   4.184   3.761  0.0025  0.2129  0.1534
 2221TIP3    H128154   6.448   4.208   3.733 -0.4328  0.7302  1.8603
 2221TIP3    H228155   6.582   4.268   3.768  0.0884  0.0950  1.0009
 2222TIP3   OH228156   6.469   2.137  14.728 -0.0082  0.2064 -0.5234
 2222TIP3    H128157   6.507   2.074  14.667 -0.8718 -1.1031  0.2590
 2222TIP3    H228158   6.537   2.150  14.794 -0.4452 -1.2815  0.2645
 2223TIP3   OH228159   2.230   2.993  16.434  0.1628 -0.2451  0.0601
 2223TIP3    H128160   2.227   2.899  16.454  2.5233 -0.1470  1.1139
 2223TIP3    H228161   2.240   2.996  16.339 -2.1233 -0.9376 -0.2741
 2224TIP3   OH228162   1.708   1.557  16.492 -0.4232 -0.1694  0.1397
 2224TIP3    H128163   1.658   1.549  16.411 -0.3611  0.0257  0.0824
 2224TIP3    H228164   1.650   1.604  16.552  0.0761  1.0077 -0.2643
 2225TIP3   OH228165   1.175   3.129  14.882 -0.4889  0.5254  0.5155
 2225TIP3    H128166   1.270   3.141  14.872 -0.5924  0.6362 -0.4062
 2225TIP3    H228167   1.141   3.131  14.793 -1.1129 -1.8116  0.6440
 2226TIP3   OH228168   3.879   2.079  16.894  0.8316  0.1337 -0.3252
 2226TIP3    H128169   3.934   2.008  16.861  2.0407  0.4896  0.8464
 2226TIP3    H228170   3.906   2.091  16.985 -2.1871 -0.6118  0.7769
 2227TIP3   OH228171   0.600   0.764   4.796 -0.0426 -0.5391 -1.1332
 2227TIP3    H128172   0.658   0.833   4.763 -0.5009 -0.1180 -1.0621
 2227TIP3    H228173   0.519   0.809   4.818 -0.2998 -1.0818 -0.9565
 2228TIP3   OH228174   0.976   2.157  14.299 -0.3553  0.3721 -0.3015
 2228TIP3    H128175   1.038   2.166  14.227 -2.1119  0.8070 -1.8249
 2228TIP3    H228176   0.995   2.231  14.356  1.2454 -0.1391 -0.1234
 2229TIP3   OH228177   5.265   5.235   5.270  0.8374 -0.0722  0.1989
 2229TIP3    H128178   5.353   5.232   5.307  0.3899  3.0242  1.8097
 2229TIP3    H228179   5.209   5.199   5.339  0.4999  1.4792  0.7823
 2230TIP3   OH228180   4.205   5.915   6.213  0.5155  1.1881 -0.3991
 2230TIP3    H128181   4.130   5.942   6.266 -0.9705  3.0318 -3.1789
 2230TIP3    H228182   4.210   5.820   6.226 -2.4862  0.9569 -0.2232
 2231TIP3   OH228183   2.419   6.665  11.929  0.1178 -0.0413 -0.1851
 2231TIP3    H128184   2.508   6.684  11.900 -0.2734  0.2358 -1.2456
 2231TIP3    H228185   2.367   6.662  11.848 -0.7335 -0.7585  0.3675
 2232TIP3   OH228186   0.405   5.948   1.786 -0.6456 -0.0900  0.7838
 2232TIP3    H128187   0.480   5.903   1.823 -0.9175  0.0844  1.5750
 2232TIP3    H228188   0.389   5.904   1.703 -0.2505 -0.7432  1.0459
 2233TIP3   OH228189   0.982   4.047  15.334 -0.0886  0.2643 -0.1292
 2233TIP3    H128190   0.929   4.073  15.410  1.5315  1.7284  0.5658
 2233TIP3    H228191   1.027   3.968  15.362 -0.0273  0.4124  0.2032
 2234TIP3   OH228192   6.619   1.505   3.301 -0.2411 -0.1194 -0.2474
 2234TIP3    H128193   6.629   1.532   3.210  1.4932 -0.9136 -0.3459
 2234TIP3    H228194   6.591   1.413   3.296  1.6284 -0.7542 -0.0642
 2235TIP3   OH228195   1.716   3.347  16.823  0.3157  0.2345  1.0281
 2235TIP3    H128196   1.773   3.376  16.751 -0.6209 -0.2844  0.0437
 2235TIP3    H228197   1.763   3.371  16.902  1.8089  0.0054  0.2458
 2236TIP3   OH228198   5.859   0.127  12.664  0.1096 -0.5671 -0.4436
 2236TIP3    H128199   5.769   0.135  12.696 -0.5709 -1.7626 -1.9305
 2236TIP3    H228200   5.863   0.188  12.589  1.2109  1.0484  0.8508
 2237TIP3   OH228201   3.857   4.564  13.929 -0.4283 -0.4182 -0.2811
 2237TIP3    H128202   3.872   4.634  13.865 -0.8604 -0.8334 -0.8408
 2237TIP3    H228203   3.882   4.603  14.013 -2.6288  1.1139 -0.2655
 2238TIP3   OH228204   1.256   6.805  10.713  0.0832  0.0700  0.1181
 2238TIP3    H128205   1.261   6.872  10.781  0.7089  1.1398 -0.9629
 2238TIP3    H228206   1.162   6.796  10.696 -0.0919 -0.3228  1.2148
 2239TIP3   OH228207   0.100   2.710  14.378 -0.1809  0.0051  0.2629
 2239TIP3    H128208   0.128   2.642  14.317 -0.7158 -3.3028  3.3687
 2239TIP3    H228209   0.023   2.749  14.337 -1.1280 -2.7582 -0.8245
 2240TIP3   OH228210   0.447   3.693  16.751 -0.2413 -0.3215  0.4314
 2240TIP3    H128211   0.379   3.687  16.818  1.9462  1.3444  2.9696
 2240TIP3    H228212   0.507   3.760  16.782  1.3259  0.0604 -2.9090
 2241TIP3   OH228213   2.588   6.337  10.702 -0.0634 -0.1904 -0.0977
 2241TIP3    H128214   2.670   6.365  10.742 -0.6331  1.7152 -0.1428
 2241TIP3    H228215   2.595   6.242  10.696  1.6992 -0.1607  0.8305
 2242TIP3   OH228216   2.205   4.820  16.924 -0.2448  0.2669  0.0415
 2242TIP3    H128217   2.211   4.778  16.838  2.0681 -0.7616  0.6286
 2242TIP3    H228218   2.246   4.758  16.984 -3.4630  0.0652  2.3224
 2243TIP3   OH228219   4.332   0.904   4.803 -0.2334 -0.1743 -0.1032
 2243TIP3    H128220   4.254   0.899   4.857  0.6381  0.5299  1.2789
 2243TIP3    H228221   4.300   0.894   4.713 -1.9320  0.3509  0.4064
 2244TIP3   OH228222   3.115   0.738  12.490 -0.3648  0.4658 -0.1575
 2244TIP3    H128223   3.035   0.788  12.511 -0.0680  1.0529 -0.4170
 2244TIP3    H228224   3.090   0.685  12.415 -0.8823 -0.2849  0.5217
 2245TIP3   OH228225   4.178   3.632   4.145 -0.0029 -0.1998  0.2146
 2245TIP3    H128226   4.093   3.618   4.186 -0.5074  0.5768 -0.5370
 2245TIP3    H228227   4.158   3.660   4.056  1.0585 -0.9656 -0.2860
 2246TIP3   OH228228   4.360   5.499  11.971  0.4890  0.1826  0.1643
 2246TIP3    H128229   4.389   5.576  12.020  2.5813 -0.3921 -0.0847
 2246TIP3    H228230   4.318   5.443  12.037 -1.8220  1.8258  0.1959
 2247TIP3   OH228231   4.009   2.728  11.630 -0.1257  0.0424 -0.1488
 2247TIP3    H128232   3.979   2.710  11.541 -0.7518 -0.0235  0.0668
 2247TIP3    H228233   4.100   2.755  11.621 -0.8422  2.4422 -1.0710
 2248TIP3   OH228234   4.448   5.828   3.785 -0.1327  0.0259  0.5548
 2248TIP3    H128235   4.502   5.757   3.749 -0.8774 -1.1464  1.6863
 2248TIP3    H228236   4.508   5.877   3.841  0.4015  0.3402 -0.2759
 2249TIP3   OH228237   4.236   1.723  12.754 -0.4802 -0.1567 -0.0748
 2249TIP3    H128238   4.146   1.725  12.721 -0.3663  1.3984 -0.3708
 2249TIP3    H228239   4.237   1.791  12.821 -0.1958 -1.9557  1.8319
 2250TIP3   OH228240   6.163   3.204  11.776  0.1469 -0.1013  0.5018
 2250TIP3    H128241   6.204   3.118  11.762  0.8892  0.5299 -1.5156
 2250TIP3    H228242   6.220   3.266  11.731 -2.0304  1.0505 -0.8274
 2251TIP3   OH228243   3.714   2.795  15.658 -0.3167 -0.0233  0.2747
 2251TIP3    H128244   3.626   2.801  15.621 -0.9090 -1.6839  1.3221
 2251TIP3    H228245   3.712   2.853  15.734  0.0436  1.2407 -0.6520
 2252TIP3   OH228246   4.919   1.798   6.535  0.1125  0.0300  0.5949
 2252TIP3    H128247   4.903   1.705   6.524  1.6601  0.0102 -3.1485
 2252TIP3    H228248   4.850   1.840   6.483  1.0392  0.7904 -0.0599
 2253TIP3   OH228249   2.560   3.009  13.537  0.0375 -0.5603 -0.1126
 2253TIP3    H128250   2.652   3.021  13.513 -0.5145  1.0141 -1.7180
 2253TIP3    H228251   2.530   2.935  13.483  0.0035 -0.0911 -0.7515
 2254TIP3   OH228252   3.454   1.187   2.138 -0.0139 -0.1769  0.3473
 2254TIP3    H128253   3.477   1.139   2.059 -2.2764  1.3848 -1.3891
 2254TIP3    H228254   3.495   1.273   2.126 -2.1217  0.8275 -0.3064
 2255TIP3   OH228255   1.022   0.425   4.273 -0.3852  0.7245 -0.4974
 2255TIP3    H128256   0.969   0.494   4.311  0.1225  0.7426  0.2083
 2255TIP3    H228257   1.060   0.379   4.349  0.3583  0.5315 -0.9736
 2256TIP3   OH228258   4.001   5.755  13.081  0.0853 -0.5470 -0.6900
 2256TIP3    H128259   3.980   5.777  13.172 -0.7799  0.8014 -1.1844
 2256TIP3    H228260   3.951   5.817  13.029  1.9602 -0.1056 -2.0739
 2257TIP3   OH228261   3.602   5.916   1.459 -0.4097  0.6288  0.5975
 2257TIP3    H128262   3.686   5.872   1.447  0.4965  2.5742 -0.7752
 2257TIP3    H228263   3.590   5.920   1.554  0.4610 -0.7063  0.7854
 2258TIP3   OH228264   5.791   4.264  11.574  0.0793 -0.0121 -0.0458
 2258TIP3    H128265   5.859   4.197  11.565 -1.4720 -1.6854  0.1159
 2258TIP3    H228266   5.837   4.346  11.559  2.4746 -0.9139  1.7315
 2259TIP3   OH228267   0.292   0.769   4.493  0.3043 -0.1317 -0.2624
 2259TIP3    H128268   0.246   0.827   4.433  0.8737  0.0872 -0.4959
 2259TIP3    H228269   0.230   0.698   4.510 -0.6967  0.9119  0.6385
 2260TIP3   OH228270   4.874   6.538   3.598  0.5564 -0.2129 -0.5013
 2260TIP3    H128271   4.933   6.573   3.665  1.7862 -3.4485  0.3194
 2260TIP3    H228272   4.787   6.541   3.638  0.8008  0.7326 -0.0199
 2261TIP3   OH228273   6.705   4.099  14.941 -0.2712  0.1571 -0.1586
 2261TIP3    H128274   6.678   4.008  14.926 -2.3800  0.5264  1.0319
 2261TIP3    H228275   6.656   4.149  14.876  1.1666  0.4574 -1.0589
 2262TIP3   OH228276   5.477   0.472   2.273 -0.5328 -0.2119  1.3019
 2262TIP3    H128277   5.412   0.519   2.220 -0.2261 -0.5314  0.6384
 2262TIP3    H228278   5.453   0.493   2.363 -0.9979  0.4266  1.0416
 2263TIP3   OH228279   5.919   3.752   3.748  0.5037  0.0612 -0.4748
 2263TIP3    H128280   5.944   3.783   3.835 -1.5626 -0.1389  0.2475
 2263TIP3    H228281   5.885   3.664   3.762  0.0237  0.0727 -1.4686
 2264TIP3   OH228282   3.297   5.531   2.137 -0.4700 -0.4293  0.2028
 2264TIP3    H128283   3.355   5.545   2.062  0.2861 -0.7138  0.7240
 2264TIP3    H228284   3.253   5.615   2.150 -1.9770 -0.8526 -1.6681
 2265TIP3   OH228285   5.638   1.393   1.176 -0.0278 -0.2928 -0.2777
 2265TIP3    H128286   5.716   1.391   1.120 -0.1234  1.1662 -0.5089
 2265TIP3    H228287   5.564   1.385   1.116 -0.1332  1.3610 -0.4118
 2266TIP3   OH228288   0.108   1.994   2.679 -0.4731  0.1963 -0.1336
 2266TIP3    H128289   0.080   1.987   2.771  1.4182  0.0216  0.4571
 2266TIP3    H228290   0.121   1.903   2.652  0.6237  0.3178 -0.0316
 2267TIP3   OH228291   1.447   2.480  16.397 -0.3745 -0.1426 -0.0522
 2267TIP3    H128292   1.387   2.447  16.329  0.3094  0.5820 -1.0363
 2267TIP3    H228293   1.418   2.570  16.412  0.5103  0.2442 -0.6032
 2268TIP3   OH228294   3.871   3.738   0.904  0.2276  0.2139 -0.1980
 2268TIP3    H128295   3.820   3.732   0.823 -0.7347  0.7162  0.3486
 2268TIP3    H228296   3.806   3.732   0.974  0.6836  2.6426  0.5199
 2269TIP3   OH228297   4.922   2.796   0.657  0.4155  0.2041 -0.0650
 2269TIP3    H128298   4.934   2.715   0.707  1.1302  0.7917  0.7447
 2269TIP3    H228299   4.855   2.844   0.705  0.4349  0.3650 -0.1983
 2270TIP3   OH228300   4.800   3.506  17.194  0.1324 -0.0700  0.3979
 2270TIP3    H128301   4.870   3.556  17.152 -1.3842  1.0844 -0.8425
 2270TIP3    H228302   4.733   3.497  17.127 -0.8873 -1.2315  1.5324
 2271TIP3   OH228303   1.052   4.390   0.237 -0.1100  0.9573 -0.1268
 2271TIP3    H128304   1.106   4.457   0.197  1.3070 -0.3335 -0.4876
 2271TIP3    H228305   1.009   4.347   0.162 -1.1121  1.5220  0.1088
 2272TIP3   OH228306   1.351   4.919  16.416 -0.1487  0.1976  0.6839
 2272TIP3    H128307   1.402   4.987  16.372  1.0621 -1.6049 -0.8652
 2272TIP3    H228308   1.262   4.954  16.418  0.5971  2.2173  0.8521
 2273TIP3   OH228309   6.010   4.102   1.251  0.2447  0.3314 -0.3464
 2273TIP3    H128310   6.001   4.177   1.193  0.1085 -0.1917 -1.0123
 2273TIP3    H228311   6.090   4.058   1.222  1.6879  1.5254  1.5820
 2274TIP3   OH228312   5.380   4.457   3.910  0.0750 -0.7648  0.2678
 2274TIP3    H128313   5.299   4.489   3.869 -0.3944 -1.3701  0.7218
 2274TIP3    H228314   5.375   4.362   3.901  1.3398 -0.7526 -0.8254
 2275TIP3   OH228315   2.547   1.705   1.497 -0.0213  0.2738 -0.1217
 2275TIP3    H128316   2.568   1.766   1.427 -0.1068  0.2836 -0.1390
 2275TIP3    H228317   2.502   1.632   1.453 -1.4833  0.9885  0.1100
 2276TIP3   OH228318   0.855   3.902  13.289  0.2726 -0.2127  0.2879
 2276TIP3    H128319   0.763   3.916  13.267  0.4781  0.9178  0.1067
 2276TIP3    H228320   0.889   3.850  13.216 -0.1064 -0.2052  0.1041
 2277TIP3   OH228321   5.524   4.618  14.785  0.1771  0.1494 -0.0763
 2277TIP3    H128322   5.439   4.605  14.742  1.2914 -0.8862 -2.1045
 2277TIP3    H228323   5.528   4.548  14.851 -1.1248  1.1254  1.1013
 2278TIP3   OH228324   1.493   2.403  13.390  0.1394 -0.0916 -0.4589
 2278TIP3    H128325   1.538   2.341  13.448 -0.2488 -0.8431 -0.9498
 2278TIP3    H228326   1.422   2.438  13.443 -1.7200 -2.5441 -1.1314
 2279TIP3   OH228327   6.564   2.954   0.704  0.1906 -0.1014 -0.5969
 2279TIP3    H128328   6.544   3.047   0.715  0.3134 -0.0745 -0.5993
 2279TIP3    H228329   6.508   2.910   0.767  1.2636  0.0827  0.5175
 2280TIP3   OH228330   1.387   0.335   1.367 -0.0804  0.0168  0.2839
 2280TIP3    H128331   1.405   0.350   1.274  0.9124  1.1834  0.6325
 2280TIP3    H228332   1.473   0.312   1.404 -0.6282 -1.3354  0.7580
 2281TIP3   OH228333   4.098   0.405   1.931 -0.5017  0.0688 -0.0132
 2281TIP3    H128334   4.089   0.327   1.876 -0.2361  0.3037 -0.3927
 2281TIP3    H228335   4.042   0.471   1.890  0.3850  0.5203 -0.5219
 2282TIP3   OH228336   1.122   1.024  11.347 -0.1655  0.7066 -0.3642
 2282TIP3    H128337   1.130   0.993  11.257  0.2438  0.4242 -0.2336
 2282TIP3    H228338   1.031   1.007  11.370  0.0326 -0.3782 -0.3135
 2283TIP3   OH228339   0.259   2.242   4.124 -0.2590 -0.0642 -0.1573
 2283TIP3    H128340   0.343   2.221   4.165 -0.9924 -1.0518  0.9141
 2283TIP3    H228341   0.228   2.158   4.089 -0.7391  0.3210 -0.6845
 2284TIP3   OH228342   0.450   4.180   3.854  0.7955 -0.3557  0.5623
 2284TIP3    H128343   0.369   4.130   3.853  1.3561 -1.2897  0.0591
 2284TIP3    H228344   0.490   4.163   3.768  0.4066  1.9900 -0.1548
 2285TIP3   OH228345   3.689   4.181   5.640  0.4353  0.2440  0.0795
 2285TIP3    H128346   3.726   4.108   5.690 -1.2976 -0.2384  0.7529
 2285TIP3    H228347   3.731   4.259   5.676 -0.1761 -0.1631  1.7732
 2286TIP3   OH228348   1.085   0.665   0.699 -0.7059 -0.2833 -0.0051
 2286TIP3    H128349   1.146   0.623   0.638 -0.3858 -1.3909  1.0387
 2286TIP3    H228350   1.000   0.625   0.680 -0.5337 -0.9164  0.5113
 2287TIP3   OH228351   3.717   1.109  17.235  0.2008 -0.1111 -0.8035
 2287TIP3    H128352   3.637   1.079  17.193  0.1839  0.6044 -1.2915
 2287TIP3    H228353   3.703   1.093  17.328 -1.0996  1.3104 -0.7148
 2288TIP3   OH228354   6.765   3.853  14.899 -0.2735  0.1968 -0.2917
 2288TIP3    H128355   6.849   3.885  14.868  0.5964 -1.4334  0.2485
 2288TIP3    H228356   6.787   3.788  14.966 -1.8919 -1.3293 -1.1333
 2289TIP3   OH228357   5.679   3.788   4.864  0.4517  0.8922 -0.0076
 2289TIP3    H128358   5.713   3.869   4.901 -3.7996  2.2244  1.6199
 2289TIP3    H228359   5.712   3.720   4.923  1.7045  1.7896  0.3624
 2290TIP3   OH228360   1.255   3.161   5.640 -0.5213  0.5289  0.4223
 2290TIP3    H128361   1.264   3.233   5.702  0.9577 -0.0065  0.8573
 2290TIP3    H228362   1.318   3.181   5.570 -0.4062 -0.1229  0.3305
 2291TIP3   OH228363   3.324   0.925   0.677  0.5546 -0.3915 -0.2759
 2291TIP3    H128364   3.353   0.901   0.765  1.4085 -0.8041 -0.6554
 2291TIP3    H228365   3.253   0.864   0.657  1.0289 -0.9570 -0.2583
 2292TIP3   OH228366   2.592   0.834   1.263 -0.0473  0.3676  0.2473
 2292TIP3    H128367   2.653   0.767   1.292  0.1364  0.5298  0.2346
 2292TIP3    H228368   2.505   0.795   1.276  0.0566  0.1622  0.3206
 2293TIP3   OH228369   3.899   3.521  16.831  0.0808 -0.2582 -0.1502
 2293TIP3    H128370   3.863   3.597  16.876 -2.1039 -0.3816 -1.5444
 2293TIP3    H228371   3.954   3.558  16.762 -0.5171  0.0534 -0.4655
 2294TIP3   OH228372   1.622   0.544  14.701 -0.6304 -0.3962  0.4107
 2294TIP3    H128373   1.575   0.533  14.618 -0.4355  1.1010  0.0819
 2294TIP3    H228374   1.710   0.512  14.683  0.3203  2.6221 -0.9228
 2295TIP3   OH228375   6.735   4.336  13.740  0.0292  0.3982 -0.1571
 2295TIP3    H128376   6.782   4.353  13.821 -0.3757  0.8157 -0.0086
 2295TIP3    H228377   6.794   4.280  13.689  0.6976  0.9327  0.0170
 2296TIP3   OH228378   6.260   6.583  10.717  0.1374  0.5207 -0.2136
 2296TIP3    H128379   6.214   6.536  10.648 -0.7435  0.4519  0.4010
 2296TIP3    H228380   6.300   6.514  10.770  0.1984  0.5358 -0.2401
 2297TIP3   OH228381   2.271   2.201   5.433 -0.5125  0.4454  0.1281
 2297TIP3    H128382   2.191   2.192   5.485 -0.1013 -0.3732  0.6381
 2297TIP3    H228383   2.241   2.198   5.342 -0.9111 -1.7667  0.2793
 2298TIP3   OH228384   0.791   5.316   2.570 -0.0981  0.0753 -0.4217
 2298TIP3    H128385   0.726   5.329   2.501 -1.1765 -0.8581  0.3636
 2298TIP3    H228386   0.797   5.401   2.614 -2.5134 -0.3227  0.8871
 2299TIP3   OH228387   5.727   3.000   5.206 -0.1546  0.2499 -0.3509
 2299TIP3    H128388   5.789   2.984   5.135 -0.0302 -2.0930  0.2067
 2299TIP3    H228389   5.644   2.964   5.174 -0.9289  2.0810 -0.5273
 2300TIP3   OH228390   4.637   0.935   4.412 -0.1127  0.0039 -0.1051
 2300TIP3    H128391   4.617   1.009   4.469  1.2093  0.0034  0.4050
 2300TIP3    H228392   4.703   0.969   4.351 -0.7866 -0.2730 -1.0013
 2301TIP3   OH228393   6.137   2.167   3.594 -0.4530  0.0609  0.0465
 2301TIP3    H128394   6.071   2.115   3.641 -0.4111 -0.3139 -0.3038
 2301TIP3    H228395   6.139   2.129   3.507  2.3166 -1.8849  0.8316
 2302TIP3   OH228396   5.541   4.648   2.420 -0.1895 -0.0343 -0.2454
 2302TIP3    H128397   5.458   4.612   2.451 -0.1476  1.2984  1.6095
 2302TIP3    H228398   5.520   4.692   2.338 -1.6571  1.4669  0.8772
 2303TIP3   OH228399   4.656   5.991  15.911  0.1161 -0.2947 -0.0906
 2303TIP3    H128400   4.698   5.933  15.975  1.7382  0.9522  0.0450
 2303TIP3    H228401   4.704   5.975  15.830  0.0239  0.2436 -0.2563
 2304TIP3   OH228402   5.985   4.536  17.160 -0.0607  0.3803 -0.3294
 2304TIP3    H128403   5.927   4.525  17.085  0.3051  1.9568 -0.8812
 2304TIP3    H228404   6.012   4.628  17.156  0.6605  0.2644  1.2343
 2305TIP3   OH228405   1.089   2.546  15.517  0.5238  0.2885  0.0272
 2305TIP3    H128406   1.015   2.535  15.458  0.3683 -0.3446  0.3391
 2305TIP3    H228407   1.054   2.528  15.604  0.7997  1.0234  0.3002
 2306TIP3   OH228408   5.523   2.341  15.388 -0.5952 -0.1438 -0.2310
 2306TIP3    H128409   5.469   2.272  15.424 -0.0921 -0.5958 -0.3242
 2306TIP3    H228410   5.609   2.329  15.429 -0.1014 -0.4703 -1.3045
 2307TIP3   OH228411   0.653   4.703   1.174  0.1273 -0.4259  0.0707
 2307TIP3    H128412   0.708   4.735   1.102  1.3158 -0.5394  0.9000
 2307TIP3    H228413   0.613   4.782   1.210  1.7964 -0.0048  1.0928
 2308TIP3   OH228414   2.574   0.927  15.002 -0.1714 -0.3923  0.3388
 2308TIP3    H128415   2.499   0.871  15.019 -0.4772  0.0865  0.6073
 2308TIP3    H228416   2.545   0.985  14.932 -0.5195  0.6299  1.2856
 2309TIP3   OH228417   0.648   0.088   3.321  0.0903  0.2517 -0.3968
 2309TIP3    H128418   0.664   0.076   3.414  2.2373 -1.5820 -0.9099
 2309TIP3    H228419   0.721   0.141   3.290  0.0087 -0.1124 -1.2431
 2310TIP3   OH228420   1.446   5.255  12.229  0.5940  0.2095 -0.3023
 2310TIP3    H128421   1.522   5.241  12.172 -0.0499 -0.7778 -0.9379
 2310TIP3    H228422   1.380   5.294  12.173  0.0314 -0.5602 -0.1964
 2311TIP3   OH228423   1.574   2.228  16.467  0.5199  0.3795  0.5568
 2311TIP3    H128424   1.516   2.304  16.472 -1.3859 -1.0481  1.1169
 2311TIP3    H228425   1.622   2.229  16.550  1.4069  1.6105  0.0577
 2312TIP3   OH228426   0.763   3.489  12.671  0.4387  0.0979 -0.2844
 2312TIP3    H128427   0.792   3.434  12.598  3.2091  1.5080 -0.3582
 2312TIP3    H228428   0.747   3.575  12.632 -0.4668  0.2496  0.3965
 2313TIP3   OH228429   1.478   1.414   2.881  0.1416  0.1550 -0.3827
 2313TIP3    H128430   1.452   1.491   2.830  2.0723  1.5634  0.6361
 2313TIP3    H228431   1.523   1.358   2.817 -1.5130 -0.3345 -1.1921
 2314TIP3   OH228432   4.383   5.650   5.361 -0.1132 -0.4046  0.0381
 2314TIP3    H128433   4.297   5.691   5.352  1.5248  3.1190 -1.7893
 2314TIP3    H228434   4.377   5.570   5.308 -2.1867 -0.1666 -0.1692
 2315TIP3   OH228435   2.603   5.163   4.775  0.4062  0.4813 -0.8122
 2315TIP3    H128436   2.615   5.085   4.828 -0.4357  0.4250 -0.6878
 2315TIP3    H228437   2.601   5.235   4.838 -2.5316  0.2514 -0.4744
 2316TIP3   OH228438   4.138   6.624   5.144 -0.2465 -0.0236  0.2722
 2316TIP3    H128439   4.213   6.646   5.089 -1.3534 -1.3874 -1.9377
 2316TIP3    H228440   4.154   6.534   5.172 -0.5843  0.0152  0.6041
 2317TIP3   OH228441   2.281   1.961   2.815 -0.1397 -0.0645  0.1518
 2317TIP3    H128442   2.260   2.039   2.865  0.5784 -0.2435  0.7555
 2317TIP3    H228443   2.199   1.936   2.772 -1.1637 -0.7011  2.3323
 2318TIP3   OH228444   3.864   1.379   4.016  0.7010  0.0733 -0.0543
 2318TIP3    H128445   3.960   1.375   4.018  0.6795 -1.0965 -0.4304
 2318TIP3    H228446   3.837   1.303   4.068 -0.0278  0.5552  0.2795
 2319TIP3   OH228447   4.667   1.970  17.095  0.0624  0.6762  0.1367
 2319TIP3    H128448   4.598   1.988  17.159 -2.0876 -1.0897 -1.4777
 2319TIP3    H228449   4.716   1.897  17.133 -0.2304  0.6393  0.4537
 2320TIP3   OH228450   2.096   4.640   1.852  0.4389 -0.5925  0.3774
 2320TIP3    H128451   2.027   4.696   1.888  0.5096 -0.1041 -0.2267
 2320TIP3    H228452   2.131   4.690   1.778  0.0933 -1.7102 -0.5589
 2321TIP3   OH228453   3.178   6.235  11.997  0.2574 -0.1130  0.0371
 2321TIP3    H128454   3.088   6.255  11.973  0.4875  0.4367 -0.4078
 2321TIP3    H228455   3.231   6.280  11.931  0.8600 -0.4040  0.3068
 2322TIP3   OH228456   2.515   6.029   0.439 -0.1448 -0.2215 -0.3718
 2322TIP3    H128457   2.504   6.112   0.392 -2.7995  0.5204  1.3292
 2322TIP3    H228458   2.440   5.976   0.413  1.2768 -1.9673 -1.0675
 2323TIP3   OH228459   3.767   5.821   1.112  0.0543 -0.6560  0.2369
 2323TIP3    H128460   3.731   5.764   1.180 -0.4668 -0.1022  0.4357
 2323TIP3    H228461   3.693   5.837   1.053 -0.6121  2.0299  1.6609
 2324TIP3   OH228462   5.039   3.940  16.836 -0.8446  0.0323 -0.1781
 2324TIP3    H128463   5.017   4.000  16.907 -0.4535 -0.4175  0.3305
 2324TIP3    H228464   5.047   3.854  16.878  0.5539 -0.0530 -0.5502
 2325TIP3   OH228465   2.224   5.525  10.866  0.2558 -0.0784  0.3980
 2325TIP3    H128466   2.269   5.466  10.806  3.9660  0.6161  2.1991
 2325TIP3    H228467   2.152   5.561  10.815  1.4359 -1.6724 -2.6520
 2326TIP3   OH228468   6.434   1.387   4.044  0.2928 -0.1806  0.2247
 2326TIP3    H128469   6.459   1.299   4.073  0.8091 -0.7313 -1.7763
 2326TIP3    H228470   6.456   1.389   3.951  0.9125  2.3080  0.3651
 2327TIP3   OH228471   5.972   3.197  12.192 -0.1898  0.0287  0.1168
 2327TIP3    H128472   5.978   3.265  12.259 -2.0062  1.5274 -1.1487
 2327TIP3    H228473   6.063   3.173  12.173  0.3943  0.4538  2.1918
 2328TIP3   OH228474   1.530   2.594  15.184 -0.2200  0.1785  0.7442
 2328TIP3    H128475   1.483   2.659  15.236 -0.5139  0.9365 -0.4301
 2328TIP3    H228476   1.463   2.533  15.155 -0.4955  1.1248 -0.7310
 2329TIP3   OH228477   5.560   2.963   3.901 -0.0976  0.4959 -0.2963
 2329TIP3    H128478   5.576   2.890   3.961  0.4333  0.1014 -0.9021
 2329TIP3    H228479   5.578   2.927   3.814 -1.0290  1.0087 -0.7139
 2330TIP3   OH228480   5.203   0.098  13.872  0.3376 -0.0213  0.0180
 2330TIP3    H128481   5.276   0.114  13.932  1.4759  0.2021 -1.3877
 2330TIP3    H228482   5.139   0.050  13.926  0.2724  2.1719  2.0685
 2331TIP3   OH228483   6.726   2.509  12.752  0.0960  0.0630 -0.3782
 2331TIP3    H128484   6.791   2.573  12.723  0.0532 -1.0296 -3.2160
 2331TIP3    H228485   6.776   2.445  12.802  0.6897  0.6184 -0.2393
 2332TIP3   OH228486   1.510   4.199  13.214 -0.2308 -0.5044 -0.1824
 2332TIP3    H128487   1.459   4.235  13.287  1.3395  0.3845  0.5423
 2332TIP3    H228488   1.489   4.256  13.140  2.2799  2.1748  0.9716
 2333TIP3   OH228489   0.997   5.559   1.556  0.2141  0.1200 -0.1134
 2333TIP3    H128490   1.033   5.540   1.469 -0.2393  0.2851 -0.3417
 2333TIP3    H228491   0.996   5.475   1.601  0.3304  0.0122 -0.3123
 2334TIP3   OH228492   1.917   2.593  15.444 -0.0142  0.4251  0.0354
 2334TIP3    H128493   1.910   2.502  15.416 -1.4238  0.7050 -0.5924
 2334TIP3    H228494   1.964   2.637  15.373 -1.7400  0.7147 -0.9654
 2335TIP3   OH228495   1.715   0.327  12.613  0.6875 -0.1899 -0.6999
 2335TIP3    H128496   1.790   0.280  12.577  0.9341 -0.8215  0.5737
 2335TIP3    H228497   1.736   0.420  12.599  1.4212 -0.3797 -0.9007
 2336TIP3   OH228498   2.841   2.002  16.998  0.2804  0.7194 -0.8147
 2336TIP3    H128499   2.897   1.947  17.053 -0.1853 -0.5946 -1.6243
 2336TIP3    H228500   2.884   2.000  16.912  0.3695  1.8100 -0.8086
 2337TIP3   OH228501   4.959   1.341  12.454  0.2734  0.8459  0.1472
 2337TIP3    H128502   5.044   1.373  12.423  0.5370  1.2184  1.1976
 2337TIP3    H228503   4.972   1.247  12.464  0.7037  0.9544  0.6912
 2338TIP3   OH228504   4.477   1.700   0.729 -0.0090 -0.0069 -0.0605
 2338TIP3    H128505   4.571   1.712   0.714 -0.1727  0.1172 -1.0750
 2338TIP3    H228506   4.470   1.676   0.821  0.9482  0.7699  0.2242
 2339TIP3   OH228507   3.112   2.908   0.373 -0.1190 -0.5776  0.2723
 2339TIP3    H128508   3.147   2.852   0.443 -2.5559  0.0403  2.1366
 2339TIP3    H228509   3.103   2.849   0.298  2.3163 -1.3387  0.4897
 2340TIP3   OH228510   1.920   3.404  12.512 -0.0760  0.2120 -0.1010
 2340TIP3    H128511   1.828   3.385  12.533 -0.2512 -0.8987 -1.6746
 2340TIP3    H228512   1.927   3.386  12.419  1.4288  1.6663 -0.3141
 2341TIP3   OH228513   5.060   1.062   0.067 -0.1966  0.0078 -0.1460
 2341TIP3    H128514   5.143   1.013   0.064 -0.5743 -0.7216  0.8121
 2341TIP3    H228515   5.040   1.068   0.160 -0.0723  2.1875 -0.2171
 2342TIP3   OH228516   5.393   5.751   2.094  0.0270 -0.2341 -0.0251
 2342TIP3    H128517   5.470   5.710   2.055  1.0053  0.2351  1.3377
 2342TIP3    H228518   5.320   5.723   2.039  1.0478 -1.4390 -0.8081
 2343TIP3   OH228519   2.632   5.430   0.941 -0.5150  0.3889  0.5348
 2343TIP3    H128520   2.563   5.454   1.003 -0.0325  2.1044  0.4393
 2343TIP3    H228521   2.650   5.510   0.892 -0.2131 -0.6869 -1.1820
 2344TIP3   OH228522   3.983   0.408   3.617 -0.5528 -0.1263  0.0764
 2344TIP3    H128523   3.900   0.454   3.625 -1.1489 -1.0278 -0.7273
 2344TIP3    H228524   3.970   0.325   3.663 -0.0809 -0.2382  0.0210
 2345TIP3   OH228525   2.105   4.348  15.379  0.6156 -0.1961  0.1476
 2345TIP3    H128526   2.136   4.373  15.291 -3.2163  2.3408 -0.7259
 2345TIP3    H228527   2.133   4.420  15.436  2.0720 -1.2590  0.8205
 2346TIP3   OH228528   1.439   3.396  16.884  0.2016  0.1992 -0.2381
 2346TIP3    H128529   1.487   3.342  16.820  0.9988  0.0228  0.4949
 2346TIP3    H228530   1.460   3.357  16.969 -1.4151  0.0045  0.0992
 2347TIP3   OH228531   1.793   6.780   3.080  0.0503  0.2147 -0.2174
 2347TIP3    H128532   1.861   6.794   3.014  0.6313  0.4999  0.4317
 2347TIP3    H228533   1.784   6.864   3.125 -1.5250  0.5164 -1.0011
 2348TIP3   OH228534   6.024   6.039   2.932  0.0085 -0.4922  0.0339
 2348TIP3    H128535   6.104   6.082   2.904  0.8819 -0.9744  1.6997
 2348TIP3    H228536   6.014   6.063   3.024 -3.8789  2.7673 -0.9421
 2349TIP3   OH228537   1.615   4.674  16.095  0.5099  0.7031  0.1149
 2349TIP3    H128538   1.645   4.708  16.011  1.4071 -0.6654 -0.1577
 2349TIP3    H228539   1.694   4.637  16.136 -0.1147  0.3558  1.0626
 2350TIP3   OH228540   2.868   3.052  13.468  0.1173  0.4852  0.3586
 2350TIP3    H128541   2.920   2.979  13.437 -0.2989  0.4187 -0.1983
 2350TIP3    H228542   2.877   3.049  13.563 -0.0834 -0.4383  0.3589
 2351TIP3   OH228543   5.975   1.452   4.835  0.7446  0.1465  0.1453
 2351TIP3    H128544   6.034   1.527   4.839  1.0118 -0.0842  0.7429
 2351TIP3    H228545   5.904   1.473   4.895  0.6943  0.0275  0.1288
 2352TIP3   OH228546   4.526   1.971   3.152 -0.1022 -0.0766 -0.7685
 2352TIP3    H128547   4.613   1.963   3.113  0.0673 -1.3999 -0.1908
 2352TIP3    H228548   4.488   2.048   3.111  1.6832  1.0977 -0.3656
 2353TIP3   OH228549   5.683   6.281   4.884  0.0918 -0.7980 -0.1655
 2353TIP3    H128550   5.654   6.330   4.807  0.0759 -1.6087 -0.6799
 2353TIP3    H228551   5.690   6.190   4.854  2.9045 -0.7126 -0.0161
 2354TIP3   OH228552   4.365   2.065   0.950 -0.1438  0.0800 -0.1044
 2354TIP3    H128553   4.279   2.023   0.953  0.4638 -1.1363  1.7902
 2354TIP3    H228554   4.387   2.068   0.857 -0.9803 -2.2555 -0.4432
 2355TIP3   OH228555   2.216   6.824  14.638  0.1393 -0.5649 -0.3090
 2355TIP3    H128556   2.248   6.895  14.581 -1.5815 -0.1056 -0.7610
 2355TIP3    H228557   2.292   6.801  14.692  0.7203  1.7902  0.0223
 2356TIP3   OH228558   0.745   3.658  11.646 -0.3500 -0.0556  0.3555
 2356TIP3    H128559   0.779   3.617  11.566 -0.1619  0.6202  0.0879
 2356TIP3    H228560   0.673   3.600  11.673 -0.7990  0.0241 -0.6215
 2357TIP3   OH228561   3.567   6.386   3.945  0.5136 -0.0942 -0.3669
 2357TIP3    H128562   3.549   6.478   3.924 -1.7141 -0.1915  0.7330
 2357TIP3    H228563   3.605   6.389   4.033 -0.6773 -0.2336  0.1808
 2358TIP3   OH228564   3.894   6.306   1.661  0.4932  0.2194 -0.2427
 2358TIP3    H128565   3.850   6.228   1.693  0.6150  0.7386  1.2429
 2358TIP3    H228566   3.857   6.320   1.574 -0.1273 -1.0043 -0.1976
 2359TIP3   OH228567   0.421   4.655  13.907 -0.1388 -0.5284  0.5298
 2359TIP3    H128568   0.366   4.616  13.839  1.2261  0.1098 -0.9914
 2359TIP3    H228569   0.394   4.746  13.911  0.1398 -0.4435  0.4778
 2360TIP3   OH228570   2.176   0.620  10.489 -0.3878 -0.3447  0.0007
 2360TIP3    H128571   2.098   0.632  10.437 -0.5481  1.7061  0.6028
 2360TIP3    H228572   2.153   0.656  10.575  0.3193 -2.3177  1.0800
 2361TIP3   OH228573   0.692   1.289  11.321  0.2482  0.3132 -0.4911
 2361TIP3    H128574   0.743   1.215  11.354 -0.2882  0.7888  1.5961
 2361TIP3    H228575   0.627   1.249  11.263  1.4990 -0.5505 -1.3300
 2362TIP3   OH228576   4.419   1.286   0.310  0.3254 -0.2808  0.1017
 2362TIP3    H128577   4.480   1.341   0.359  0.5970 -0.5078  0.0230
 2362TIP3    H228578   4.473   1.212   0.280  0.5693  0.6399 -1.8876
 2363TIP3   OH228579   6.194   4.772  11.847  0.0604 -0.7319  0.4509
 2363TIP3    H128580   6.281   4.776  11.807  0.1721  0.0894  0.7591
 2363TIP3    H228581   6.210   4.784  11.940 -0.5647  1.8693  0.2869
 2364TIP3   OH228582   2.097   1.541   5.529 -0.1718  0.4414 -0.2347
 2364TIP3    H128583   2.174   1.593   5.550  0.4140 -0.4526 -0.1126
 2364TIP3    H228584   2.117   1.503   5.443  0.2558 -1.1211  0.5311
 2365TIP3   OH228585   0.013   4.418  13.157 -0.0240  0.0946  0.1624
 2365TIP3    H128586  -0.005   4.372  13.075 -0.5436  1.1866 -0.3689
 2365TIP3    H228587   0.087   4.476  13.136  0.5270 -0.3647  0.7755
 2366TIP3   OH228588   4.492   2.129   0.410  0.5252  0.5632  0.2626
 2366TIP3    H128589   4.485   2.217   0.374  1.0232  1.1856  1.6122
 2366TIP3    H228590   4.403   2.094   0.408  0.7906 -0.5174 -3.9625
 2367TIP3   OH228591   3.904   1.186   0.653  0.7179 -0.4059 -0.0400
 2367TIP3    H128592   3.918   1.091   0.651 -1.9309 -0.8832  0.4549
 2367TIP3    H228593   3.830   1.198   0.712  0.9716  1.9962 -0.1239
 2368TIP3   OH228594   2.374   4.195  17.057  0.4410 -0.3189  0.5402
 2368TIP3    H128595   2.436   4.202  16.985  2.1591  0.6723  2.0303
 2368TIP3    H228596   2.389   4.108  17.094  1.8329  0.3101  1.5786
 2369TIP3   OH228597   3.744   3.582   5.728 -0.3277 -0.0870 -0.0068
 2369TIP3    H128598   3.791   3.498   5.726 -0.0890  0.0157  0.8280
 2369TIP3    H228599   3.728   3.598   5.820 -0.1892  0.8911 -0.1435
 2370TIP3   OH228600   0.883   2.705   4.463  0.3549  0.9631  0.2777
 2370TIP3    H128601   0.934   2.761   4.404  2.1304 -0.0762  0.7588
 2370TIP3    H228602   0.944   2.681   4.533 -0.6745 -0.6477  0.6823
 2371TIP3   OH228603   4.562   6.091  15.410 -0.0182  0.5593  0.1116
 2371TIP3    H128604   4.607   6.117  15.490  0.4024  3.6135 -0.9679
 2371TIP3    H228605   4.628   6.042  15.361  1.4233  2.7683 -0.3346
 2372TIP3   OH228606   5.589   0.432  14.005  0.1816 -0.5446 -0.4041
 2372TIP3    H128607   5.612   0.382  14.083 -1.4309 -0.7829 -0.0289
 2372TIP3    H228608   5.573   0.521  14.037 -0.9501 -0.7480 -0.3440
 2373TIP3   OH228609   2.361   1.628  16.013  0.5473  0.5474  0.0754
 2373TIP3    H128610   2.433   1.657  15.957 -0.8832  0.5702 -1.8342
 2373TIP3    H228611   2.341   1.540  15.982 -0.3352  0.5903  0.4994
 2374TIP3   OH228612   3.386   3.970   4.190 -0.0145 -0.4577  0.3539
 2374TIP3    H128613   3.343   3.884   4.190  1.4986 -1.2409  0.9606
 2374TIP3    H228614   3.461   3.960   4.132 -0.2305  0.7017 -0.1601
 2375TIP3   OH228615   2.628   2.169  15.743  0.1198  0.3268 -0.1409
 2375TIP3    H128616   2.718   2.199  15.757  0.0216  0.5995 -0.0686
 2375TIP3    H228617   2.587   2.242  15.696 -0.5039  0.9111  1.2545
 2376TIP3   OH228618   3.171   4.347   4.893  0.3645 -0.0121 -0.0791
 2376TIP3    H128619   3.160   4.282   4.963 -0.3918  1.4750  1.2573
 2376TIP3    H228620   3.083   4.361   4.859  0.7044 -0.5762 -1.2246
 2377TIP3   OH228621   3.255   3.796  15.932  0.4227 -0.1505 -0.1152
 2377TIP3    H128622   3.341   3.833  15.912  1.0900 -1.6282 -0.1196
 2377TIP3    H228623   3.235   3.828  16.020  0.6188  0.8197 -0.4124
 2378TIP3   OH228624   3.047   4.193  15.098 -0.2352  0.1078  0.8686
 2378TIP3    H128625   3.114   4.257  15.076 -0.3570  0.1998  0.7624
 2378TIP3    H228626   3.015   4.161  15.013  2.0486 -2.4730  0.8260
 2379TIP3   OH228627   6.255   6.810  11.537 -0.2171  0.0125 -0.0122
 2379TIP3    H128628   6.258   6.723  11.497  0.1418  0.0430 -0.0505
 2379TIP3    H228629   6.304   6.801  11.618  0.6022  0.4063 -0.4581
 2380TIP3   OH228630   6.041   6.282   4.967  0.4150 -0.4238  0.2622
 2380TIP3    H128631   6.029   6.212   4.903  0.3145 -0.6381  0.5160
 2380TIP3    H228632   6.131   6.270   4.998  0.8172  0.2805 -0.5529
 2381TIP3   OH228633   4.434   2.807   4.222 -0.3893 -0.2122 -0.1414
 2381TIP3    H128634   4.385   2.800   4.304 -1.0159 -0.7486 -0.5566
 2381TIP3    H228635   4.458   2.899   4.217  3.4689 -0.7908  2.8157
 2382TIP3   OH228636   1.783   3.774   1.475  0.0361  0.9343 -0.3991
 2382TIP3    H128637   1.695   3.736   1.487 -0.5633  2.5543  0.5389
 2382TIP3    H228638   1.839   3.724   1.534  0.4180 -1.9656 -2.9032
 2383TIP3   OH228639   4.100   0.648   1.448  0.3390  0.4944 -0.2506
 2383TIP3    H128640   4.188   0.672   1.420  0.1788  1.3984 -0.0287
 2383TIP3    H228641   4.110   0.617   1.538  0.2770  1.9262  0.2863
 2384TIP3   OH228642   5.612   4.006  14.666  0.3610  0.1711  0.1521
 2384TIP3    H128643   5.658   4.080  14.704  1.2052 -0.4956  0.4504
 2384TIP3    H228644   5.529   4.001  14.714  0.2364  0.9967  0.0322
 2385TIP3   OH228645   0.371   3.584  11.321 -0.4120 -0.2008  0.5407
 2385TIP3    H128646   0.382   3.677  11.300 -1.1436 -0.4209 -0.9056
 2385TIP3    H228647   0.445   3.541  11.278 -1.1141 -0.4917 -0.3928
 2386TIP3   OH228648   4.268   5.728  14.928 -0.3904  0.2155 -0.6988
 2386TIP3    H128649   4.189   5.751  14.977 -0.2166 -0.5143 -0.0556
 2386TIP3    H228650   4.338   5.733  14.992 -0.0430  0.0199 -1.0589
 2387TIP3   OH228651   6.730   6.297   1.554  0.2424 -0.4176  0.6103
 2387TIP3    H128652   6.744   6.377   1.503  1.4330 -0.7819  0.3275
 2387TIP3    H228653   6.792   6.305   1.627  1.9374 -2.0084 -0.5554
 2388TIP3   OH228654   3.411   2.480  10.762 -0.2166  0.1232  0.1570
 2388TIP3    H128655   3.502   2.485  10.793 -0.4428 -0.9854  1.0778
 2388TIP3    H228656   3.418   2.477  10.666  0.6901  0.4019  0.2066
 2389TIP3   OH228657   4.957   4.972  16.213  0.1294 -1.0620 -0.1821
 2389TIP3    H128658   5.034   4.944  16.164  0.2062 -2.8737  0.8868
 2389TIP3    H228659   4.882   4.951  16.156  0.3138 -1.3757 -0.3081
 2390TIP3   OH228660   0.306   6.193  12.359  0.2338  0.0850 -0.2161
 2390TIP3    H128661   0.211   6.200  12.363  0.2440 -0.2780  0.8284
 2390TIP3    H228662   0.326   6.192  12.265 -0.8977 -1.1919 -0.4697
 2391TIP3   OH228663   2.775   5.785  10.628  0.3030 -0.0273  0.0355
 2391TIP3    H128664   2.782   5.803  10.535  1.8407  1.9825  0.4615
 2391TIP3    H228665   2.688   5.817  10.652  0.5861  1.1145 -0.4105
 2392TIP3   OH228666   6.756   2.837   2.978 -0.2170 -0.4892  0.2626
 2392TIP3    H128667   6.715   2.879   2.902 -0.5491  2.4142  1.8737
 2392TIP3    H228668   6.850   2.842   2.961 -0.2782  0.4219  0.1090
 2393TIP3   OH228669   5.207   5.776   5.930  0.2912 -0.1458  0.1853
 2393TIP3    H128670   5.278   5.749   5.871 -0.2126 -0.0635 -0.4659
 2393TIP3    H228671   5.251   5.792   6.014  0.8037 -1.7058  0.2395
 2394TIP3   OH228672   5.814   1.120   6.594 -0.0762 -0.0538  0.2141
 2394TIP3    H128673   5.892   1.176   6.591 -0.1928  0.1022  0.0986
 2394TIP3    H228674   5.816   1.082   6.682  0.9862 -1.2780 -0.3090
 2395TIP3   OH228675   2.978   3.710  11.454 -0.1216 -0.5784 -0.2740
 2395TIP3    H128676   3.018   3.693  11.369  0.7910 -0.8403  0.2017
 2395TIP3    H228677   3.020   3.790  11.485 -0.6070 -0.3638 -0.1538
 2396TIP3   OH228678   3.645   1.904  14.168 -0.0965  0.0683 -0.4192
 2396TIP3    H128679   3.581   1.848  14.213 -0.5238 -0.0944 -1.2079
 2396TIP3    H228680   3.600   1.989  14.159 -0.7113 -0.3925 -2.0664
 2397TIP3   OH228681   5.816   2.243   4.215 -0.2478  0.0699  0.0653
 2397TIP3    H128682   5.872   2.167   4.201 -0.0060  0.4027 -0.8481
 2397TIP3    H228683   5.820   2.259   4.310 -1.4679 -1.9223  0.5075
 2398TIP3   OH228684   0.585   2.656   0.394 -0.0940  0.7011  0.2002
 2398TIP3    H128685   0.603   2.589   0.461 -0.1479 -1.1580 -1.5411
 2398TIP3    H228686   0.544   2.727   0.442 -0.2577 -0.6094  2.1253
 2399TIP3   OH228687   3.276   2.553  16.731  0.2247  0.6063 -0.2506
 2399TIP3    H128688   3.365   2.569  16.698  0.1035 -0.4119 -1.1225
 2399TIP3    H228689   3.280   2.579  16.823  1.8153 -0.7202  0.1164
 2400TIP3   OH228690   5.606   4.501   0.958  0.3444  0.0175 -0.4475
 2400TIP3    H128691   5.601   4.441   0.883 -0.1616 -0.6939  0.1458
 2400TIP3    H228692   5.567   4.582   0.926 -2.7759 -1.1887 -0.1041
 2401TIP3   OH228693   2.586   2.855   3.569 -0.2353 -0.1258  0.2205
 2401TIP3    H128694   2.566   2.948   3.566  0.5628  0.1152  1.7619
 2401TIP3    H228695   2.509   2.813   3.531  0.1890  1.2184 -2.3605
 2402TIP3   OH228696   6.040   0.180  11.881  0.0621 -0.4408 -0.6677
 2402TIP3    H128697   6.015   0.093  11.850 -0.7846 -0.9433  1.2880
 2402TIP3    H228698   5.979   0.199  11.953  1.1544  1.1402 -0.0954
 2403TIP3   OH228699   1.244   6.822   3.690 -0.3773  0.2641  0.1274
 2403TIP3    H128700   1.248   6.778   3.775  2.0243 -0.0879 -0.0864
 2403TIP3    H228701   1.210   6.755   3.630 -1.2694  0.2451  0.6430
 2404TIP3   OH228702   2.592   2.673  12.593 -0.2615 -0.4664 -0.1787
 2404TIP3    H128703   2.618   2.695  12.683  0.9149 -1.0884 -0.3483
 2404TIP3    H228704   2.516   2.617  12.603  0.3653 -1.2253  0.4747
 2405TIP3   OH228705   3.236   6.566  11.173  0.4508  0.2683  0.0169
 2405TIP3    H128706   3.200   6.649  11.205 -1.6764 -0.2114 -0.9228
 2405TIP3    H228707   3.309   6.548  11.232  0.3558  2.3028  0.8669
 2406TIP3   OH228708   3.440   5.776  10.407 -0.2137  0.6816  0.1117
 2406TIP3    H128709   3.455   5.839  10.477 -3.5277  1.0170  0.7171
 2406TIP3    H228710   3.398   5.701  10.450 -0.1552 -0.1355 -1.1857
 2407TIP3   OH228711   1.334   4.979   4.368 -0.0822  0.5394  0.3635
 2407TIP3    H128712   1.250   4.989   4.414 -0.4920 -0.4621 -0.1511
 2407TIP3    H228713   1.368   4.895   4.398  0.9679  1.1246  0.8961
 2408TIP3   OH228714   1.636   2.145  16.739 -0.2033  0.3186  0.7156
 2408TIP3    H128715   1.685   2.075  16.782 -1.4431 -0.7552  0.4325
 2408TIP3    H228716   1.576   2.177  16.806 -1.9152 -1.1432 -0.0229
 2409TIP3   OH228717   3.353   4.572   0.465 -0.5024  0.3816  0.2794
 2409TIP3    H128718   3.405   4.636   0.418  0.1480 -0.1230  0.3064
 2409TIP3    H228719   3.277   4.621   0.497 -1.7124  0.4681 -2.4863
 2410TIP3   OH228720   5.806   1.822   0.056 -0.3004  0.3691  0.1260
 2410TIP3    H128721   5.791   1.735   0.093  0.5939 -0.2985 -0.9876
 2410TIP3    H228722   5.730   1.873   0.082 -1.1705 -0.9362  0.2576
 2411TIP3   OH228723   5.583   5.865  16.269 -0.4841  0.2118 -0.0845
 2411TIP3    H128724   5.553   5.788  16.318  0.0254 -0.2703 -0.5264
 2411TIP3    H228725   5.654   5.901  16.323  1.9230 -1.8429 -1.6587
 2412TIP3   OH228726   6.200   4.471  11.676 -0.2082  0.6117  1.0008
 2412TIP3    H128727   6.185   4.492  11.768  0.4120  3.0294  0.6036
 2412TIP3    H228728   6.258   4.540  11.644  2.1699 -1.8618 -0.4731
 2413TIP3   OH228729   4.458   6.142  13.857  0.0885  0.3015 -0.0039
 2413TIP3    H128730   4.430   6.052  13.877 -0.5998  0.5962  0.4088
 2413TIP3    H228731   4.476   6.180  13.943 -0.7290  0.8990 -0.0828
 2414TIP3   OH228732   0.526   1.790  16.318 -0.5766  0.6220 -0.4185
 2414TIP3    H128733   0.571   1.863  16.361 -0.2908  0.1677  0.0740
 2414TIP3    H228734   0.587   1.716  16.327  0.1264  0.8290 -2.8555
 2415TIP3   OH228735   5.637   1.226  11.996  0.8020 -0.0310  0.0222
 2415TIP3    H128736   5.609   1.154  12.054  1.0360 -1.6260 -1.7513
 2415TIP3    H228737   5.602   1.305  12.038 -1.6478 -1.3931  0.7771
 2416TIP3   OH228738   5.603   5.142  14.483  0.6434 -0.5194 -0.0144
 2416TIP3    H128739   5.604   5.233  14.452 -1.0865  0.2386  1.8636
 2416TIP3    H228740   5.592   5.150  14.578 -1.9989 -2.6618 -0.0122
 2417TIP3   OH228741   2.663   0.871  15.363 -0.1113 -0.1298  0.1234
 2417TIP3    H128742   2.622   0.861  15.448 -1.0186 -0.6417 -0.3598
 2417TIP3    H228743   2.657   0.784  15.323 -0.6190  0.3343 -0.8611
 2418TIP3   OH228744   4.039   4.731   1.486  0.2918  0.0703 -0.0294
 2418TIP3    H128745   4.007   4.810   1.441  0.1994  0.1125  0.1109
 2418TIP3    H228746   4.132   4.728   1.463 -0.0373 -0.6823 -1.3683
 2419TIP3   OH228747   0.226   0.061  16.536  0.3611 -0.1478  0.3762
 2419TIP3    H128748   0.194   0.125  16.473  0.1045  0.2528  0.9008
 2419TIP3    H228749   0.149   0.039  16.589  0.6187 -0.3193  0.6856
 2420TIP3   OH228750   4.284   1.164   1.633  0.3826 -0.2432  0.0769
 2420TIP3    H128751   4.262   1.236   1.574  0.4393  0.3298  0.7444
 2420TIP3    H228752   4.272   1.200   1.721  1.4521 -0.7119  0.4311
 2421TIP3   OH228753   6.577   0.077  12.698  0.3564  0.0336 -0.2456
 2421TIP3    H128754   6.497   0.119  12.668  0.3314 -1.2382 -2.1353
 2421TIP3    H228755   6.643   0.105  12.634  0.5384 -1.9852 -0.9899
 2422TIP3   OH228756   0.631   3.974  16.209  0.4265  0.2572  0.3208
 2422TIP3    H128757   0.584   4.057  16.221  2.1401  1.2290  0.5899
 2422TIP3    H228758   0.646   3.969  16.115 -0.5552 -0.2686  0.1810
 2423TIP3   OH228759   5.481   5.333   3.874  0.0963  0.0003 -0.5538
 2423TIP3    H128760   5.491   5.242   3.847  0.7257  0.0657 -0.5553
 2423TIP3    H228761   5.546   5.345   3.944 -0.3332  0.3071 -0.2002
 2424TIP3   OH228762   1.178   3.897  14.638 -0.4322 -0.3108 -0.3496
 2424TIP3    H128763   1.230   3.835  14.586  0.7903  0.8400 -0.5764
 2424TIP3    H228764   1.119   3.937  14.575  0.9096  0.9359 -0.8891
 2425TIP3   OH228765   2.721   6.573   4.064  0.1786  0.0811  0.1645
 2425TIP3    H128766   2.643   6.627   4.071 -0.2433 -0.2316 -1.6435
 2425TIP3    H228767   2.747   6.556   4.154 -0.2043  2.5015  0.7945
 2426TIP3   OH228768   1.990   1.329   5.268  0.2876 -0.4815  0.0703
 2426TIP3    H128769   2.040   1.254   5.236 -1.9995 -1.1765 -2.2714
 2426TIP3    H228770   2.055   1.398   5.281  2.0493 -1.8387 -1.0883
 2427TIP3   OH228771   2.796   0.440  11.848 -0.3514  0.5552 -0.0730
 2427TIP3    H128772   2.701   0.435  11.838 -0.2626 -1.6789 -0.3935
 2427TIP3    H228773   2.814   0.391  11.928  0.4641  2.0819  0.7292
 2428TIP3   OH228774   0.923   6.077   0.526 -0.4794 -0.3759  0.5297
 2428TIP3    H128775   1.006   6.102   0.566  1.7426 -3.6120 -1.5399
 2428TIP3    H228776   0.905   5.989   0.561 -2.6344 -0.0972  0.2759
 2429TIP3   OH228777   0.181   5.633   5.471  0.3925 -0.3614 -0.4190
 2429TIP3    H128778   0.093   5.637   5.433 -1.0860 -2.5960  2.3697
 2429TIP3    H228779   0.211   5.723   5.471 -0.9531  0.2233 -3.3337
 2430TIP3   OH228780   5.764   5.063  11.516 -0.0578  0.3722  0.1520
 2430TIP3    H128781   5.688   5.069  11.459  0.5719 -0.6209 -0.8228
 2430TIP3    H228782   5.752   4.981  11.564 -0.4511  1.0704  1.2870
 2431TIP3   OH228783   0.389   4.512  16.015  0.4731 -0.7211 -0.2716
 2431TIP3    H128784   0.476   4.538  15.986  0.6391  0.5491  1.2236
 2431TIP3    H228785   0.384   4.543  16.105 -1.3492 -1.2098 -0.1702
 2432TIP3   OH228786   2.272   6.264  12.690 -0.2157 -0.0351 -0.0161
 2432TIP3    H128787   2.200   6.202  12.703 -1.7920  1.6871 -0.0831
 2432TIP3    H228788   2.329   6.250  12.766 -0.4913 -1.5748 -0.0539
 2433TIP3   OH228789   5.504   4.656  16.369 -0.1806  0.1154  0.2612
 2433TIP3    H128790   5.511   4.655  16.273 -1.1051 -0.6084  0.1819
 2433TIP3    H228791   5.441   4.586  16.388  1.0688 -0.7053  1.4868
 2434TIP3   OH228792   3.829   4.882   1.357  0.5856 -0.7182  0.6369
 2434TIP3    H128793   3.834   4.886   1.262 -0.4071 -0.8130  0.5736
 2434TIP3    H228794   3.767   4.812   1.375  3.0735 -2.8915  1.4278
 2435TIP3   OH228795   0.330   1.359  15.066  0.3179  0.3061 -0.3331
 2435TIP3    H128796   0.424   1.343  15.058  0.4265 -0.0695  1.2988
 2435TIP3    H228797   0.306   1.321  15.151 -1.6473 -1.0583 -1.4142
 2436TIP3   OH228798   5.183   4.321   4.183  0.1053  0.4538 -0.0887
 2436TIP3    H128799   5.251   4.258   4.158 -0.4529 -0.7342  1.2598
 2436TIP3    H228800   5.193   4.331   4.277 -1.4084  0.4705  0.0958
 2437TIP3   OH228801   2.540   1.829   1.250 -0.3171  0.3716 -0.0009
 2437TIP3    H128802   2.481   1.758   1.226 -0.5886 -0.1934  2.0797
 2437TIP3    H228803   2.563   1.871   1.168  0.0427 -2.2646 -1.3616
 2438TIP3   OH228804   0.772   5.087   2.717  0.7787  0.0882  0.0105
 2438TIP3    H128805   0.847   5.045   2.674  1.8521  0.4073  1.4821
 2438TIP3    H228806   0.772   5.177   2.683  1.9155  0.4796  0.9723
 2439TIP3   OH228807   5.552   4.190  14.377 -0.1044  0.6619  0.1429
 2439TIP3    H128808   5.531   4.267  14.429 -0.3067  0.9117 -0.3082
 2439TIP3    H228809   5.493   4.194  14.302  0.2605  0.3645 -0.1661
 2440TIP3   OH228810   2.390   6.504   5.517 -0.0343 -0.6372 -0.1140
 2440TIP3    H128811   2.485   6.498   5.510  0.0581 -1.5069  1.4639
 2440TIP3    H228812   2.373   6.591   5.552  0.2387 -0.7437  0.2844
 2441TIP3   OH228813   0.523   1.916  16.834 -0.0631  0.0201 -0.1438
 2441TIP3    H128814   0.616   1.901  16.846 -0.0754  0.4410  0.5465
 2441TIP3    H228815   0.508   2.003  16.871 -0.9475 -0.5619  0.9215
 2442TIP3   OH228816   0.217   2.357   3.513 -0.8013 -0.4395  0.2964
 2442TIP3    H128817   0.205   2.414   3.437  0.0059 -1.6452 -0.7740
 2442TIP3    H228818   0.239   2.272   3.476 -0.7253 -1.1499  1.8881
 2443TIP3   OH228819   5.916   2.882  16.830 -0.3402 -0.1096 -0.7822
 2443TIP3    H128820   5.910   2.789  16.811  3.3260 -0.2951 -1.7860
 2443TIP3    H228821   5.909   2.887  16.926  1.6609 -1.7505 -0.4838
 2444TIP3   OH228822   0.454   0.319  10.625  0.0445 -0.0997 -0.6879
 2444TIP3    H128823   0.438   0.232  10.588  0.5016 -0.1639 -0.7420
 2444TIP3    H228824   0.377   0.337  10.678  0.4329 -1.0164  0.2352
 2445TIP3   OH228825   3.192   3.855  10.690 -0.7006  0.0091  0.3555
 2445TIP3    H128826   3.190   3.949  10.710 -2.7405  0.2705 -0.8449
 2445TIP3    H228827   3.234   3.850  10.604 -0.6355 -0.1809  0.3975
 2446TIP3   OH228828   1.133   2.993   0.266 -0.4691  0.0078 -0.2031
 2446TIP3    H128829   1.129   2.921   0.329  1.1158 -0.3440 -0.4686
 2446TIP3    H228830   1.078   2.965   0.194 -0.4740 -0.5983  0.0325
 2447TIP3   OH228831   1.299   2.029  16.230  0.1708  0.3551 -0.3327
 2447TIP3    H128832   1.256   2.092  16.172 -1.2256  1.2330  1.5621
 2447TIP3    H228833   1.392   2.035  16.207 -0.2194  1.3258 -1.8266
 2448TIP3   OH228834   5.589   2.582   4.621  0.4789  0.2914 -0.5567
 2448TIP3    H128835   5.562   2.662   4.576 -2.0227  0.6333  1.3397
 2448TIP3    H228836   5.574   2.512   4.557  1.5173  1.1514 -1.8009
 2449TIP3   OH228837   0.327   4.198  13.924 -0.2938  0.0070 -0.2257
 2449TIP3    H128838   0.355   4.280  13.963  0.2220 -0.2185 -0.1083
 2449TIP3    H228839   0.306   4.142  13.999 -0.8040  0.0873 -0.3087
 2450TIP3   OH228840   0.421   0.857  11.323 -0.3550  0.2825 -0.4272
 2450TIP3    H128841   0.345   0.876  11.379  1.0886  0.6676  1.5030
 2450TIP3    H228842   0.389   0.872  11.234 -2.5277  0.4531  0.3149
 2451TIP3   OH228843   1.726   5.176   5.153  0.1655 -0.1405  0.1457
 2451TIP3    H128844   1.689   5.091   5.130  1.9959 -0.8592 -0.3703
 2451TIP3    H228845   1.735   5.173   5.248  0.4779 -0.6540  0.1056
 2452TIP3   OH228846   4.179   0.212  14.694  0.3003  0.1772 -0.0214
 2452TIP3    H128847   4.144   0.231  14.607  1.6216  0.1390 -0.5721
 2452TIP3    H228848   4.216   0.125  14.687 -0.1465 -0.0899  0.7698
 2453TIP3   OH228849   0.943   1.870  12.404  0.0863 -0.1413  0.2853
 2453TIP3    H128850   1.018   1.928  12.394  0.2363 -0.2457  0.7780
 2453TIP3    H228851   0.909   1.890  12.492 -0.5474  0.0121  0.0103
 2454TIP3   OH228852   2.509   3.750   2.382  0.4943 -0.2775  0.0062
 2454TIP3    H128853   2.461   3.673   2.413 -0.1766  0.6321  1.2731
 2454TIP3    H228854   2.443   3.801   2.334  1.7254 -2.2083 -4.2191
 2455TIP3   OH228855   1.603   3.498   4.895 -0.0032 -0.3987  0.0592
 2455TIP3    H128856   1.565   3.542   4.971 -0.3896  0.8311 -0.8121
 2455TIP3    H228857   1.529   3.454   4.853  0.0935 -0.5495  0.0445
 2456TIP3   OH228858   3.377   5.120   3.478 -0.4068  0.4040 -0.2505
 2456TIP3    H128859   3.426   5.060   3.422 -0.0452  1.3138 -0.9295
 2456TIP3    H228860   3.419   5.205   3.466  0.7439  0.3488  2.6806
 2457TIP3   OH228861   3.369   4.503   0.171 -0.6601 -0.8100 -0.2489
 2457TIP3    H128862   3.401   4.560   0.102 -3.5020  1.5296  0.1458
 2457TIP3    H228863   3.434   4.509   0.240 -0.1044  0.7076 -0.8698
 2458TIP3   OH228864   3.736   5.378  10.405 -0.3996 -0.1196  0.1210
 2458TIP3    H128865   3.688   5.438  10.347 -0.5791  0.1508  0.5448
 2458TIP3    H228866   3.828   5.403  10.393 -0.2375 -1.3338 -1.4869
 2459TIP3   OH228867   0.422   0.315  13.994  0.3393  0.4642 -0.4185
 2459TIP3    H128868   0.332   0.293  14.018 -0.4860  0.9694 -2.7547
 2459TIP3    H228869   0.451   0.241  13.941  0.6526  1.0583 -1.0943
 2460TIP3   OH228870   1.327   5.444   3.499  0.5036 -0.0528  0.1013
 2460TIP3    H128871   1.259   5.448   3.431 -0.5098 -1.7494  0.9561
 2460TIP3    H228872   1.279   5.458   3.581  1.1136 -1.5448  0.7403
 2461TIP3   OH228873   1.917   3.768  10.994 -0.1435 -0.8343  0.6304
 2461TIP3    H128874   1.923   3.678  10.964 -0.5805 -0.3898 -0.9029
 2461TIP3    H228875   1.827   3.794  10.975 -0.4276 -0.4776  2.3096
 2462TIP3   OH228876   1.367   0.866  14.732 -0.4582  0.1952 -0.5178
 2462TIP3    H128877   1.444   0.921  14.745 -0.7660  0.2576  1.2238
 2462TIP3    H228878   1.325   0.903  14.655  1.0004  0.4373 -1.2411
 2463TIP3   OH228879   2.600   0.133  15.314 -0.5273  0.0795  0.1109
 2463TIP3    H128880   2.507   0.156  15.307 -0.4086  0.9651  1.1895
 2463TIP3    H228881   2.601   0.039  15.328 -1.4452  0.3848  2.7621
 2464TIP3   OH228882   4.758   2.621   6.529 -0.1146 -0.2180  1.1288
 2464TIP3    H128883   4.692   2.555   6.510 -1.0041  1.1769 -1.1104
 2464TIP3    H228884   4.842   2.578   6.514 -0.6011 -1.2658  1.3610
 2465TIP3   OH228885   2.605   4.858   3.830 -0.9038 -0.6865 -0.0406
 2465TIP3    H128886   2.526   4.826   3.787 -0.9552  0.2290 -0.6578
 2465TIP3    H228887   2.590   4.952   3.839  0.4356 -0.3726 -0.8790
 2466TIP3   OH228888   2.094   6.136  16.735 -0.5942 -0.5152 -0.0774
 2466TIP3    H128889   2.176   6.158  16.691 -1.0298  0.3088 -0.5079
 2466TIP3    H228890   2.115   6.059  16.788  0.1984 -0.9129 -0.9387
 2467TIP3   OH228891   6.288   0.498   5.968  0.0356  0.1086 -0.5991
 2467TIP3    H128892   6.378   0.470   5.986 -0.3604 -2.4850 -2.1644
 2467TIP3    H228893   6.235   0.419   5.981 -2.7159  2.2668  3.8915
 2468TIP3   OH228894   0.869   4.047   0.217  0.3289 -0.0612 -0.3197
 2468TIP3    H128895   0.810   3.979   0.250  0.3806 -0.4653 -1.0458
 2468TIP3    H228896   0.939   4.000   0.173  1.1508  0.4194  0.4260
 2469TIP3   OH228897   4.767   3.445  11.307 -0.5120 -0.1761 -0.4851
 2469TIP3    H128898   4.828   3.429  11.379 -1.0549 -2.2026 -0.4076
 2469TIP3    H228899   4.684   3.406  11.336 -1.0881  0.0892 -1.6914
 2470TIP3   OH228900   5.842   3.939  12.888 -0.1115  0.4260  0.4603
 2470TIP3    H128901   5.856   3.855  12.845  0.2412  0.7724 -0.1162
 2470TIP3    H228902   5.906   3.939  12.960  1.8513  1.2986 -1.1634
 2471TIP3   OH228903   3.803   5.408   2.664 -0.4753  0.0196 -0.0765
 2471TIP3    H128904   3.770   5.497   2.650 -1.0486 -0.4700 -2.2500
 2471TIP3    H228905   3.725   5.358   2.689 -0.3920 -0.1210 -0.0976
 2472TIP3   OH228906   4.094   4.805   4.999 -0.8666 -0.0900  0.3150
 2472TIP3    H128907   4.136   4.843   5.077 -1.0828  1.1504 -0.1519
 2472TIP3    H228908   4.023   4.865   4.978 -0.7162 -0.3161 -0.9332
 2473TIP3   OH228909   6.552   0.330  16.028  0.0278  0.0789 -0.5135
 2473TIP3    H128910   6.586   0.274  15.959  0.1449  0.1407 -0.5055
 2473TIP3    H228911   6.463   0.352  16.000 -0.1794 -0.4683 -0.3019
 2474TIP3   OH228912   0.376   3.170  16.252 -0.2274 -0.3415 -0.1870
 2474TIP3    H128913   0.397   3.107  16.184 -0.7773 -1.4233  0.6052
 2474TIP3    H228914   0.457   3.218  16.266  0.7382 -2.0486  0.3776
 2475TIP3   OH228915   0.358   6.694  10.798 -0.6135 -0.2691  0.6242
 2475TIP3    H128916   0.365   6.760  10.728 -3.9864 -0.1599  0.2133
 2475TIP3    H228917   0.372   6.743  10.879  0.4944  0.1778  0.1868
 2476TIP3   OH228918   5.795   4.634   1.097  0.4649 -0.2969 -0.4538
 2476TIP3    H128919   5.827   4.546   1.117  0.4380 -0.7963 -2.3877
 2476TIP3    H228920   5.701   4.623   1.084  0.4462  0.0347 -0.6058
 2477TIP3   OH228921   2.005   1.918   1.565  0.4361 -0.2499 -0.9515
 2477TIP3    H128922   2.093   1.890   1.538  1.8612  1.7680  1.1453
 2477TIP3    H228923   1.989   1.998   1.515  0.2984  0.0020 -0.5105
 2478TIP3   OH228924   5.724   6.645   5.600  0.0938 -0.2245 -0.1155
 2478TIP3    H128925   5.667   6.591   5.654 -1.8680 -1.0021 -2.7441
 2478TIP3    H228926   5.785   6.685   5.662 -0.6746 -2.5843  2.3705
 2479TIP3   OH228927   4.490   6.130   0.285  0.0957 -0.0244  0.2662
 2479TIP3    H128928   4.400   6.158   0.301 -0.0260 -0.7231  0.8326
 2479TIP3    H228929   4.510   6.069   0.356  0.9910  0.0601  0.1019
 2480TIP3   OH228930   0.718   4.619   2.373  0.2951  0.2042 -0.0027
 2480TIP3    H128931   0.792   4.559   2.383 -1.1597 -1.8558 -0.8696
 2480TIP3    H228932   0.702   4.622   2.279  0.2011  1.8540  0.0367
 2481TIP3   OH228933   5.699   3.178  13.342  0.2823  0.4240 -0.5127
 2481TIP3    H128934   5.730   3.146  13.257  1.0011  0.3062 -0.2161
 2481TIP3    H228935   5.663   3.264  13.324  3.1628  1.7706 -0.5124
 2482TIP3   OH228936   5.039   1.489  16.067 -0.0146 -0.1305 -0.6404
 2482TIP3    H128937   4.968   1.471  16.005 -1.2957 -0.8821  1.0050
 2482TIP3    H228938   4.997   1.531  16.141  1.5223  0.8730 -0.2790
 2483TIP3   OH228939   1.605   2.532  13.672  0.1767 -0.0490 -0.4298
 2483TIP3    H128940   1.611   2.627  13.673  0.3138 -0.0596 -0.2921
 2483TIP3    H228941   1.608   2.506  13.764  1.2559 -0.2570 -0.5074
 2484TIP3   OH228942   4.267   6.698  15.681  0.1283 -0.0340 -0.1284
 2484TIP3    H128943   4.282   6.720  15.589 -1.2281  2.5456  0.1526
 2484TIP3    H228944   4.222   6.775  15.717  0.5655 -0.9600  2.6984
 2485TIP3   OH228945   2.617   3.293  10.655 -0.3329  0.1018  0.3359
 2485TIP3    H128946   2.672   3.241  10.596  1.2834  0.5790  1.3823
 2485TIP3    H228947   2.536   3.307  10.605  0.0442 -1.5414 -0.8152
 2486TIP3   OH228948   3.219   3.707  14.016 -0.9827  0.5318  0.1573
 2486TIP3    H128949   3.178   3.635  14.064 -0.9324  1.4774  1.6854
 2486TIP3    H228950   3.161   3.782  14.031 -0.6192  1.0035 -0.7369
 2487TIP3   OH228951   1.147   0.965  16.864 -0.0514  0.1118  0.0626
 2487TIP3    H128952   1.191   0.881  16.875 -0.0938  0.0854  0.0296
 2487TIP3    H228953   1.194   1.025  16.923 -1.9770 -0.6214  2.5206
 2488TIP3   OH228954   5.390   3.266   0.621 -0.1459 -0.4830  0.1766
 2488TIP3    H128955   5.445   3.233   0.550 -1.1474 -2.5259  0.2806
 2488TIP3    H228956   5.321   3.200   0.630 -0.0699 -0.2841  3.0325
 2489TIP3   OH228957   4.403   3.761   0.130  0.1233 -0.5939 -0.0849
 2489TIP3    H128958   4.317   3.797   0.106  0.6442  0.1449 -0.9030
 2489TIP3    H228959   4.463   3.836   0.123  0.8779 -1.1541  0.2648
 2490TIP3   OH228960   1.608   5.589  17.202 -0.4962 -0.3099  0.1864
 2490TIP3    H128961   1.629   5.558  17.290  0.0396  1.4452  0.7094
 2490TIP3    H228962   1.652   5.527  17.143  2.3258  0.5916  1.2102
 2491TIP3   OH228963   3.194   2.888  12.902 -0.7140 -0.1154  0.0280
 2491TIP3    H128964   3.157   2.970  12.870 -0.5122 -0.3250 -0.7744
 2491TIP3    H228965   3.168   2.823  12.836  0.8499 -0.3149 -0.4172
 2492TIP3   OH228966   1.401   6.807   2.119 -0.2659  0.4450  0.1072
 2492TIP3    H128967   1.378   6.871   2.051  1.7226  1.5982  0.4364
 2492TIP3    H228968   1.393   6.855   2.201  1.4084  0.3797  0.3461
 2493TIP3   OH228969   4.435   4.767   5.304 -0.3144 -0.5276  0.0556
 2493TIP3    H128970   4.458   4.704   5.373  0.0451 -1.2959 -0.7455
 2493TIP3    H228971   4.412   4.712   5.229 -1.7456  0.2779 -0.1238
 2494TIP3   OH228972   5.768   1.317   1.949  0.0406 -0.4704 -0.4706
 2494TIP3    H128973   5.811   1.341   1.866 -1.0509 -0.8244 -1.1624
 2494TIP3    H228974   5.775   1.222   1.953  1.5397 -0.3390  0.6844
 2495TIP3   OH228975   0.051   6.277  13.707 -0.5146  0.2106 -0.0548
 2495TIP3    H128976   0.089   6.241  13.787 -1.0951  1.8439  1.0254
 2495TIP3    H228977  -0.014   6.212  13.680 -0.2653 -0.4023  0.7754
 2496TIP3   OH228978   2.346   3.284   3.593  0.0371  0.3115 -0.7340
 2496TIP3    H128979   2.322   3.376   3.585  0.5727  0.5829  0.5827
 2496TIP3    H228980   2.378   3.275   3.683 -2.2969 -1.6670  0.0184
 2497TIP3   OH228981   5.755   0.213  15.275  0.1457  0.3434  0.3928
 2497TIP3    H128982   5.835   0.217  15.223 -0.7347  1.9377 -0.9520
 2497TIP3    H228983   5.704   0.142  15.236  1.2392 -1.3194  1.8567
 2498TIP3   OH228984   0.073   5.453   0.085  0.0284  0.6256 -0.5736
 2498TIP3    H128985   0.097   5.533   0.132 -0.1917  0.3289  0.0533
 2498TIP3    H228986  -0.009   5.425   0.125  0.0358  0.1535 -0.8785
 2499TIP3   OH228987   3.678   1.005   4.927  0.4817 -0.0218 -0.2077
 2499TIP3    H128988   3.726   0.963   4.998 -1.4725 -2.1644 -0.0340
 2499TIP3    H228989   3.698   1.098   4.936  0.9046 -0.3018  2.6775
 2500TIP3   OH228990   3.703   2.991  13.902 -0.1082 -0.9663 -0.1346
 2500TIP3    H128991   3.611   2.969  13.889 -0.2875  0.2057 -1.0316
 2500TIP3    H228992   3.725   2.952  13.986 -1.5149 -1.0108  0.2399
 2501TIP3   OH228993   1.979   4.190   1.921  0.1640  0.2601  0.0369
 2501TIP3    H128994   2.040   4.197   1.995 -0.6818  1.8588  0.6487
 2501TIP3    H228995   1.944   4.279   1.911 -0.0008 -0.0028 -2.0948
 2502TIP3   OH228996   1.872   6.796  17.224 -0.4625 -0.1254 -0.1267
 2502TIP3    H128997   1.924   6.776  17.147  0.4132  0.3964  0.3124
 2502TIP3    H228998   1.855   6.711  17.265 -0.6607 -0.3717 -0.7143
 2503TIP3   OH228999   0.838   4.944   1.319  0.4701  0.4060  0.0732
 2503TIP3    H129000   0.874   4.909   1.238  0.3127 -0.4193  0.3579
 2503TIP3    H229001   0.857   4.877   1.385  0.1242  0.8310  0.6112
 2504TIP3   OH229002   6.044   0.306  16.066 -0.2984 -0.1861  0.1136
 2504TIP3    H129003   6.126   0.354  16.058  0.3131 -1.2376 -0.1386
 2504TIP3    H229004   5.984   0.350  16.006 -0.0340  0.8183  0.5700
 2505TIP3   OH229005   3.209   0.880  13.014  0.0146  0.1657  0.1927
 2505TIP3    H129006   3.143   0.901  12.948  0.3274  1.9220  0.3980
 2505TIP3    H229007   3.158   0.856  13.092 -0.3496 -0.2334 -0.1555
 2506TIP3   OH229008   5.523   5.982  15.253  0.5566 -0.0981 -0.3869
 2506TIP3    H129009   5.534   5.984  15.158  1.0392 -0.2463 -0.3367
 2506TIP3    H229010   5.474   6.062  15.273  1.2867  0.4265 -0.6566
 2507TIP3   OH229011   3.486   1.762  10.666 -0.2019  0.9635  0.2340
 2507TIP3    H129012   3.526   1.766  10.753  0.0420 -0.1650  0.1846
 2507TIP3    H229013   3.530   1.830  10.616  3.0848 -1.3618 -0.3773
 2508TIP3   OH229014   1.651   3.718   5.304  0.0423 -0.3752 -0.2623
 2508TIP3    H129015   1.655   3.638   5.356 -0.1191 -0.7156 -0.7808
 2508TIP3    H229016   1.559   3.744   5.307  0.1291 -0.0918  0.0755
 2509TIP3   OH229017   6.492   2.189  15.770 -0.3768 -0.4525  0.1939
 2509TIP3    H129018   6.535   2.112  15.731  2.0125  0.6508  0.4355
 2509TIP3    H229019   6.532   2.263  15.724 -0.5290  0.7258  1.8802
 2510TIP3   OH229020   4.589   6.162   1.675  0.4940 -0.5944 -0.0614
 2510TIP3    H129021   4.661   6.118   1.720  0.3233 -1.7531 -0.8947
 2510TIP3    H229022   4.534   6.091   1.640 -0.5281  0.2657 -0.2768
 2511TIP3   OH229023   3.013   4.291  11.474 -0.5402 -0.4494  0.4856
 2511TIP3    H129024   3.014   4.371  11.527 -2.5456 -0.3400  0.4449
 2511TIP3    H229025   3.105   4.266  11.466  0.1652  1.9358  0.3861
 2512TIP3   OH229026   6.240   2.284  16.529 -0.3652  0.0692  0.3033
 2512TIP3    H129027   6.329   2.310  16.555 -0.4374  1.3883 -0.6750
 2512TIP3    H229028   6.243   2.188  16.527  0.8818  0.0752  0.8165
 2513TIP3   OH229029   4.213   3.399  13.712 -0.0532 -0.1124 -0.5559
 2513TIP3    H129030   4.238   3.437  13.628 -0.1118  0.3609 -0.3654
 2513TIP3    H229031   4.155   3.464  13.751  0.9582  0.2485  0.3951
 2514TIP3   OH229032   5.537   2.410   3.802  0.0909 -0.8693 -0.6374
 2514TIP3    H129033   5.610   2.470   3.791 -1.4929  1.0506 -1.3041
 2514TIP3    H229034   5.551   2.370   3.888  1.7140 -0.3198 -0.6107
 2515TIP3   OH229035   0.230   3.355   5.268  0.7401 -0.5452 -0.0255
 2515TIP3    H129036   0.147   3.394   5.294 -0.2691 -1.4932 -1.7123
 2515TIP3    H229037   0.280   3.350   5.350 -1.3779 -1.2478  1.3144
 2516TIP3   OH229038   1.530   3.448   3.793 -0.3338  0.1226 -0.5215
 2516TIP3    H129039   1.489   3.533   3.779 -2.6321 -0.8997 -0.3593
 2516TIP3    H229040   1.526   3.435   3.888 -1.4977 -0.8418 -0.6845
 2517TIP3   OH229041   3.576   6.816   0.781 -0.7772 -0.2727  0.5062
 2517TIP3    H129042   3.528   6.877   0.836 -0.2734 -0.3316  1.0128
 2517TIP3    H229043   3.522   6.737   0.779 -0.6836 -0.3535  1.1104
 2518TIP3   OH229044   0.359   5.875   3.810  0.1364  0.3612 -0.5250
 2518TIP3    H129045   0.453   5.879   3.791 -0.3577  2.9791 -3.1279
 2518TIP3    H229046   0.341   5.954   3.860 -0.7473  0.0586 -0.3525
 2519TIP3   OH229047   3.804   2.096   3.977  0.3997 -0.0193  0.1182
 2519TIP3    H129048   3.867   2.167   3.987 -0.2256  0.3593  1.5870
 2519TIP3    H229049   3.857   2.016   3.979  1.0709  0.3612 -1.1945
 2520TIP3   OH229050   2.826   1.171   1.507 -0.0261  0.2538 -0.0703
 2520TIP3    H129051   2.770   1.240   1.470 -0.0511 -0.7085 -1.8841
 2520TIP3    H229052   2.770   1.094   1.510  0.3859 -0.0221  0.7657
 2521TIP3   OH229053   3.994   2.564  14.646  0.4473  0.2372 -0.0823
 2521TIP3    H129054   3.912   2.613  14.643  0.1547 -0.2868 -0.8047
 2521TIP3    H229055   3.990   2.516  14.729 -1.0796 -1.6388 -1.1770
 2522TIP3   OH229056   6.545   4.097  12.417 -0.1567 -0.0575  0.4264
 2522TIP3    H129057   6.479   4.165  12.428  0.2405  0.5692 -0.8068
 2522TIP3    H229058   6.626   4.137  12.446  0.1226  0.1039 -0.5378
 2523TIP3   OH229059   0.585   3.607   2.977 -0.3239 -0.4923  0.0963
 2523TIP3    H129060   0.606   3.537   2.915  0.6838  0.6959 -0.9632
 2523TIP3    H229061   0.567   3.684   2.923 -0.7069  0.2620  1.2392
 2524TIP3   OH229062   4.576   5.441  11.804  0.1886  0.2777  0.9058
 2524TIP3    H129063   4.481   5.431  11.807  0.3085 -0.8888  1.0102
 2524TIP3    H229064   4.589   5.533  11.779 -0.9652  0.2107 -0.0212
 2525TIP3   OH229065   4.009   5.488  16.361  0.0687 -0.2377  0.6114
 2525TIP3    H129066   4.003   5.576  16.400  2.6670  0.3466 -0.1530
 2525TIP3    H229067   3.933   5.483  16.303 -0.0956  1.5429  0.6132
 2526TIP3   OH229068   0.750   4.079  11.631  0.3303  0.0009 -0.0764
 2526TIP3    H129069   0.815   4.122  11.576  0.8342  1.5454  1.6264
 2526TIP3    H229070   0.801   4.043  11.704 -0.5331 -0.2935  0.3949
 2527TIP3   OH229071   6.269   2.553   5.195 -0.0569 -0.2165 -0.2789
 2527TIP3    H129072   6.212   2.608   5.141  0.3604 -1.2245 -1.8343
 2527TIP3    H229073   6.333   2.614   5.231  0.4532  0.3559 -2.0318
 2528TIP3   OH229074   4.413   1.127  14.011  0.2574  0.3191 -0.7609
 2528TIP3    H129075   4.350   1.123  13.939  1.0000 -1.8647 -1.3644
 2528TIP3    H229076   4.471   1.200  13.989 -0.1315  0.3067 -1.8743
 2529TIP3   OH229077   4.055   1.715  11.814 -0.4173 -0.0115 -0.1654
 2529TIP3    H129078   3.987   1.733  11.880 -0.9919 -1.2118 -0.4162
 2529TIP3    H229079   4.034   1.628  11.780  0.5794  0.0855 -1.0841
 2530TIP3   OH229080   1.684   1.916   4.375  0.0553  0.2573  0.0593
 2530TIP3    H129081   1.649   1.922   4.286 -0.8593  2.0681  0.5067
 2530TIP3    H229082   1.631   1.848   4.417  0.4516 -0.5669 -0.7429
 2531TIP3   OH229083   2.325   5.235   2.032 -0.6583 -0.3034  0.0551
 2531TIP3    H129084   2.369   5.150   2.032 -0.3569 -0.2136 -2.3129
 2531TIP3    H229085   2.358   5.280   2.110  1.8995 -1.0321 -0.5327
 2532TIP3   OH229086   6.662   2.435   6.665  0.2326 -0.5887 -0.2313
 2532TIP3    H129087   6.593   2.463   6.726 -0.5631  0.5073 -1.5925
 2532TIP3    H229088   6.738   2.489   6.688 -0.0888 -0.1221 -0.2512
 2533TIP3   OH229089   6.337   3.151  15.038  0.1912 -0.1902  0.4983
 2533TIP3    H129090   6.270   3.219  15.048 -0.9555 -0.8593 -1.9713
 2533TIP3    H229091   6.414   3.198  15.007 -1.1480 -0.0345 -3.1476
 2534TIP3   OH229092   3.704   3.089   5.839  0.4946  0.3876 -0.2463
 2534TIP3    H129093   3.674   3.160   5.896  1.4286  0.1130  0.6194
 2534TIP3    H229094   3.663   3.010   5.875  1.1858  0.1960  0.1419
 2535TIP3   OH229095   0.524   3.724   3.516 -0.6743 -0.4948 -0.4793
 2535TIP3    H129096   0.438   3.746   3.552 -0.9352 -1.8969 -0.2138
 2535TIP3    H229097   0.570   3.808   3.512 -1.5323  0.0703  0.7755
 2536TIP3   OH229098   3.613   5.128  11.550  0.1272  0.0008  0.2229
 2536TIP3    H129099   3.586   5.039  11.575  1.9941 -0.8312 -0.4737
 2536TIP3    H229100   3.638   5.169  11.633  0.3983 -0.5564  0.4239
 2537TIP3   OH229101   0.350   2.458   2.922  0.5852 -0.4245  0.5997
 2537TIP3    H129102   0.432   2.486   2.963  1.8934 -2.0696 -0.7358
 2537TIP3    H229103   0.316   2.538   2.881  0.9450  0.5127  2.0384
 2538TIP3   OH229104   6.362   3.117   2.120 -0.0448  0.0832  0.2163
 2538TIP3    H129105   6.347   3.065   2.041  1.5564 -0.9372  0.5570
 2538TIP3    H229106   6.289   3.093   2.178 -1.6714  1.4072 -1.1680
 2539TIP3   OH229107   6.633   1.792  14.226 -0.0443  0.1445 -0.0986
 2539TIP3    H129108   6.685   1.794  14.146 -0.0507  2.9462 -0.1353
 2539TIP3    H229109   6.550   1.835  14.202 -0.4066  0.1911  1.1696
 2540TIP3   OH229110   6.353   1.924   3.625 -0.0774  0.1164  0.4485
 2540TIP3    H129111   6.367   1.902   3.533 -0.0143  0.5973  0.3430
 2540TIP3    H229112   6.307   2.008   3.623 -1.5969 -0.6563  0.8123
 2541TIP3   OH229113   6.075   1.172   3.793 -0.3769  0.2134  0.3845
 2541TIP3    H129114   6.033   1.223   3.862 -2.6722 -0.1520 -0.6534
 2541TIP3    H229115   6.070   1.081   3.824 -1.0414  0.0933 -0.0562
 2542TIP3   OH229116   0.851   1.925  12.151  0.4792 -0.0400 -0.6039
 2542TIP3    H129117   0.794   1.849  12.138  0.3007  0.2489 -1.5599
 2542TIP3    H229118   0.877   1.919  12.243 -1.7293  0.2740  0.0975
 2543TIP3   OH229119   3.950   6.114   2.043 -0.0646  0.1694  0.7393
 2543TIP3    H129120   3.855   6.126   2.046 -0.1346 -0.3015  0.5205
 2543TIP3    H229121   3.963   6.021   2.058  0.3313  0.1387  0.2577
 2544TIP3   OH229122   4.021   6.390   4.751  0.0849 -0.1748  0.3004
 2544TIP3    H129123   4.095   6.333   4.773 -0.2619 -1.0509 -0.7006
 2544TIP3    H229124   3.961   6.333   4.703 -0.3783  0.9927 -0.5398
 2545TIP3   OH229125   3.455   2.715  12.518  0.3514 -0.0064  0.5390
 2545TIP3    H129126   3.514   2.643  12.538  0.8209  0.0550 -0.5564
 2545TIP3    H229127   3.389   2.713  12.588  0.7037 -1.1061  0.8508
 2546TIP3   OH229128   0.728   1.799  10.658 -0.7863  0.1400  0.0347
 2546TIP3    H129129   0.811   1.835  10.627 -0.6791  2.9362  3.0948
 2546TIP3    H229130   0.664   1.827  10.592 -0.2439  3.9426  0.8983
 2547TIP3   OH229131   6.721   3.075  16.775  0.1805  0.2217  0.2472
 2547TIP3    H129132   6.805   3.069  16.822 -0.2092 -0.0572  0.9252
 2547TIP3    H229133   6.668   3.004  16.811  1.0059 -2.3330 -3.0720
 2548TIP3   OH229134   4.660   1.121   3.539  0.5807  0.1273 -0.0315
 2548TIP3    H129135   4.708   1.111   3.457  2.1371  1.6343  0.6088
 2548TIP3    H229136   4.665   1.215   3.558  0.3704 -0.1957  1.8217
 2549TIP3   OH229137   3.899   5.277  16.168  0.1869 -0.5026  0.2826
 2549TIP3    H129138   3.837   5.348  16.190 -0.1132 -0.5888 -0.2712
 2549TIP3    H229139   3.875   5.206  16.227  0.0452 -0.3841  0.3699
 2550TIP3   OH229140   4.090   6.714   3.644  0.7123  0.0214 -0.1358
 2550TIP3    H129141   4.173   6.738   3.685  0.9292 -1.4529  0.3498
 2550TIP3    H229142   4.050   6.797   3.621  1.4298  0.8365  1.3945
 2551TIP3   OH229143   6.555   2.705  13.394 -0.4737  0.1315 -0.7806
 2551TIP3    H129144   6.594   2.780  13.349 -0.9899  0.3076 -0.9523
 2551TIP3    H229145   6.606   2.630  13.365  1.0236  0.5745  0.5424
 2552TIP3   OH229146   0.826   3.464  11.475 -0.0831  0.0121 -0.5837
 2552TIP3    H129147   0.759   3.412  11.521  1.4459  0.0113  1.8248
 2552TIP3    H229148   0.904   3.409  11.478  0.6505  1.0040 -1.1774
 2553TIP3   OH229149   6.782   5.532  15.256 -0.5140 -0.0900  0.1368
 2553TIP3    H129150   6.798   5.507  15.166 -1.1024 -0.8783  0.2418
 2553TIP3    H229151   6.689   5.557  15.259 -0.2014  1.1601  0.2607
 2554TIP3   OH229152   1.357   4.087  12.925  0.0337  0.2198 -0.2567
 2554TIP3    H129153   1.292   4.041  12.979  1.2314  0.5224  1.5016
 2554TIP3    H229154   1.409   4.016  12.886 -0.4304  0.0155 -0.5177
 2555TIP3   OH229155   1.633   0.690   2.936 -0.3732  0.0844  0.2160
 2555TIP3    H129156   1.695   0.677   2.864 -1.5544 -3.3122 -0.3830
 2555TIP3    H229157   1.675   0.649   3.012 -0.3790  1.0549  0.7618
 2556TIP3   OH229158   2.044   5.539  13.546 -0.0732  0.3974  0.3343
 2556TIP3    H129159   2.097   5.541  13.626  1.1893  3.2650 -0.4433
 2556TIP3    H229160   1.978   5.606  13.559 -1.6016 -0.9792 -0.0099
 2557TIP3   OH229161   4.779   2.150  10.736  0.5062  0.1180  0.2147
 2557TIP3    H129162   4.711   2.184  10.677  2.1043  1.7681 -0.7908
 2557TIP3    H229163   4.766   2.199  10.817 -1.8374 -2.3147  1.4410
 2558TIP3   OH229164   0.842   1.205   1.357  0.8022  0.4322  0.1252
 2558TIP3    H129165   0.772   1.139   1.359 -0.5895  1.8551  0.0809
 2558TIP3    H229166   0.870   1.213   1.448  1.0582 -0.2654  0.1180
 2559TIP3   OH229167   6.042   1.059  16.346  0.2319 -0.2013  0.3702
 2559TIP3    H129168   6.055   1.134  16.404 -0.4677 -0.5386  0.9719
 2559TIP3    H229169   5.962   1.017  16.378  0.3381 -0.9178 -0.2743
 2560TIP3   OH229170   6.648   2.570   3.992  0.1185  0.1682 -0.9396
 2560TIP3    H129171   6.567   2.621   3.998  0.1352  0.0273  1.2417
 2560TIP3    H229172   6.638   2.500   4.057  1.6198 -0.3941 -1.2584
 2561TIP3   OH229173   5.237   3.979   6.442  0.2068  0.2599 -0.4385
 2561TIP3    H129174   5.145   3.965   6.466  0.7996 -1.6349  0.9501
 2561TIP3    H229175   5.263   4.056   6.490 -0.7730  1.1411 -1.2587
 2562TIP3   OH229176   1.787   0.548  15.745 -0.5711  0.2179  0.1760
 2562TIP3    H129177   1.750   0.548  15.833  1.3809  0.1695  1.0329
 2562TIP3    H229178   1.868   0.498  15.752  1.0435  2.4712 -0.9978
 2563TIP3   OH229179   0.226   6.168   4.390  0.1246 -0.2475  0.4148
 2563TIP3    H129180   0.271   6.169   4.474  0.5265 -0.0115  0.1991
 2563TIP3    H229181   0.296   6.157   4.325 -0.2212 -0.9298  0.1363
 2564TIP3   OH229182   4.618   5.009   2.064 -0.3475 -0.0634  0.6593
 2564TIP3    H129183   4.684   5.056   2.115 -0.2540  1.4712 -0.7835
 2564TIP3    H229184   4.535   5.050   2.088 -0.4593 -0.2254  0.5494
 2565TIP3   OH229185   4.892   2.187   6.094 -0.1441  0.1747 -0.4016
 2565TIP3    H129186   4.862   2.271   6.059  0.8759  1.4984  1.7113
 2565TIP3    H229187   4.817   2.152   6.141  0.0470  1.0189  0.5755
 2566TIP3   OH229188   4.225   0.400  13.648 -0.0948 -0.4232 -0.7458
 2566TIP3    H129189   4.157   0.339  13.619 -1.2268  0.6879 -0.5054
 2566TIP3    H229190   4.183   0.455  13.714  0.9587  0.4679 -0.7726
 2567TIP3   OH229191   1.616   3.718   3.141  0.3594  0.0313 -0.5655
 2567TIP3    H129192   1.680   3.788   3.132  0.8699 -0.5077 -1.2405
 2567TIP3    H229193   1.597   3.691   3.051  0.2972 -0.7986 -0.3192
 2568TIP3   OH229194   2.224   3.114  14.565 -0.2639  0.2794 -0.2721
 2568TIP3    H129195   2.160   3.142  14.500  1.6463 -1.0123 -2.9321
 2568TIP3    H229196   2.189   3.032  14.601 -0.2840 -0.2785 -1.5035
 2569TIP3   OH229197   3.641   2.205   0.699 -0.4162  0.9313  0.2944
 2569TIP3    H129198   3.573   2.157   0.653 -0.6680  1.5140  0.0542
 2569TIP3    H229199   3.605   2.293   0.712 -0.3535  0.7953  1.5818
 2570TIP3   OH229200   0.641   4.124   0.933 -0.2044  0.3339 -0.2225
 2570TIP3    H129201   0.655   4.212   0.968 -1.7261 -0.0034  1.3708
 2570TIP3    H229202   0.594   4.078   1.002  0.5575 -1.7611 -1.0110
 2571TIP3   OH229203   0.606   2.321   1.806 -0.0279  0.5706 -0.0620
 2571TIP3    H129204   0.609   2.415   1.823 -1.8231  0.5888  0.2772
 2571TIP3    H229205   0.515   2.296   1.823  0.1610 -1.0285 -1.2044
 2572TIP3   OH229206   2.493   2.073  11.068  0.1670  0.2067  0.5129
 2572TIP3    H129207   2.449   1.989  11.056 -0.6405  0.2467  2.6736
 2572TIP3    H229208   2.581   2.060  11.032 -1.2739 -0.0909 -3.2970
 2573TIP3   OH229209   3.635   3.488   1.146 -0.3559 -0.4187 -0.4257
 2573TIP3    H129210   3.631   3.582   1.131  0.8362 -0.0873  1.0347
 2573TIP3    H229211   3.618   3.449   1.061 -0.3194  1.1265 -1.1730
 2574TIP3   OH229212   6.404   2.324   6.070  0.3886 -0.4648 -0.0363
 2574TIP3    H129213   6.352   2.261   6.121  0.6704 -1.4705 -0.9590
 2574TIP3    H229214   6.440   2.384   6.136 -1.6223  0.0587  0.6752
 2575TIP3   OH229215   4.686   2.241   0.725 -0.2575 -0.0766  0.2442
 2575TIP3    H129216   4.708   2.244   0.631  0.7310 -0.3846  0.4472
 2575TIP3    H229217   4.591   2.253   0.728 -0.0910  1.6920 -0.6727
 2576TIP3   OH229218   6.750   3.530   1.108 -0.1467  0.2510  0.4393
 2576TIP3    H129219   6.811   3.456   1.102 -1.4205 -1.0264  2.2796
 2576TIP3    H229220   6.807   3.607   1.108  1.4156 -0.8399  1.0677
 2577TIP3   OH229221   4.035   6.648  13.938  0.3851 -0.0788 -0.2718
 2577TIP3    H129222   4.025   6.653  14.033 -0.6357 -1.2742 -0.2987
 2577TIP3    H229223   4.024   6.739  13.908  0.3697  0.2529  0.7093
 2578TIP3   OH229224   2.633   6.703   1.386 -0.0677  0.3993  0.0922
 2578TIP3    H129225   2.720   6.733   1.361 -0.4224  0.3011 -1.3122
 2578TIP3    H229226   2.628   6.721   1.480  1.9286 -0.7528  0.4776
 2579TIP3   OH229227   5.884   6.803   0.255  0.5718 -0.0027  0.2959
 2579TIP3    H129228   5.911   6.823   0.165 -1.3484  1.9461  0.0701
 2579TIP3    H229229   5.949   6.846   0.310  0.9132  0.0779 -0.1679
 2580TIP3   OH229230   1.026   0.974  15.555  0.2779  0.1420  0.5139
 2580TIP3    H129231   1.063   0.889  15.581 -0.2434 -0.1246  0.4035
 2580TIP3    H229232   1.102   1.032  15.548  0.6086 -0.2385  0.8834
 2581TIP3   OH229233   5.527   6.501   0.736  0.3064  0.1727 -0.5339
 2581TIP3    H129234   5.552   6.577   0.788 -1.0539  0.8196 -0.7899
 2581TIP3    H229235   5.599   6.490   0.674  1.6321 -0.2013  0.9938
 2582TIP3   OH229236   0.918   3.957   5.079  0.5589  1.0258 -0.2635
 2582TIP3    H129237   0.890   3.874   5.119  2.6601  0.1742 -0.4073
 2582TIP3    H229238   0.838   4.009   5.072 -0.7719 -0.8734  0.1157
 2583TIP3   OH229239   5.542   3.570   2.259  0.0482  0.6706 -0.2899
 2583TIP3    H129240   5.570   3.659   2.281  2.0162 -0.1405  0.7634
 2583TIP3    H229241   5.563   3.519   2.337 -0.7312 -0.7951 -1.0029
 2584TIP3   OH229242   3.940   3.203  14.605 -0.2180 -0.2464  0.1604
 2584TIP3    H129243   3.909   3.255  14.679 -1.2531 -0.9541  0.2480
 2584TIP3    H229244   4.023   3.166  14.635  0.5923  1.4105  0.0526
 2585TIP3   OH229245   0.042   5.527  13.108 -0.3626  0.4248  0.1123
 2585TIP3    H129246   0.040   5.622  13.119  1.3280  0.6419 -0.9747
 2585TIP3    H229247   0.102   5.496  13.176  1.3181  0.5101 -1.2577
 2586TIP3   OH229248   1.222   5.306   0.326 -0.0048 -0.1141  0.1738
 2586TIP3    H129249   1.188   5.246   0.261 -0.3352 -0.3237  0.5392
 2586TIP3    H229250   1.254   5.381   0.275 -1.9022  0.5410 -0.1274
 2587TIP3   OH229251   2.799   5.072   0.440 -0.2264 -0.1197 -0.0153
 2587TIP3    H129252   2.776   5.114   0.523  2.2633  0.4976  0.4529
 2587TIP3    H229253   2.813   4.980   0.463  1.5067  0.2424  0.5435
 2588TIP3   OH229254   1.856   6.755   4.501  0.0335 -0.0817  0.6424
 2588TIP3    H129255   1.951   6.767   4.504  0.2614 -1.2370 -0.9370
 2588TIP3    H229256   1.826   6.822   4.440  0.0314 -0.6872 -0.0313
 2589TIP3   OH229257   3.408   0.219  11.844  0.3944  0.2550  0.6317
 2589TIP3    H129258   3.339   0.154  11.857 -0.4516  1.3970  2.1898
 2589TIP3    H229259   3.374   0.277  11.776  2.1613 -2.1706 -2.5472
 2590TIP3   OH229260   1.164   3.519  10.487 -0.1030 -0.0511 -0.2526
 2590TIP3    H129261   1.232   3.582  10.510 -1.1313  1.4782 -1.1734
 2590TIP3    H229262   1.082   3.564  10.508 -0.8549 -1.4334 -0.1278
 2591TIP3   OH229263   5.261   0.397  14.589  0.2522 -0.2001  0.3659
 2591TIP3    H129264   5.210   0.317  14.593  0.4589 -0.3344  0.3545
 2591TIP3    H229265   5.352   0.368  14.596  0.3273  0.2752  5.4948
 2592TIP3   OH229266   3.173   4.318   2.822  0.0221  0.6554  0.7814
 2592TIP3    H129267   3.193   4.412   2.820  0.9648  0.4512 -0.7235
 2592TIP3    H229268   3.102   4.307   2.759  1.6330  0.0466 -1.0395
 2593TIP3   OH229269   5.006   4.289  11.459  0.0897 -0.3197 -0.4184
 2593TIP3    H129270   4.968   4.365  11.504  0.8320 -1.0604  1.5792
 2593TIP3    H229271   4.940   4.220  11.469  0.9459 -0.9674  1.0910
 2594TIP3   OH229272   0.552   1.660  10.877  0.0122  0.0233 -0.2790
 2594TIP3    H129273   0.622   1.677  10.813 -0.4344 -2.4459 -1.5768
 2594TIP3    H229274   0.471   1.675  10.828 -0.3381 -1.7951 -0.3217
 2595TIP3   OH229275   2.726   5.732  11.967  0.7694 -0.2812  0.0308
 2595TIP3    H129276   2.654   5.791  11.987  1.0438  0.2395 -0.4956
 2595TIP3    H229277   2.721   5.718  11.873  2.7949  1.7236 -0.4649
 2596TIP3   OH229278   0.620   6.048  15.159  0.2282  0.0243 -0.3623
 2596TIP3    H129279   0.626   6.143  15.171 -0.0046  0.3492 -2.3719
 2596TIP3    H229280   0.697   6.013  15.204 -0.8210  0.9157  2.2824
 2597TIP3   OH229281   1.673   0.809  15.781  0.0428  0.3803  0.3835
 2597TIP3    H129282   1.722   0.727  15.782 -0.9472 -0.2215  0.9831
 2597TIP3    H229283   1.618   0.806  15.859  0.6850  2.0640  0.9590
 2598TIP3   OH229284   6.715   6.266  16.520 -0.0761  0.0620 -0.0738
 2598TIP3    H129285   6.770   6.316  16.581  1.2553  0.1490 -1.2833
 2598TIP3    H229286   6.760   6.182  16.511 -2.6422 -1.7682  2.4701
 2599TIP3   OH229287   3.998   6.024   0.805  0.4514  0.1496 -0.6286
 2599TIP3    H129288   3.917   6.030   0.756  0.4126  2.9678 -0.3956
 2599TIP3    H229289   4.066   6.052   0.743  1.3351 -2.2304 -0.8459
 2600TIP3   OH229290   0.832   3.865   1.254  0.2119  0.0734  0.0819
 2600TIP3    H129291   0.813   3.777   1.223 -0.2700 -0.0182  0.6156
 2600TIP3    H229292   0.858   3.853   1.345 -0.0496  0.4977  0.2158
 2601TIP3   OH229293   3.912   1.962   3.416  0.7299 -0.4429  1.0679
 2601TIP3    H129294   3.882   1.883   3.462  1.6698 -0.7948  1.1019
 2601TIP3    H229295   3.990   1.990   3.464  1.8996 -0.9683 -0.4140
 2602TIP3   OH229296   2.785   2.799  15.809 -0.3079 -0.4153 -0.2752
 2602TIP3    H129297   2.802   2.706  15.824  1.4570 -0.1832 -0.6633
 2602TIP3    H229298   2.756   2.805  15.718  0.3017 -0.5219 -0.4824
 2603TIP3   OH229299   0.116   3.374   5.018  0.6300 -0.0866 -0.2454
 2603TIP3    H129300   0.120   3.469   5.005 -0.7777  0.0601  0.2673
 2603TIP3    H229301   0.158   3.360   5.103  0.1113  0.1731  0.0565
 2604TIP3   OH229302   1.810   4.068  15.338  0.8286  0.1929 -0.1353
 2604TIP3    H129303   1.854   4.077  15.254  0.6135  0.5794 -0.2087
 2604TIP3    H229304   1.881   4.063  15.402  0.9946 -0.2746 -0.3545
 2605TIP3   OH229305   1.504   0.712  11.685 -0.0227  0.4520  0.0940
 2605TIP3    H129306   1.439   0.643  11.694  0.2400 -0.1931 -2.2326
 2605TIP3    H229307   1.510   0.727  11.591  4.7062 -1.0677 -0.1360
 2606TIP3   OH229308   5.648   5.582   3.703  0.7647  0.0861  0.2389
 2606TIP3    H129309   5.680   5.659   3.749  1.9616 -1.4422  2.1356
 2606TIP3    H229310   5.699   5.581   3.621  0.2675  1.5975 -0.1273
 2607TIP3   OH229311   2.134   6.672  11.810  0.2558 -0.1498 -0.0175
 2607TIP3    H129312   2.139   6.727  11.889 -0.0845 -0.5607  0.3000
 2607TIP3    H229313   2.117   6.584  11.844  0.9380 -0.4807 -0.5094
 2608TIP3   OH229314   4.694   1.296  16.989  0.2096 -0.1472 -0.5214
 2608TIP3    H129315   4.701   1.210  17.031  0.9252  0.7405  1.2507
 2608TIP3    H229316   4.601   1.304  16.966 -0.0569 -0.9618  0.2149
 2609TIP3   OH229317   3.998   3.692  15.127 -0.1181 -0.2705  0.3699
 2609TIP3    H129318   4.048   3.625  15.172  2.3641 -1.3508 -3.4850
 2609TIP3    H229319   4.046   3.773  15.141  0.3939 -0.5156  0.0447
 2610TIP3   OH229320   1.042   6.174   4.168 -0.2427 -0.4624 -0.8636
 2610TIP3    H129321   1.078   6.229   4.238 -2.9181 -2.6074  2.5160
 2610TIP3    H229322   0.970   6.226   4.132 -0.1791 -0.1668 -0.5715
 2611TIP3   OH229323   6.406   3.806   4.098  0.0058 -0.4801 -0.1145
 2611TIP3    H129324   6.402   3.855   4.180 -0.1980 -0.7602  0.0437
 2611TIP3    H229325   6.327   3.753   4.098 -0.5545  0.3417 -1.0240
 2612TIP3   OH229326   2.814   4.364  15.531 -0.7276  0.3697 -0.3627
 2612TIP3    H129327   2.735   4.411  15.506 -0.7306  0.6702  0.2027
 2612TIP3    H229328   2.852   4.336  15.447 -1.7406 -0.3055 -0.6156
 2613TIP3   OH229329   0.251   0.287  11.809  0.6044 -0.2792  0.4887
 2613TIP3    H129330   0.175   0.256  11.858  1.1941 -2.1871  0.2868
 2613TIP3    H229331   0.215   0.338  11.737 -0.6598 -2.9029 -0.8649
 2614TIP3   OH229332   2.265   2.624  15.038 -0.0738 -0.3046  0.0221
 2614TIP3    H129333   2.350   2.643  15.079  0.2011 -0.3741 -0.4978
 2614TIP3    H229334   2.266   2.529  15.025 -0.2896 -0.3222  0.1390
 2615TIP3   OH229335   5.690   0.783  16.117  0.5614  0.4031 -0.2490
 2615TIP3    H129336   5.763   0.747  16.167 -0.3919 -1.4402 -0.0571
 2615TIP3    H229337   5.612   0.758  16.167 -0.3473 -0.2011 -1.8559
 2616TIP3   OH229338   0.968   3.022  11.338 -0.3543 -0.2575  0.0615
 2616TIP3    H129339   1.051   3.036  11.385 -0.0481 -1.5976 -0.0229
 2616TIP3    H229340   0.992   3.027  11.246 -0.4456 -0.2044  0.0417
 2617TIP3   OH229341   1.550   4.784  13.972 -0.0296 -0.0579 -0.1562
 2617TIP3    H129342   1.463   4.770  14.008 -0.0540  0.0895 -0.1555
 2617TIP3    H229343   1.589   4.851  14.029 -0.2282  0.4981 -0.6611
 2618TIP3   OH229344   2.953   1.818   3.152  0.5093  0.4962 -0.0142
 2618TIP3    H129345   2.859   1.826   3.134  0.3086 -3.0147 -1.2657
 2618TIP3    H229346   2.957   1.794   3.245  0.0305 -0.5126 -0.2386
 2619TIP3   OH229347   3.164   3.518  11.794  0.3716 -0.2074  0.3601
 2619TIP3    H129348   3.175   3.603  11.750 -2.1881  0.4247  0.7844
 2619TIP3    H229349   3.081   3.485  11.761  0.6502 -1.9314  1.2703
 2620TIP3   OH229350   0.139   4.445   1.303  0.2473  0.2520  0.5833
 2620TIP3    H129351   0.104   4.368   1.259  1.5895 -0.9239  1.4619
 2620TIP3    H229352   0.184   4.494   1.234 -0.5731  0.2296  0.0242
 2621TIP3   OH229353   5.230   5.653  10.632 -0.2881 -0.0586 -0.1925
 2621TIP3    H129354   5.289   5.593  10.586  1.2112 -0.8295  2.4785
 2621TIP3    H229355   5.211   5.608  10.715 -2.2318  1.5420  0.3116
 2622TIP3   OH229356   0.056   2.992   3.765 -0.5150 -0.0425 -0.1387
 2622TIP3    H129357  -0.032   3.027   3.750 -0.5695 -0.5032 -0.9977
 2622TIP3    H229358   0.043   2.900   3.786 -0.3424  0.3079  1.6511
 2623TIP3   OH229359   2.489   1.217   1.152  0.0094 -0.1394  0.1455
 2623TIP3    H129360   2.573   1.191   1.191 -0.1006  0.4917  0.8216
 2623TIP3    H229361   2.492   1.313   1.152 -0.2677 -0.1260 -0.8133
 2624TIP3   OH229362   5.167   4.970  16.587  0.3003 -0.0137 -0.4324
 2624TIP3    H129363   5.259   4.958  16.563  0.9573  2.4610  0.5909
 2624TIP3    H229364   5.147   5.060  16.564 -1.7040 -0.2920 -0.0108
 2625TIP3   OH229365   2.130   1.649  11.172  0.1200 -0.1886 -0.1994
 2625TIP3    H129366   2.140   1.670  11.079  2.0086 -0.1848 -0.0170
 2625TIP3    H229367   2.047   1.600  11.175 -0.0658 -0.0611 -1.8476
 2626TIP3   OH229368   0.397   5.108  15.054  0.8112 -0.7140 -0.2169
 2626TIP3    H129369   0.469   5.070  15.004  2.7272  0.9478  1.1146
 2626TIP3    H229370   0.429   5.193  15.081 -3.4859  2.5126 -3.7149
 2627TIP3   OH229371   6.705   5.519   0.825 -0.5115  0.1358  0.1736
 2627TIP3    H129372   6.731   5.611   0.825  1.0863 -0.2831  0.1487
 2627TIP3    H229373   6.654   5.508   0.904 -2.1670  1.4042 -0.6632
 2628TIP3   OH229374   4.257   2.004  13.377 -0.2017 -0.7001 -0.6414
 2628TIP3    H129375   4.271   1.951  13.456 -0.6015 -1.2402 -0.9307
 2628TIP3    H229376   4.310   1.962  13.310  0.5997  0.0953 -0.5393
 2629TIP3   OH229377   4.142   2.556  12.643 -0.4718 -0.3362  0.1725
 2629TIP3    H129378   4.169   2.472  12.681  3.6054  1.5166  1.9978
 2629TIP3    H229379   4.056   2.573  12.680  0.3393 -1.8908  3.0475
 2630TIP3   OH229380   6.513   3.016  13.371  1.1153 -0.4061 -0.7134
 2630TIP3    H129381   6.538   3.014  13.463 -1.5916  0.4143  0.1285
 2630TIP3    H229382   6.508   3.109  13.349  0.1638 -0.5575 -1.2041
 2631TIP3   OH229383   3.277   3.739   1.860  0.3269  0.5260  0.4224
 2631TIP3    H129384   3.201   3.722   1.916 -0.1455 -3.0056 -1.0211
 2631TIP3    H229385   3.242   3.785   1.784  0.2814  1.8167  1.1979
 2632TIP3   OH229386   1.991   4.333  12.165  0.4214 -0.3419  0.3464
 2632TIP3    H129387   2.067   4.385  12.141  0.3718 -0.5006 -0.1764
 2632TIP3    H229388   1.947   4.384  12.233 -0.6409  1.2299 -1.4196
 2633TIP3   OH229389   3.198   3.386   1.286 -0.1682  0.0977 -0.1836
 2633TIP3    H129390   3.286   3.369   1.319 -0.3579 -0.8469 -0.1401
 2633TIP3    H229391   3.146   3.312   1.316 -1.5135  1.6859  1.7068
 2634TIP3   OH229392   3.667   0.513   2.064  0.0041 -0.0423  0.1651
 2634TIP3    H129393   3.753   0.524   2.024 -0.8932  0.8806 -1.6044
 2634TIP3    H229394   3.628   0.600   2.062 -0.7869 -0.3341  1.4685
 2635TIP3   OH229395   4.519   0.085  14.458  0.3650 -0.3599  0.5839
 2635TIP3    H129396   4.510   0.180  14.453  0.9958 -0.3078  0.2578
 2635TIP3    H229397   4.490   0.062  14.547 -1.1955 -0.0509  0.1853
 2636TIP3   OH229398   2.227   5.584  13.745  0.3711  0.0412 -0.2344
 2636TIP3    H129399   2.193   5.521  13.809  0.1026 -0.5882 -0.9664
 2636TIP3    H229400   2.227   5.668  13.790 -0.7051 -0.2229  0.2977
 2637TIP3   OH229401   1.268   5.002  13.271  0.7702 -0.9960 -0.2679
 2637TIP3    H129402   1.256   4.919  13.317  0.6559 -0.3898  0.8202
 2637TIP3    H229403   1.279   5.067  13.340  1.1690 -0.1420 -1.1093
 2638TIP3   OH229404   5.412   3.798  15.875  0.3476  0.1281  0.2332
 2638TIP3    H129405   5.359   3.868  15.912 -0.4381 -1.3792  2.1509
 2638TIP3    H229406   5.477   3.779  15.941  0.4242 -1.0631 -0.1523
 2639TIP3   OH229407   5.969   3.192   2.726  0.3745  0.3244 -0.1371
 2639TIP3    H129408   5.892   3.232   2.765  0.9060  0.3144  0.9899
 2639TIP3    H229409   6.019   3.265   2.689  1.4237  0.8169  2.0563
 2640TIP3   OH229410   5.340   2.325   3.589 -0.3118 -0.1640 -0.0134
 2640TIP3    H129411   5.393   2.379   3.648 -0.4908  1.1874 -1.0287
 2640TIP3    H229412   5.300   2.259   3.646  1.9340 -0.8314  0.8675
 2641TIP3   OH229413   4.449   4.515  11.241  0.6566 -0.4091  0.2603
 2641TIP3    H129414   4.409   4.438  11.201 -0.3266 -0.1028  0.6119
 2641TIP3    H229415   4.378   4.579  11.245  1.7577  0.9774 -1.1636
 2642TIP3   OH229416   5.013   6.634  15.145 -0.7769 -0.0177 -0.6903
 2642TIP3    H129417   4.965   6.552  15.138 -0.2052 -0.6228  1.6453
 2642TIP3    H229418   4.949   6.697  15.178 -0.2202 -0.6856  1.8680
 2643TIP3   OH229419   1.910   1.520   1.120  0.0037 -0.1887 -0.0218
 2643TIP3    H129420   1.869   1.606   1.130  1.0132  0.3861 -0.6467
 2643TIP3    H229421   1.865   1.465   1.184 -2.1691  0.2231 -1.1063
 2644TIP3   OH229422   4.381   0.795   5.942 -0.1356 -0.4448  0.2628
 2644TIP3    H129423   4.467   0.812   5.903 -0.7520  1.1212 -0.5089
 2644TIP3    H229424   4.344   0.882   5.957 -1.5009 -1.0867  0.7800
 2645TIP3   OH229425   0.279   3.840  11.964 -0.4780 -0.5267 -0.0511
 2645TIP3    H129426   0.225   3.859  12.041  2.3724  0.5385  1.8602
 2645TIP3    H229427   0.217   3.836  11.892 -3.0525  0.9486  1.9053
 2646TIP3   OH229428   1.289   1.008  11.566  0.2512  0.0983  0.0639
 2646TIP3    H129429   1.235   0.947  11.616  1.5211 -0.6016  0.6189
 2646TIP3    H229430   1.245   1.015  11.481 -0.2669 -1.0648  0.2150
 2647TIP3   OH229431   1.665   1.283   4.475  0.0537 -0.0402  0.1036
 2647TIP3    H129432   1.628   1.253   4.558 -1.4850  0.2686 -0.4343
 2647TIP3    H229433   1.688   1.202   4.429 -0.3122 -0.2654  0.3061
 2648TIP3   OH229434   2.543   5.456   4.633  0.4654  0.2218  0.3297
 2648TIP3    H129435   2.608   5.524   4.616  0.4600  0.2763  0.5276
 2648TIP3    H229436   2.585   5.375   4.603  0.1844  0.4070 -0.6054
 2649TIP3   OH229437   3.130   4.990   3.552 -0.3696  0.3220  0.2686
 2649TIP3    H129438   3.127   4.940   3.633 -0.7788  1.0223  0.7000
 2649TIP3    H229439   3.219   5.026   3.549 -0.4529  0.5633  0.5845
 2650TIP3   OH229440   2.833   4.199   3.994 -0.1052 -0.0377  0.1809
 2650TIP3    H129441   2.848   4.134   3.925 -0.5902  1.9621 -1.8992
 2650TIP3    H229442   2.864   4.281   3.957 -2.3466  1.5115  1.5476
 2651TIP3   OH229443   1.880   2.324  15.409  0.1110  0.5102  0.0019
 2651TIP3    H129444   1.914   2.250  15.359 -0.4879 -0.8019  1.4338
 2651TIP3    H229445   1.848   2.285  15.490  0.0415  2.3970  0.9441
 2652TIP3   OH229446   1.402   1.540   6.270  0.1390  0.5404  0.4273
 2652TIP3    H129447   1.435   1.629   6.286 -1.6291  1.3559 -0.1278
 2652TIP3    H229448   1.332   1.528   6.334 -0.7347  0.2138 -0.5497
 2653TIP3   OH229449   5.709   4.189  13.444  0.1609 -0.2349  0.1207
 2653TIP3    H129450   5.715   4.126  13.516 -1.4534  0.0094  0.5156
 2653TIP3    H229451   5.700   4.274  13.487 -1.4324 -0.1436 -0.3240
 2654TIP3   OH229452   4.864   3.895   4.699  0.0808  0.0472  0.0208
 2654TIP3    H129453   4.929   3.871   4.633 -0.6481  1.1370 -1.1426
 2654TIP3    H229454   4.832   3.811   4.733  0.0938 -0.5594 -1.3983
 2655TIP3   OH229455   6.099   5.168   2.946 -0.1547  0.7692 -0.0848
 2655TIP3    H129456   6.032   5.105   2.968  1.9863 -1.7839 -0.3729
 2655TIP3    H229457   6.143   5.186   3.029  1.1158 -0.5129 -0.4407
 2656TIP3   OH229458   1.109   3.803  11.135 -0.2063  0.3476 -0.6147
 2656TIP3    H129459   1.014   3.810  11.143 -0.2666 -1.2894  0.7353
 2656TIP3    H229460   1.124   3.791  11.041 -1.4943 -1.0173 -0.6829
 2657TIP3   OH229461   6.467   4.906   5.581  0.1414  0.3109 -0.6288
 2657TIP3    H129462   6.407   4.966   5.626  1.3912  1.3181 -0.2549
 2657TIP3    H229463   6.412   4.831   5.556 -1.3267  1.3357 -0.5763
 2658TIP3   OH229464   1.259   2.425   4.688  0.5688  0.4614  0.3917
 2658TIP3    H129465   1.244   2.518   4.666  1.1644  0.4630 -0.0283
 2658TIP3    H229466   1.318   2.394   4.619  0.2962 -0.2573  0.4787
 2659TIP3   OH229467   1.074   2.665   0.166  0.3338  0.1443 -0.3857
 2659TIP3    H129468   0.991   2.619   0.174  1.2381 -1.6922 -0.9273
 2659TIP3    H229469   1.098   2.689   0.256  0.7284 -2.2146  0.2131
 2660TIP3   OH229470   5.822   6.717   5.059  0.2792 -0.1264  0.9389
 2660TIP3    H129471   5.873   6.783   5.012 -0.7282 -0.1499 -0.2257
 2660TIP3    H229472   5.819   6.750   5.149  1.0518  0.6474  0.7014
 2661TIP3   OH229473   3.666   3.613   0.049  0.0460 -0.1339  0.7129
 2661TIP3    H129474   3.589   3.610  -0.007  0.9471  1.7662 -0.7268
 2661TIP3    H229475   3.668   3.703   0.082  0.4222 -0.7736  2.5856
 2662TIP3   OH229476   4.874   0.603  14.603 -0.0072  0.5965  0.0933
 2662TIP3    H129477   4.945   0.602  14.540 -1.9655 -1.4537 -2.2987
 2662TIP3    H229478   4.803   0.649  14.558 -1.3499 -0.6045  0.9003
 2663TIP3   OH229479   2.260   2.336  11.264  0.3026 -0.2950 -0.1669
 2663TIP3    H129480   2.263   2.380  11.179 -0.3140 -3.6800 -2.1259
 2663TIP3    H229481   2.331   2.272  11.261 -0.9854 -1.8968  0.9531
 2664TIP3   OH229482   3.656   1.802  15.844 -0.4709 -0.6225  0.3580
 2664TIP3    H129483   3.734   1.844  15.808 -1.6568  1.5234  0.0634
 2664TIP3    H229484   3.594   1.802  15.770 -0.8705 -1.9599  0.6785
 2665TIP3   OH229485   1.775   4.635   5.767  1.1394 -0.3696  0.5182
 2665TIP3    H129486   1.803   4.723   5.791  1.6529 -0.0947 -0.9933
 2665TIP3    H229487   1.754   4.593   5.851 -0.7148  1.6834  1.1464
 2666TIP3   OH229488   2.845   5.843   1.738  0.5798 -0.0716  0.2100
 2666TIP3    H129489   2.910   5.895   1.691  1.9353 -1.8132  0.0403
 2666TIP3    H229490   2.846   5.877   1.827  1.7292 -0.0413  0.1987
 2667TIP3   OH229491   3.442   3.139   1.836  0.2373 -0.2784  0.0033
 2667TIP3    H129492   3.399   3.117   1.754  0.0013  0.9128 -0.2175
 2667TIP3    H229493   3.494   3.062   1.857 -1.8221 -1.7116  0.1894
 2668TIP3   OH229494   2.880   3.745   5.089  0.0114  0.1332 -0.2937
 2668TIP3    H129495   2.827   3.740   5.009  0.4887 -1.6895 -0.5380
 2668TIP3    H229496   2.866   3.834   5.121 -2.1784  0.1124 -1.0364
 2669TIP3   OH229497   1.563   6.661  12.739 -0.3240  0.4345 -0.0965
 2669TIP3    H129498   1.600   6.742  12.705  1.9703  1.5253  4.2692
 2669TIP3    H229499   1.626   6.593  12.713 -0.1037  0.7308 -0.3423
 2670TIP3   OH229500   4.428   4.050  11.033  0.6336  0.0745 -0.3145
 2670TIP3    H129501   4.385   3.974  10.994  0.1231 -0.6549  1.5427
 2670TIP3    H229502   4.366   4.122  11.019  0.7565 -0.0166 -1.3882
 2671TIP3   OH229503   1.716   4.813   2.531 -0.4908  0.2205  0.1563
 2671TIP3    H129504   1.798   4.791   2.575 -0.2684  0.5428 -0.0962
 2671TIP3    H229505   1.697   4.903   2.558  0.5644  1.0802 -1.7565
 2672TIP3   OH229506   2.067   0.267   3.979 -0.4084 -0.2846  0.4339
 2672TIP3    H129507   2.045   0.293   3.889  0.2607  1.1260  0.6465
 2672TIP3    H229508   2.149   0.217   3.971 -0.1763  0.1182  0.2878
 2673TIP3   OH229509   4.522   6.352   3.145 -0.1646  0.2918 -0.1094
 2673TIP3    H129510   4.482   6.265   3.132  0.4972 -0.4614  2.3997
 2673TIP3    H229511   4.472   6.409   3.087 -0.0541 -1.8797 -2.5306
 2674TIP3   OH229512   4.505   1.538  14.739  0.0317  0.1971  0.5241
 2674TIP3    H129513   4.599   1.536  14.721 -0.2945 -0.6924 -1.3384
 2674TIP3    H229514   4.472   1.457  14.701 -2.1125  2.3970 -2.7664
 2675TIP3   OH229515   5.140   6.363   3.498  0.3950 -0.0029  0.2589
 2675TIP3    H129516   5.151   6.458   3.490 -0.7908  0.1588  0.3598
 2675TIP3    H229517   5.076   6.340   3.431  0.7291 -0.7485  0.1823
 2676TIP3   OH229518   4.645   0.344  13.660  0.1112 -0.1398  0.2814
 2676TIP3    H129519   4.638   0.313  13.570 -0.3623  1.7666 -0.3749
 2676TIP3    H229520   4.730   0.311  13.690  0.1560 -1.0257 -0.7570
 2677TIP3   OH229521   2.443   4.277   4.021  0.0738 -0.1154  0.2875
 2677TIP3    H129522   2.421   4.207   3.959  0.8270 -0.8964  0.8788
 2677TIP3    H229523   2.473   4.349   3.966  0.2433 -0.6160 -0.2922
 2678TIP3   OH229524   2.401   1.609  14.610 -0.3476 -0.0794  0.4772
 2678TIP3    H129525   2.456   1.534  14.633 -0.1216 -0.3250 -0.7653
 2678TIP3    H229526   2.393   1.604  14.515  0.6338  2.1011  0.2070
 2679TIP3   OH229527   6.479   3.874   2.158  0.3908  0.6329 -0.2526
 2679TIP3    H129528   6.560   3.823   2.162  0.7479  1.2249  0.4714
 2679TIP3    H229529   6.468   3.894   2.065  0.6636 -0.0937 -0.4495
 2680TIP3   OH229530   0.340   0.831  15.140 -0.1277 -0.1856  0.5161
 2680TIP3    H129531   0.292   0.766  15.192 -1.3859 -0.0137 -0.3607
 2680TIP3    H229532   0.432   0.812  15.156 -0.4673 -2.0457  0.4811
 2681TIP3   OH229533   2.826   6.070  12.478  0.0122 -0.2032  0.3974
 2681TIP3    H129534   2.736   6.050  12.452 -0.1228  1.0840 -0.1820
 2681TIP3    H229535   2.869   6.096  12.396  1.7734 -3.6062  0.0747
 2682TIP3   OH229536   2.759   4.078   6.398  0.2862 -0.0642  0.0854
 2682TIP3    H129537   2.686   4.016   6.404  0.8906 -0.8489 -0.3747
 2682TIP3    H229538   2.812   4.045   6.326  1.4926  0.0584  0.8839
 2683TIP3   OH229539   3.271   2.500   5.513 -0.0361  0.0387 -0.2335
 2683TIP3    H129540   3.183   2.488   5.550  0.3747  0.0611  0.7554
 2683TIP3    H229541   3.257   2.495   5.418 -1.2856  1.1815 -0.1361
 2684TIP3   OH229542   1.497   6.759  12.176  0.2128  0.2884  0.0641
 2684TIP3    H129543   1.537   6.734  12.093  0.0369  0.7641 -0.1654
 2684TIP3    H229544   1.523   6.850  12.189 -1.8805  1.0487 -0.7520
 2685TIP3   OH229545   3.939   0.882   1.790 -0.2699 -0.0526 -0.7076
 2685TIP3    H129546   4.017   0.922   1.828 -0.0848 -1.9359  1.1295
 2685TIP3    H229547   3.901   0.950   1.735  2.4145  1.0651 -1.3289
 2686TIP3   OH229548   5.110   1.820   6.328  0.6914 -0.0505  0.4304
 2686TIP3    H129549   5.046   1.819   6.399  1.4540 -1.6850  1.1455
 2686TIP3    H229550   5.186   1.775   6.364  2.0290  1.2715 -0.6151
 2687TIP3   OH229551   3.327   5.882   1.632  0.0472  0.0066  0.2316
 2687TIP3    H129552   3.316   5.787   1.636  0.4840 -0.0104  1.4254
 2687TIP3    H229553   3.374   5.905   1.712  0.9160  1.1059 -0.5498
 2688TIP3   OH229554   2.517   1.006   3.844 -0.6882  0.3328 -0.0173
 2688TIP3    H129555   2.511   1.068   3.917 -0.0041  0.7878 -0.3418
 2688TIP3    H229556   2.438   0.952   3.853 -0.5540  0.3051  1.1218
 2689TIP3   OH229557   6.178   1.262   3.559 -0.3876 -0.8640 -0.6440
 2689TIP3    H129558   6.162   1.222   3.645 -0.5543 -0.0243 -0.2779
 2689TIP3    H229559   6.146   1.197   3.496 -4.4738  0.2531 -0.0154
 2690TIP3   OH229560   4.127   2.379   4.211 -0.0132 -0.4416 -0.0382
 2690TIP3    H129561   4.222   2.393   4.206 -0.1929  1.2579  0.4836
 2690TIP3    H229562   4.107   2.324   4.136  1.6248 -2.4810  0.9321
 2691TIP3   OH229563   6.427   5.975  16.924 -0.2251  0.0534 -0.0924
 2691TIP3    H129564   6.389   6.012  17.004 -0.4028 -1.1143  0.3794
 2691TIP3    H229565   6.474   6.048  16.884 -0.0854  0.6465  1.1145
 2692TIP3   OH229566   5.637   3.989   5.749  0.3121  0.9174  0.4149
 2692TIP3    H129567   5.569   4.018   5.687  0.1452 -0.6925 -0.2079
 2692TIP3    H229568   5.710   3.962   5.694  0.6957  0.7635  0.9910
 2693TIP3   OH229569   3.167   1.420  12.302 -0.2440  0.7170 -0.1713
 2693TIP3    H129570   3.096   1.375  12.255 -0.1127 -1.3621  1.4701
 2693TIP3    H229571   3.235   1.353  12.312  0.8975  1.9398  0.4909
 2694TIP3   OH229572   0.116   1.917  12.587 -0.1265  0.6119 -0.1582
 2694TIP3    H129573   0.072   1.967  12.656  1.9262  1.0863  0.8572
 2694TIP3    H229574   0.167   1.981  12.538  1.7752 -0.2827  0.5623
 2695TIP3   OH229575   3.443   6.818  14.973  0.0366 -0.3721  0.1112
 2695TIP3    H129576   3.514   6.848  14.916  0.2128 -1.2445 -0.1371
 2695TIP3    H229577   3.364   6.855  14.934  0.0575 -1.6150 -1.2067
 2696TIP3   OH229578   5.404   0.916  11.260  0.4748  0.0874 -0.3808
 2696TIP3    H129579   5.313   0.888  11.262 -0.3683  2.5265 -0.7702
 2696TIP3    H229580   5.414   0.959  11.175  1.3214  1.8110  0.5423
 2697TIP3   OH229581   0.342   0.955  15.412 -0.8063  0.2409 -0.5206
 2697TIP3    H129582   0.248   0.975  15.406 -0.7356  0.2736 -1.7884
 2697TIP3    H229583   0.348   0.861  15.392 -0.5189  0.3689 -1.0559
 2698TIP3   OH229584   0.607   5.045   4.513  0.0139 -0.2169 -0.7021
 2698TIP3    H129585   0.587   5.014   4.425 -0.4242 -0.1982 -0.6126
 2698TIP3    H229586   0.544   5.000   4.569 -0.4890  0.6484 -0.5437
 2699TIP3   OH229587   5.395   5.295   1.996 -0.1375  0.2477  0.0246
 2699TIP3    H129588   5.354   5.211   1.979 -0.1873 -0.1717  1.9489
 2699TIP3    H229589   5.357   5.324   2.079 -2.9457  3.9976 -2.2485
 2700TIP3   OH229590   0.468   0.721  14.608 -0.3344  0.2916  0.2880
 2700TIP3    H129591   0.448   0.712  14.701  0.3891  0.4286  0.4689
 2700TIP3    H229592   0.389   0.692  14.563 -1.1232  1.3345  0.9533
 2701TIP3   OH229593   6.618   6.552  11.219  0.0707  0.5772 -1.1434
 2701TIP3    H129594   6.533   6.530  11.180  0.6011 -1.0317 -1.4876
 2701TIP3    H229595   6.679   6.549  11.146  1.0891 -2.4979 -0.3275
 2702TIP3   OH229596   2.751   0.558   2.068 -0.4643  0.6074  0.0196
 2702TIP3    H129597   2.671   0.607   2.088 -1.0320 -0.2212 -0.1829
 2702TIP3    H229598   2.757   0.559   1.973 -1.1939 -0.8099 -0.0618
 2703TIP3   OH229599   2.182   1.991  12.684 -0.0170 -0.4876  0.3720
 2703TIP3    H129600   2.187   2.066  12.625 -0.4697 -1.1683 -0.5792
 2703TIP3    H229601   2.272   1.960  12.691  0.0532 -0.3559  0.0890
 2704TIP3   OH229602   1.820   2.024  16.537  0.0862  0.0878 -0.5223
 2704TIP3    H129603   1.876   1.951  16.565  0.9047  0.8622 -0.0625
 2704TIP3    H229604   1.755   2.032  16.607 -0.9385 -1.1486 -1.3122
 2705TIP3   OH229605   4.289   4.293  12.247  0.4517 -0.3515  0.1755
 2705TIP3    H129606   4.255   4.267  12.161 -0.0829  0.2501  0.1958
 2705TIP3    H229607   4.275   4.216  12.302  0.9851 -0.8152 -0.3203
 2706TIP3   OH229608   2.341   3.930   1.145 -0.4129 -0.3329 -0.1731
 2706TIP3    H129609   2.285   4.001   1.116 -0.8088 -1.1297 -1.4269
 2706TIP3    H229610   2.399   3.913   1.071 -1.1603 -2.1377 -0.3998
 2707TIP3   OH229611   1.463   1.307   5.275  0.4565 -0.0959  0.2032
 2707TIP3    H129612   1.531   1.290   5.210 -1.1320 -0.1256 -1.5166
 2707TIP3    H229613   1.445   1.221   5.314  1.2041 -0.1298  0.4827
 2708TIP3   OH229614   4.675   5.722  13.930  0.5528 -0.0537 -0.3597
 2708TIP3    H129615   4.687   5.736  13.836  0.0569 -1.5738 -0.6683
 2708TIP3    H229616   4.592   5.676  13.938  0.8543 -0.4411  0.7768
 2709TIP3   OH229617   0.387   5.738  16.651 -0.0887 -0.3001 -0.1328
 2709TIP3    H129618   0.384   5.643  16.636 -1.0679 -0.1163 -1.2179
 2709TIP3    H229619   0.480   5.756  16.668  0.8768 -0.9582 -3.7549
 2710TIP3   OH229620   3.263   3.444   5.254  0.4863  0.0332 -0.1074
 2710TIP3    H129621   3.325   3.504   5.212  1.5605  0.3258  1.8224
 2710TIP3    H229622   3.306   3.359   5.250  0.0055 -0.1945 -0.7125
 2711TIP3   OH229623   0.113   5.917   4.970 -0.6173  0.9007  0.2113
 2711TIP3    H129624   0.198   5.917   4.926 -0.7311  2.4730 -0.0957
 2711TIP3    H229625   0.128   5.968   5.050 -1.2370  1.1199  0.1938
 2712TIP3   OH229626   4.826   6.565   1.418 -0.6935  0.4694  0.2015
 2712TIP3    H129627   4.805   6.472   1.423 -2.2586  0.7910  0.0652
 2712TIP3    H229628   4.805   6.600   1.504  0.1226  0.6662  0.3303
 2713TIP3   OH229629   2.787   1.772  10.518  0.1878  0.3553 -0.3644
 2713TIP3    H129630   2.775   1.678  10.535 -0.3006  0.2755 -1.0908
 2713TIP3    H229631   2.882   1.783  10.512  0.2394 -0.1571 -0.5816
 2714TIP3   OH229632   6.322   5.813  10.494  0.1400  0.3735  0.2000
 2714TIP3    H129633   6.335   5.729  10.536  0.3641 -0.0855 -0.7544
 2714TIP3    H229634   6.281   5.792  10.410 -0.5038  1.2780  0.2728
 2715TIP3   OH229635   0.298   5.183  16.109  0.6309 -0.9817  0.0070
 2715TIP3    H129636   0.274   5.108  16.055  0.9070  0.5939 -2.4778
 2715TIP3    H229637   0.393   5.184  16.109  0.6324 -0.7911  0.2835
 2716TIP3   OH229638   6.528   2.066   5.927 -0.0850 -0.0362 -0.2924
 2716TIP3    H129639   6.623   2.082   5.935  0.4155 -2.2769 -1.0581
 2716TIP3    H229640   6.498   2.055   6.017  0.3965  0.5464 -0.0516
 2717TIP3   OH229641   2.748   2.625   2.215 -0.2723  0.3871 -0.7574
 2717TIP3    H129642   2.673   2.589   2.262 -2.2140  3.0905 -1.5437
 2717TIP3    H229643   2.710   2.682   2.148  2.4785  0.3977 -2.4929
 2718TIP3   OH229644   4.472   1.504   3.206  0.2740 -0.4108 -0.5128
 2718TIP3    H129645   4.489   1.592   3.241  1.0995 -0.4426 -0.8093
 2718TIP3    H229646   4.381   1.487   3.229  0.4124  0.0917  0.4915
 2719TIP3   OH229647   3.890   1.460   4.663  0.1628  0.0520 -0.6876
 2719TIP3    H129648   3.828   1.462   4.591  0.1677  0.6526 -0.6798
 2719TIP3    H229649   3.861   1.529   4.722  0.9837  0.5052 -0.8023
 2720TIP3   OH229650   2.206   3.426  15.895 -0.2121 -0.1495  0.5692
 2720TIP3    H129651   2.138   3.411  15.829  0.1891 -1.8053  0.4818
 2720TIP3    H229652   2.287   3.433  15.845 -0.0513 -0.3238  0.8006
 2721TIP3   OH229653   2.373   0.018  12.234  0.8046  0.0977 -0.5077
 2721TIP3    H129654   2.377  -0.047  12.304 -0.5885  0.4849 -0.0336
 2721TIP3    H229655   2.330   0.094  12.274 -1.7470 -0.3005 -2.1991
 2722TIP3   OH229656   3.281   6.295   1.580 -0.4663  0.0203 -0.1054
 2722TIP3    H129657   3.206   6.352   1.565 -0.6820 -0.2071  0.0958
 2722TIP3    H229658   3.318   6.324   1.663  0.0002  0.4890 -0.4714
 2723TIP3   OH229659   2.231   2.614  14.650 -0.1249  0.5508  0.1117
 2723TIP3    H129660   2.178   2.659  14.585  0.1159  0.7425  0.0460
 2723TIP3    H229661   2.311   2.589  14.603 -0.3493 -0.1518  0.0859
 2724TIP3   OH229662   1.168   6.560   6.057  0.2602 -0.8520  0.2623
 2724TIP3    H129663   1.110   6.485   6.072  1.6004 -1.8461  0.6805
 2724TIP3    H229664   1.144   6.623   6.125 -1.8512 -0.2374 -0.9522
 2725TIP3   OH229665   5.904   4.273   5.569 -0.0933  0.1188 -0.1779
 2725TIP3    H129666   5.955   4.192   5.569 -0.7609 -0.3191  0.0964
 2725TIP3    H229667   5.832   4.254   5.508 -0.1983  0.5461 -0.1857
 2726TIP3   OH229668   1.449   0.730  11.136 -0.7272 -0.2584  0.2592
 2726TIP3    H129669   1.538   0.694  11.131 -0.5136  0.3331 -0.3084
 2726TIP3    H229670   1.427   0.753  11.046 -0.5182  1.8191  0.6787
 2727TIP3   OH229671   3.012   2.424   5.607 -0.2292 -0.1950 -0.2565
 2727TIP3    H129672   2.949   2.387   5.670  0.1158  0.7674  0.6891
 2727TIP3    H229673   2.993   2.379   5.525 -2.0116 -0.0735  0.0559
 2728TIP3   OH229674   3.654   2.266  14.865 -0.0781 -0.2335  0.3355
 2728TIP3    H129675   3.728   2.297  14.917  0.7401 -0.7807 -0.4661
 2728TIP3    H229676   3.654   2.324  14.788  0.4372 -1.1519 -0.3712
 2729TIP3   OH229677   1.055   5.640   0.480 -0.1719 -0.3710 -0.0509
 2729TIP3    H129678   1.141   5.678   0.494  0.0290 -0.3357 -1.3140
 2729TIP3    H229679   1.041   5.644   0.386 -0.8499 -1.9092 -0.0518
 2730TIP3   OH229680   0.580   0.044   6.029 -0.1879  0.1521 -0.2703
 2730TIP3    H129681   0.642   0.117   6.030 -0.7259  0.7036 -2.6119
 2730TIP3    H229682   0.630  -0.030   6.063  1.2915  0.9276 -0.6800
 2731TIP3   OH229683   2.342   1.901   5.356 -0.0112 -0.4943 -0.7876
 2731TIP3    H129684   2.380   1.988   5.370  0.7894 -0.9081 -0.3463
 2731TIP3    H229685   2.385   1.869   5.276 -1.9708  0.4142 -2.3008
 2732TIP3   OH229686   6.656   4.343  16.019  0.2317 -0.4389  0.3757
 2732TIP3    H129687   6.647   4.286  15.942  1.3626 -0.3071  0.1379
 2732TIP3    H229688   6.607   4.422  15.996 -1.9327 -1.5047  0.9619
 2733TIP3   OH229689   0.433   3.657   0.429 -0.3685  0.0856 -0.0650
 2733TIP3    H129690   0.454   3.718   0.359  0.2665 -1.3026 -1.1328
 2733TIP3    H229691   0.358   3.607   0.396  0.4500 -1.1403 -0.1505
 2734TIP3   OH229692   5.479   6.652  17.087 -0.0372 -0.3035 -0.1588
 2734TIP3    H129693   5.518   6.564  17.084  1.6724  0.4499 -1.9976
 2734TIP3    H229694   5.509   6.688  17.171 -0.2803 -1.2420  0.3471
 2735TIP3   OH229695   1.473   0.061   2.409 -0.6108  0.2403 -0.4218
 2735TIP3    H129696   1.465   0.144   2.456 -0.6080 -0.7084  1.3429
 2735TIP3    H229697   1.567   0.045   2.405 -0.6679 -0.7135  1.2324
 2736TIP3   OH229698   1.028   6.093   1.384 -0.1099 -0.8562 -0.0392
 2736TIP3    H129699   0.956   6.155   1.391  0.6814  0.1197 -0.2358
 2736TIP3    H229700   1.069   6.094   1.470  1.0270  0.3392 -0.5594
 2737TIP3   OH229701   1.177   0.549   4.055  0.0258  0.7481 -0.3612
 2737TIP3    H129702   1.184   0.472   4.000 -1.5576 -0.8083  1.4697
 2737TIP3    H229703   1.154   0.515   4.142 -1.6606  3.3140  0.3110
 2738TIP3   OH229704   1.441   3.013   0.464 -0.1541 -0.3348  0.3937
 2738TIP3    H129705   1.480   3.100   0.472 -2.8643  0.8560  2.3739
 2738TIP3    H229706   1.454   2.972   0.549 -2.2018 -0.2584  0.8019
 2739TIP3   OH229707   2.296   4.277  14.765  0.2284  0.1076 -0.2659
 2739TIP3    H129708   2.226   4.235  14.815  1.1651  2.8105  3.8247
 2739TIP3    H229709   2.251   4.340  14.709 -0.7209  0.8451  1.2684
 2740TIP3   OH229710   6.814   0.698  11.316  0.3316  0.0577 -0.2216
 2740TIP3    H129711   6.743   0.737  11.265 -0.4726 -0.9209  0.1343
 2740TIP3    H229712   6.843   0.623  11.264  1.4517  0.7166 -0.5961
 2741TIP3   OH229713   0.913   6.597  14.641  0.1021 -0.2953 -0.2336
 2741TIP3    H129714   0.917   6.504  14.620 -0.6497 -0.6983  1.2651
 2741TIP3    H229715   0.951   6.603  14.729 -2.0484  0.4337  0.6978
 2742TIP3   OH229716   5.522   0.431  16.066 -0.0006 -0.7630 -0.0092
 2742TIP3    H129717   5.553   0.416  16.155  1.1652  1.3480  0.0050
 2742TIP3    H229718   5.427   0.423  16.071  0.0464 -0.6599  1.4298
 2743TIP3   OH229719   2.233   2.652   2.491  0.1178  0.7612 -0.2720
 2743TIP3    H129720   2.319   2.647   2.532 -0.8468 -1.5251  1.7026
 2743TIP3    H229721   2.235   2.587   2.421 -0.4598 -0.5425  0.8678
 2744TIP3   OH229722   4.968   2.182  16.412  0.0275  0.1185 -0.7140
 2744TIP3    H129723   4.940   2.273  16.425 -3.4078 -0.9636  0.3385
 2744TIP3    H229724   4.933   2.135  16.487 -0.5062 -2.5007 -2.5012
 2745TIP3   OH229725   5.998   6.252  11.723 -0.2764 -0.0031  0.3075
 2745TIP3    H129726   5.934   6.263  11.794  0.6165 -0.5817  1.2200
 2745TIP3    H229727   5.955   6.193  11.661 -1.8485  2.0129 -0.6435
 2746TIP3   OH229728   3.947   0.357   0.385  0.0847 -0.3788  0.0310
 2746TIP3    H129729   3.933   0.399   0.300  0.9833 -0.1866 -0.0312
 2746TIP3    H229730   4.004   0.282   0.367  2.8700  1.3671  0.8019
 2747TIP3   OH229731   0.792   6.256   4.354  0.2252  0.2075 -0.6878
 2747TIP3    H129732   0.886   6.253   4.340  0.0929  1.2398 -2.0692
 2747TIP3    H229733   0.757   6.298   4.275 -1.3386  0.3648  0.0337
 2748TIP3   OH229734   3.095   0.017  14.865  0.1618 -0.1067 -0.3669
 2748TIP3    H129735   3.105   0.105  14.901 -1.4865 -0.5250  1.2701
 2748TIP3    H229736   3.001   0.000  14.867  0.3012 -1.4259 -1.9375
 2749TIP3   OH229737   3.102   0.698  16.402 -0.3273 -0.5936 -0.1884
 2749TIP3    H129738   3.065   0.778  16.367  0.2675 -0.5731 -0.7844
 2749TIP3    H229739   3.145   0.725  16.484 -0.4985 -0.3836 -0.1691
 2750TIP3   OH229740   3.510   6.122  13.743  0.4948 -0.0098 -0.3176
 2750TIP3    H129741   3.453   6.102  13.668  1.1204 -0.1731 -0.7593
 2750TIP3    H229742   3.455   6.174  13.802 -0.6647 -1.5906  0.0694
 2751TIP3   OH229743   2.804   0.540   2.501 -0.0114  0.9547  0.1001
 2751TIP3    H129744   2.791   0.624   2.458 -1.8967  0.5289 -0.2825
 2751TIP3    H229745   2.891   0.511   2.473  0.9053  2.9877  0.6812
 2752TIP3   OH229746   4.054   1.185  12.245 -0.7020 -0.1959  0.1443
 2752TIP3    H129747   4.060   1.227  12.159 -1.0299  1.5594  0.9320
 2752TIP3    H229748   3.982   1.123  12.236  0.0433 -0.9370 -1.1707
 2753TIP3   OH229749   0.367   0.129  11.406  0.4486 -0.3920 -0.5002
 2753TIP3    H129750   0.315   0.049  11.407  0.7661 -0.6151 -1.3626
 2753TIP3    H229751   0.402   0.134  11.317 -0.6211  1.4036 -0.8515
 2754TIP3   OH229752   5.195   3.436   0.677 -0.0936  0.1093 -0.3144
 2754TIP3    H129753   5.266   3.379   0.647 -1.3917 -0.4008 -2.6076
 2754TIP3    H229754   5.209   3.443   0.772  2.3920 -0.7836 -0.5333
 2755TIP3   OH229755   4.704   1.268   5.128  0.8945 -0.5361 -0.0683
 2755TIP3    H129756   4.689   1.314   5.045 -1.5588 -1.5020 -0.2424
 2755TIP3    H229757   4.790   1.228   5.118  0.8735 -0.2129 -1.9523
 2756TIP3   OH229758   4.236   5.567  16.186  0.6695  0.1725 -0.8624
 2756TIP3    H129759   4.276   5.647  16.221  1.6320  0.3629 -2.2765
 2756TIP3    H229760   4.167   5.545  16.248  1.7685  0.9036  0.6856
 2757TIP3   OH229761   4.447   1.269   2.098 -0.3859  0.1170 -0.3019
 2757TIP3    H129762   4.521   1.301   2.151 -0.7946 -1.6041  1.4436
 2757TIP3    H229763   4.425   1.342   2.041  1.4689  1.3384  0.4439
 2758TIP3   OH229764   4.800   4.085   0.974 -0.4237 -0.1750  0.2309
 2758TIP3    H129765   4.773   4.171   0.940 -0.0939 -0.2143 -0.1345
 2758TIP3    H229766   4.751   4.022   0.920  0.6335 -0.2583 -0.6708
 2759TIP3   OH229767   0.366   2.116   6.007 -0.4777 -0.4596  0.0936
 2759TIP3    H129768   0.374   2.134   6.101  0.5398 -0.2390 -0.0231
 2759TIP3    H229769   0.281   2.152   5.983  0.2106  1.6144  0.4931
 2760TIP3   OH229770   4.818   2.994  16.757 -1.0718 -0.4389 -0.1496
 2760TIP3    H129771   4.888   3.050  16.791 -1.8193  1.2892 -1.3175
 2760TIP3    H229772   4.860   2.909  16.745  1.1046  0.7386 -1.6164
 2761TIP3   OH229773   1.032   0.597   6.698  0.9702  0.0075  0.3245
 2761TIP3    H129774   1.068   0.670   6.748 -0.5268  1.6508 -0.8669
 2761TIP3    H229775   0.937   0.608   6.704  0.7330 -1.0283 -1.0248
 2762TIP3   OH229776   5.094   0.890  14.745 -0.5492  0.0107  0.6895
 2762TIP3    H129777   5.132   0.802  14.747 -2.4064 -0.9461 -1.4157
 2762TIP3    H229778   4.999   0.875  14.753 -0.8598  1.9172  1.1871
 2763TIP3   OH229779   4.643   2.210  13.794 -0.0997 -0.2841 -0.0465
 2763TIP3    H129780   4.588   2.132  13.799  1.2953 -1.2183  2.1993
 2763TIP3    H229781   4.630   2.254  13.878  3.1302 -1.0152  0.9773
 2764TIP3   OH229782   5.062   3.560   4.830  0.1186  0.0731 -0.3277
 2764TIP3    H129783   4.978   3.570   4.874 -0.2136 -1.1831 -0.6471
 2764TIP3    H229784   5.117   3.515   4.894 -0.1682 -1.1744 -0.9304
 2765TIP3   OH229785   3.486   0.235  14.126  0.5759  0.2381 -0.0655
 2765TIP3    H129786   3.447   0.152  14.099  0.8054  0.2421 -0.4170
 2765TIP3    H229787   3.529   0.215  14.209  1.3442 -0.2090 -0.5580
 2766TIP3   OH229788   1.945   3.312  15.447  0.1021 -0.4960 -0.8399
 2766TIP3    H129789   2.041   3.311  15.449  0.1988  1.1083  2.1463
 2766TIP3    H229790   1.920   3.220  15.441  1.9283 -1.2490  1.3349
 2767TIP3   OH229791   0.533   3.496   4.651 -0.0871  0.2200 -0.3302
 2767TIP3    H129792   0.577   3.515   4.733  1.9790 -1.1436 -1.0348
 2767TIP3    H229793   0.584   3.424   4.612  0.0993  1.8996 -3.5805
 2768TIP3   OH229794   4.136   2.370  11.349  0.0006  0.6965 -0.0642
 2768TIP3    H129795   4.163   2.418  11.427  0.4340  1.0452 -0.4257
 2768TIP3    H229796   4.218   2.342  11.309 -0.2348  0.1175 -0.1467
 2769TIP3   OH229797   6.203   4.859  13.863  0.2875  0.3255  0.2000
 2769TIP3    H129798   6.154   4.877  13.783 -0.2307  0.4989  0.5474
 2769TIP3    H229799   6.292   4.888  13.844  0.3847 -0.4519 -0.6112
 2770TIP3   OH229800   5.554   0.862  14.399 -0.0857  0.2590 -0.5039
 2770TIP3    H129801   5.494   0.919  14.448  0.2431  0.0594  0.1438
 2770TIP3    H229802   5.502   0.832  14.324 -0.4590  0.9124 -0.5183
 2771TIP3   OH229803   6.682   6.288   1.267 -0.4982 -0.1219 -0.7452
 2771TIP3    H129804   6.612   6.353   1.260  0.1572  0.5612 -1.0170
 2771TIP3    H229805   6.706   6.289   1.359  0.3755  0.9517 -0.9695
 2772TIP3   OH229806   6.717   5.511  12.889  0.1976 -0.3293  0.2379
 2772TIP3    H129807   6.654   5.447  12.923  0.3089 -0.7747 -0.3653
 2772TIP3    H229808   6.774   5.530  12.963 -0.6679  0.1100  0.7997
 2773TIP3   OH229809   1.012   3.142  13.900  0.6966  0.0379  0.2969
 2773TIP3    H129810   1.013   3.228  13.859  0.2742 -0.1188 -0.0516
 2773TIP3    H229811   0.991   3.159  13.992 -4.4386  0.0183 -0.5904
 2774TIP3   OH229812   0.872   0.217   3.258 -0.4332 -0.2145  0.2544
 2774TIP3    H129813   0.910   0.273   3.326 -0.6821  0.2072  0.0457
 2774TIP3    H229814   0.839   0.278   3.192 -0.7437 -0.6055  0.0475
 2775TIP3   OH229815   1.498   3.980  15.158 -0.5050  0.0894 -0.7085
 2775TIP3    H129816   1.473   3.895  15.121  0.4952 -0.8693  0.7113
 2775TIP3    H229817   1.557   3.958  15.230 -0.9870  1.9725  0.3074
 2776TIP3   OH229818   2.957   3.522  15.666  0.0739  0.1843 -0.3873
 2776TIP3    H129819   2.986   3.613  15.672 -0.1897  0.3094 -0.9100
 2776TIP3    H229820   2.903   3.520  15.587 -1.0909 -0.1029  0.3921
 2777TIP3   OH229821   0.865   4.805  11.875  0.2849 -0.5395 -0.5105
 2777TIP3    H129822   0.799   4.735  11.874  0.3266 -0.5923  0.0959
 2777TIP3    H229823   0.864   4.837  11.965  0.5319 -0.0068 -0.6942
 2778TIP3   OH229824   3.303   2.021  15.172  0.2938  0.5294 -0.1376
 2778TIP3    H129825   3.255   1.975  15.240  1.6050 -0.7240 -0.0230
 2778TIP3    H229826   3.258   2.105  15.164  0.2373  0.8273  2.4516
 2779TIP3   OH229827   0.439   5.833  13.600 -0.3382 -0.2978  0.1314
 2779TIP3    H129828   0.458   5.892  13.528  0.3232 -1.8445 -1.0087
 2779TIP3    H229829   0.384   5.764  13.562 -2.0571  0.1150  1.6811
 2780TIP3   OH229830   3.430   3.412   1.707  0.3243  0.0848 -0.4178
 2780TIP3    H129831   3.462   3.330   1.746 -1.0637 -0.6536 -0.7544
 2780TIP3    H229832   3.496   3.434   1.641  0.7251 -0.7699 -0.3248
 2781TIP3   OH229833   0.264   3.286   1.448  0.2508 -0.2260 -0.2517
 2781TIP3    H129834   0.297   3.369   1.414  4.0417 -1.1245  0.6707
 2781TIP3    H229835   0.342   3.243   1.485 -2.1971 -2.4613  2.9177
 2782TIP3   OH229836   3.866   2.580   4.396  0.4354  0.3492  0.5567
 2782TIP3    H129837   3.825   2.543   4.474 -0.9005  0.6095  0.0014
 2782TIP3    H229838   3.796   2.629   4.353  1.2173  0.4248 -0.6777
 2783TIP3   OH229839   2.893   6.634   0.317 -0.3440  0.7575 -1.0829
 2783TIP3    H129840   2.820   6.584   0.281  0.2911  0.2608 -1.6903
 2783TIP3    H229841   2.879   6.632   0.412 -0.2568 -0.6875 -1.0874
 2784TIP3   OH229842   2.353   2.780   0.967  0.4297 -0.6130 -0.4433
 2784TIP3    H129843   2.294   2.844   0.927  0.9491 -0.1001 -0.4128
 2784TIP3    H229844   2.336   2.787   1.061  0.7465 -0.2470 -0.4103
 2785TIP3   OH229845   4.699   0.956   3.028 -0.0196  0.5507 -0.0607
 2785TIP3    H129846   4.677   0.952   2.935  2.0104  0.4785 -0.5861
 2785TIP3    H229847   4.668   1.042   3.057 -1.2327  0.3212 -0.6311
 2786TIP3   OH229848   1.374   4.286  11.060 -0.2364  0.0694 -0.6780
 2786TIP3    H129849   1.345   4.376  11.045 -1.2147  0.0602  0.8908
 2786TIP3    H229850   1.302   4.232  11.028  0.1105 -0.1435 -1.1086
 2787TIP3   OH229851   4.419   6.469   2.885  0.1538  0.0222  0.2517
 2787TIP3    H129852   4.336   6.447   2.843 -1.4728  3.0123  1.5408
 2787TIP3    H229853   4.464   6.525   2.822  0.5436 -0.4302  0.1237
 2788TIP3   OH229854   2.896   0.718  15.593 -0.0129  0.2381 -0.2721
 2788TIP3    H129855   2.886   0.767  15.675 -0.3895  0.2544 -0.3232
 2788TIP3    H229856   2.843   0.767  15.530 -1.8422 -1.1901  0.0844
 2789TIP3   OH229857   3.845   4.155   1.816  0.2177 -0.2198 -0.1367
 2789TIP3    H129858   3.750   4.146   1.808  0.3108 -1.8095  0.3126
 2789TIP3    H229859   3.881   4.106   1.742  0.7075  3.1557 -2.3652
 2790TIP3   OH229860   6.641   0.076  17.164 -0.5289 -0.1160  0.3164
 2790TIP3    H129861   6.703   0.115  17.227 -0.7051  0.6155  0.0515
 2790TIP3    H229862   6.637   0.140  17.093 -1.3213 -0.3246  0.1666
 2791TIP3   OH229863   3.151   0.306   1.671  0.2388 -0.3452  0.7073
 2791TIP3    H129864   3.244   0.298   1.690 -0.2925 -3.6970  2.6684
 2791TIP3    H229865   3.119   0.216   1.672 -2.6619  0.4783 -2.2322
 2792TIP3   OH229866   4.353   1.381   5.112  0.0297  0.1468 -0.0829
 2792TIP3    H129867   4.444   1.409   5.117  0.3059 -0.5689 -0.7165
 2792TIP3    H229868   4.349   1.326   5.033 -1.3312  1.5533 -1.0580
 2793TIP3   OH229869   5.285   2.694  12.155  0.1496  0.4866  0.4835
 2793TIP3    H129870   5.211   2.717  12.098  0.4575 -0.2555 -0.2284
 2793TIP3    H229871   5.243   2.664  12.236 -0.3034  1.0119  0.4521
 2794TIP3   OH229872   6.206   2.401   4.854 -0.0462  0.4147 -0.1209
 2794TIP3    H129873   6.184   2.320   4.809 -0.6423  1.4848 -1.8350
 2794TIP3    H229874   6.291   2.427   4.818  0.8236 -0.1269  1.4420
 2795TIP3   OH229875   6.130   3.352  14.792 -0.7681 -0.2525 -0.2872
 2795TIP3    H129876   6.079   3.432  14.804 -1.2925 -0.3388 -1.7686
 2795TIP3    H229877   6.217   3.383  14.768 -0.3652 -0.1232  1.2225
 2796TIP3   OH229878   5.328   4.644  13.889 -0.0729  0.0029  0.3367
 2796TIP3    H129879   5.316   4.650  13.794  1.1167  1.6918  0.2466
 2796TIP3    H229880   5.243   4.667  13.926 -0.3607  0.0086 -0.3174
 2797TIP3   OH229881   5.336   3.064  16.619 -0.1070  0.1543 -0.1126
 2797TIP3    H129882   5.354   2.980  16.660  0.0986 -0.0704 -0.6492
 2797TIP3    H229883   5.249   3.054  16.582  0.3255 -0.1959 -1.0758
 2798TIP3   OH229884   6.365   3.347  11.170  0.1110 -0.3616  0.0947
 2798TIP3    H129885   6.296   3.306  11.117  0.4453 -0.3081 -0.3834
 2798TIP3    H229886   6.443   3.294  11.154  0.0640 -0.7343  1.0412
 2799TIP3   OH229887   6.383   6.036   5.915  0.3830  0.2170  0.6220
 2799TIP3    H129888   6.386   6.035   5.819  0.0295 -0.0494  0.6098
 2799TIP3    H229889   6.293   6.062   5.935  0.1367 -0.7827  0.8738
 2800TIP3   OH229890   4.551   3.356  10.948 -0.2387  0.4731  0.3469
 2800TIP3    H129891   4.581   3.445  10.929 -0.2802  0.5887  0.8057
 2800TIP3    H229892   4.522   3.359  11.040 -1.4341  0.3128 -0.0024
 2801TIP3   OH229893   2.586   4.685  11.077  0.4216 -0.3683 -0.2150
 2801TIP3    H129894   2.641   4.658  11.003 -0.2873 -0.7976 -0.6014
 2801TIP3    H229895   2.531   4.608  11.095  0.3849 -0.1662  0.5678
 2802TIP3   OH229896   1.409   3.662  15.803 -0.6466  0.6525 -0.1420
 2802TIP3    H129897   1.488   3.639  15.754 -0.4502  0.9335  0.0373
 2802TIP3    H229898   1.345   3.594  15.780 -0.0303 -0.1658  0.4998
 2803TIP3   OH229899   3.684   3.285   0.109 -0.0488  0.8061  0.7372
 2803TIP3    H129900   3.677   3.378   0.088 -1.9168  0.7668  1.0450
 2803TIP3    H229901   3.747   3.282   0.181 -0.0168  1.8371  0.7719
 2804TIP3   OH229902   1.160   2.967   3.731  0.1797  0.2484  0.4756
 2804TIP3    H129903   1.188   2.946   3.642 -0.7616 -1.4795  0.5507
 2804TIP3    H229904   1.109   3.047   3.722  1.2592  0.8738 -0.3163
 2805TIP3   OH229905   6.776   2.714   0.092 -0.0052 -0.3085 -0.4102
 2805TIP3    H129906   6.823   2.768   0.156 -1.8577 -0.0385  0.8152
 2805TIP3    H229907   6.774   2.767   0.013 -0.1150  0.6082  0.1906
 2806TIP3   OH229908   0.075   4.239  11.361 -0.3375 -0.4966 -0.2151
 2806TIP3    H129909   0.047   4.325  11.330 -0.2016 -0.2659  0.2979
 2806TIP3    H229910   0.157   4.222  11.314 -0.7260 -0.6586 -0.8411
 2807TIP3   OH229911   3.313   2.481  16.368  0.8430 -0.2142  0.2217
 2807TIP3    H129912   3.382   2.438  16.419 -0.4313 -1.2264  1.1776
 2807TIP3    H229913   3.360   2.534  16.304  2.5157 -1.6617  0.1602
 2808TIP3   OH229914   5.124   6.247  15.949 -0.1100 -0.5648  0.5490
 2808TIP3    H129915   5.096   6.211  16.033  1.5242  0.5281  1.6265
 2808TIP3    H229916   5.209   6.288  15.967 -0.4840  1.1908 -1.2396
 2809TIP3   OH229917   5.389   3.130   3.147  0.4171  0.3736  0.5696
 2809TIP3    H129918   5.347   3.192   3.087 -0.5956  0.3432  1.2343
 2809TIP3    H229919   5.322   3.066   3.167  1.2134 -0.4899  0.5441
 2810TIP3   OH229920   1.813   3.235  12.267 -0.3405 -0.0719 -0.1388
 2810TIP3    H129921   1.727   3.200  12.245  0.2189 -2.4627  1.1787
 2810TIP3    H229922   1.870   3.205  12.197 -0.1537 -0.4933  0.1883
 2811TIP3   OH229923   1.985   2.176   1.439 -0.4362 -0.4878 -0.2584
 2811TIP3    H129924   1.949   2.217   1.360  0.6444  2.9164  0.8476
 2811TIP3    H229925   2.079   2.191   1.433 -0.3425 -0.0921  1.6786
 2812TIP3   OH229926   0.115   0.678   2.024 -0.0188  0.0928  0.4378
 2812TIP3    H129927   0.075   0.647   2.105 -0.2259  0.9388  0.6643
 2812TIP3    H229928   0.045   0.720   1.976 -0.0073 -0.8146 -0.4187
 2813TIP3   OH229929   6.460   6.088  13.319 -0.0795 -0.3934 -0.0947
 2813TIP3    H129930   6.504   6.170  13.342 -0.0183 -0.3390 -0.4086
 2813TIP3    H229931   6.523   6.020  13.343 -1.0782 -0.5202  2.5533
 2814TIP3   OH229932   5.878   5.725  11.745  0.2854  0.5861 -0.3554
 2814TIP3    H129933   5.793   5.757  11.717 -0.1841  0.7970  1.2259
 2814TIP3    H229934   5.919   5.800  11.788 -0.3667 -0.4945  2.3879
 2815TIP3   OH229935   5.902   4.447  13.303 -0.7156  0.1921  0.3873
 2815TIP3    H129936   5.932   4.357  13.292  1.8431  1.0855 -0.8676
 2815TIP3    H229937   5.882   4.477  13.215  0.5076  1.4195  0.4798
 2816TIP3   OH229938   2.853   3.251  12.938  0.1584  1.0053 -0.1367
 2816TIP3    H129939   2.949   3.243  12.934  0.2356  1.3695  0.6639
 2816TIP3    H229940   2.837   3.345  12.933  0.0188  1.1735  2.1360
 2817TIP3   OH229941   6.661   3.670  13.038  0.1667  0.2836 -0.1835
 2817TIP3    H129942   6.735   3.681  12.979 -1.4105  1.5950 -2.0183
 2817TIP3    H229943   6.680   3.728  13.112  2.7257 -2.2568  1.3450
 2818TIP3   OH229944   3.232   6.507  16.619  0.1288  0.2355  0.2265
 2818TIP3    H129945   3.227   6.536  16.710  0.9957 -1.1963  0.7737
 2818TIP3    H229946   3.142   6.512  16.588 -0.2419  0.4357  1.2736
 2819TIP3   OH229947   4.321   5.276   4.034  0.0157 -0.2964  0.0595
 2819TIP3    H129948   4.244   5.272   3.978 -1.7538 -1.9692  2.3908
 2819TIP3    H229949   4.362   5.190   4.027 -0.9327 -0.9922  2.0793
 2820TIP3   OH229950   2.019   0.846   1.129  0.0787 -0.3507 -0.4699
 2820TIP3    H129951   1.949   0.785   1.106 -0.7939  0.0872  0.9063
 2820TIP3    H229952   2.038   0.827   1.220  1.4734 -0.1653 -0.7079
 2821TIP3   OH229953   0.238   2.723   1.914  0.2335  0.2752  0.7507
 2821TIP3    H129954   0.234   2.684   1.826 -1.1294  1.4586  0.2348
 2821TIP3    H229955   0.265   2.651   1.971 -3.0595 -1.7907  0.0181
 2822TIP3   OH229956   3.272   4.268  11.442 -0.7351 -0.3627 -0.3608
 2822TIP3    H129957   3.307   4.356  11.428 -0.5716 -0.1694  1.0975
 2822TIP3    H229958   3.327   4.211  11.388 -0.7368  0.4090 -1.1857
 2823TIP3   OH229959   1.095   6.174   4.802  0.8625  0.8742 -0.5668
 2823TIP3    H129960   1.002   6.194   4.813  0.5432  0.5580 -2.4056
 2823TIP3    H229961   1.127   6.160   4.891 -0.4367  2.7156  0.2457
 2824TIP3   OH229962   2.685   4.608  15.634  0.3631  0.5931  0.2967
 2824TIP3    H129963   2.736   4.667  15.578 -0.9237  0.0570 -1.5522
 2824TIP3    H229964   2.614   4.663  15.668  0.9240  0.8234  1.1319
 2825TIP3   OH229965   3.540   0.548   2.419  0.0841 -0.0854 -0.1380
 2825TIP3    H129966   3.508   0.615   2.359  0.3561  1.2743  1.1771
 2825TIP3    H229967   3.594   0.490   2.364  1.4627  1.8952 -0.9858
 2826TIP3   OH229968   4.044   5.424  16.962  0.1905 -0.2668  0.2171
 2826TIP3    H129969   4.129   5.386  16.982 -0.6937 -1.3978  2.0221
 2826TIP3    H229970   4.009   5.452  17.047 -1.0327  0.6752 -0.5522
 2827TIP3   OH229971   2.821   2.942   2.645 -0.0813  0.2245 -0.1905
 2827TIP3    H129972   2.823   2.977   2.556  0.5439 -1.2496 -0.7944
 2827TIP3    H229973   2.882   2.868   2.643  1.2002  1.1360  1.9000
 2828TIP3   OH229974   0.589   3.222   1.287  0.2460 -0.5042  0.3253
 2828TIP3    H129975   0.559   3.217   1.378  0.7129  0.5426  0.5439
 2828TIP3    H229976   0.616   3.313   1.275 -3.2245  0.4198 -1.9639
 2829TIP3   OH229977   6.190   5.377   4.883 -0.0830  0.1681 -0.0402
 2829TIP3    H129978   6.114   5.411   4.930  0.1841  1.5810 -0.5821
 2829TIP3    H229979   6.176   5.404   4.792  0.0152 -1.4562 -0.5751
 2830TIP3   OH229980   1.186   2.506  11.923  0.2366  0.0965 -0.0476
 2830TIP3    H129981   1.280   2.489  11.925  0.3539  0.7970  0.6893
 2830TIP3    H229982   1.173   2.562  11.847 -0.0134 -2.3278 -1.9070
 2831TIP3   OH229983   4.557   4.695  15.456  0.2986 -0.4099  0.2403
 2831TIP3    H129984   4.652   4.694  15.453  0.4043  0.5748  1.9593
 2831TIP3    H229985   4.532   4.603  15.453  1.3466 -0.7147  0.4712
 2832TIP3   OH229986   4.890   0.478  14.858  0.3071 -0.0483 -0.1099
 2832TIP3    H129987   4.802   0.482  14.897 -0.3198 -1.3384 -1.2859
 2832TIP3    H229988   4.882   0.530  14.778  1.0274  0.9437  0.4380
 2833TIP3   OH229989   0.111   6.813   5.352 -0.0771 -0.1681 -0.1043
 2833TIP3    H129990   0.174   6.880   5.381  1.1025 -1.5021  0.5534
 2833TIP3    H229991   0.084   6.770   5.433 -0.6740 -0.6229 -0.5395
 2834TIP3   OH229992   6.630   5.056  11.783  0.2574  0.1550  0.2477
 2834TIP3    H129993   6.711   5.064  11.834  0.5830 -1.7192  0.1057
 2834TIP3    H229994   6.560   5.062  11.848  0.5154  1.2651  0.4402
 2835TIP3   OH229995   5.186   2.215   5.460  0.2810 -0.2551 -0.2315
 2835TIP3    H129996   5.097   2.251   5.452 -0.1587 -1.2988 -0.1239
 2835TIP3    H229997   5.215   2.242   5.547  0.4108  0.8093 -0.5882
 2836TIP3   OH229998   5.447   1.711  15.819 -0.0993  0.2611  0.1084
 2836TIP3    H129999   5.396   1.638  15.784  0.0481  0.6215 -0.8740
 2836TIP3    H230000   5.381   1.776  15.842 -0.2547 -0.2822  1.2735
 2837TIP3   OH230001   6.704   6.647  15.321  0.2009 -0.1269  0.8458
 2837TIP3    H130002   6.622   6.635  15.368  0.0024  1.1141  0.8619
 2837TIP3    H230003   6.695   6.595  15.242 -1.2064  1.0993  0.1595
 2838TIP3   OH230004   4.679   2.939   0.635 -0.3914  0.9195 -0.6378
 2838TIP3    H130005   4.698   3.017   0.584  1.3480  0.6270 -0.4910
 2838TIP3    H230006   4.686   2.867   0.572  1.7670  0.5568 -0.0518
 2839TIP3   OH230007   5.627   3.318  15.266 -0.2838  0.2614 -0.0403
 2839TIP3    H130008   5.718   3.304  15.293 -0.1174 -0.5803 -0.9864
 2839TIP3    H230009   5.593   3.383  15.328  0.3954 -0.8060  1.4977
 2840TIP3   OH230010   2.211   5.098   2.612 -0.1520 -0.3050  0.1823
 2840TIP3    H130011   2.277   5.128   2.550  0.0627  0.0848  0.5952
 2840TIP3    H230012   2.127   5.127   2.575 -0.0084  0.0996  0.1777
 2841TIP3   OH230013   3.717   3.044   2.407 -0.8128  0.4780 -0.4463
 2841TIP3    H130014   3.704   2.950   2.394  2.4572  0.2739 -3.5493
 2841TIP3    H230015   3.629   3.081   2.401 -2.2470 -2.3185  1.1679
 2842TIP3   OH230016   1.241   3.954   0.571 -0.4117 -0.0696 -0.4698
 2842TIP3    H130017   1.265   4.008   0.495 -1.7915  0.1484 -0.7874
 2842TIP3    H230018   1.219   4.017   0.639 -1.9086 -0.1955 -0.8028
 2843TIP3   OH230019   3.524   0.095   3.410 -0.2904  0.3963 -0.3629
 2843TIP3    H130020   3.526   0.113   3.504 -1.2339  0.6163 -0.3757
 2843TIP3    H230021   3.537   0.180   3.368  0.2280  0.2839 -0.4350
 2844TIP3   OH230022   1.659   1.242   0.374  0.2502  0.2050 -0.4857
 2844TIP3    H130023   1.672   1.212   0.464  1.6918  0.6311 -0.5173
 2844TIP3    H230024   1.727   1.196   0.324  0.1884  0.8126 -1.1516
 2845TIP3   OH230025   4.966   2.527   0.511 -0.5032 -0.0680 -0.0054
 2845TIP3    H130026   4.882   2.548   0.552 -0.8902 -1.2964 -0.1256
 2845TIP3    H230027   4.948   2.528   0.417 -0.1971  0.4264 -0.0576
 2846TIP3   OH230028   1.731   0.933  13.577 -0.1317 -0.0957  0.2685
 2846TIP3    H130029   1.686   0.951  13.495  0.3580  0.2609  0.0703
 2846TIP3    H230030   1.819   0.969  13.565  0.0708 -0.3834  0.8062
 2847TIP3   OH230031   1.075   2.945  11.659  0.1594  0.4104 -0.0928
 2847TIP3    H130032   1.112   3.016  11.711 -1.6020  1.8256 -0.6854
 2847TIP3    H230033   1.098   2.966  11.569 -0.1710  0.0919 -0.2512
 2848TIP3   OH230034   2.493   6.104  13.455  0.1722  0.3280 -0.5347
 2848TIP3    H130035   2.498   6.009  13.461 -0.4764  0.0966 -2.6583
 2848TIP3    H230036   2.580   6.135  13.478  0.8417 -0.9115 -1.3177
 2849TIP3   OH230037   4.864   6.090  14.785 -0.2385 -0.4193  0.1767
 2849TIP3    H130038   4.892   6.163  14.841  0.8525 -0.0355 -0.8189
 2849TIP3    H230039   4.905   6.108  14.700 -1.8009 -1.0243 -0.7365
 2850TIP3   OH230040   5.920   0.281  14.102  0.1443  0.6117 -0.0776
 2850TIP3    H130041   5.940   0.347  14.168  0.6180 -0.5270  0.9559
 2850TIP3    H230042   5.989   0.290  14.036  0.9645  0.2845  0.7304
 2851TIP3   OH230043   1.468   3.377  13.207  0.4537 -0.0923  0.0564
 2851TIP3    H130044   1.496   3.468  13.208  0.7198 -0.1748  1.0238
 2851TIP3    H230045   1.516   3.337  13.135  1.4441  0.1945  0.5473
 2852TIP3   OH230046   4.646   3.968   3.879 -0.2449 -0.1175 -0.1035
 2852TIP3    H130047   4.704   3.916   3.824 -0.4089 -0.4011 -0.0093
 2852TIP3    H230048   4.661   4.059   3.851  0.1014 -0.2074 -0.2096
 2853TIP3   OH230049   2.406   6.661   0.353 -0.0931 -0.2949  0.0569
 2853TIP3    H130050   2.318   6.673   0.318 -0.1844 -2.1799 -0.4365
 2853TIP3    H230051   2.418   6.736   0.412 -1.9116  0.1391 -0.0543
 2854TIP3   OH230052   1.729   0.006   5.463  0.1782  0.0955 -0.2498
 2854TIP3    H130053   1.725  -0.034   5.550 -0.4863  0.5540 -0.0588
 2854TIP3    H230054   1.757   0.096   5.480  0.7131 -0.0089 -0.5781
 2855TIP3   OH230055   1.260   5.896  11.701  0.4348 -0.3974 -0.0696
 2855TIP3    H130056   1.342   5.945  11.695  0.4463 -0.1264  1.6968
 2855TIP3    H230057   1.213   5.936  11.774 -1.7216  0.0706 -1.6011
 2856TIP3   OH230058   1.623   3.782  12.468 -0.1089 -0.3171  0.4328
 2856TIP3    H130059   1.623   3.870  12.507  0.4799 -0.9146  1.8621
 2856TIP3    H230060   1.579   3.793  12.384 -1.9019  0.9725  1.4725
 2857TIP3   OH230061   2.588   0.318   3.739  0.0361 -0.0580  0.7655
 2857TIP3    H130062   2.635   0.385   3.690  0.4679  0.3189  1.6961
 2857TIP3    H230063   2.651   0.246   3.748 -0.7366 -1.0413 -1.1003
 2858TIP3   OH230064   5.758   1.065  12.654  0.0086  0.1261 -0.4984
 2858TIP3    H130065   5.742   1.129  12.724 -1.3800  0.7935 -1.3741
 2858TIP3    H230066   5.702   1.094  12.582 -0.8844 -2.2294 -0.8450
 2859TIP3   OH230067   6.226   0.811   2.847 -0.7513 -0.0767 -0.2750
 2859TIP3    H130068   6.152   0.869   2.828 -0.7344 -0.3161 -1.1284
 2859TIP3    H230069   6.217   0.740   2.784  0.4775  0.1412 -0.7185
 2860TIP3   OH230070   1.588   3.944   4.724 -0.3959 -0.2707 -0.3826
 2860TIP3    H130071   1.543   3.877   4.776 -1.1004  1.0212  0.7612
 2860TIP3    H230072   1.520   4.009   4.704  0.1145 -0.1972 -2.0248
 2861TIP3   OH230073   4.828   2.135  11.824  0.1451 -0.4017  0.4273
 2861TIP3    H130074   4.856   2.197  11.891  2.8171 -0.0957 -0.8170
 2861TIP3    H230075   4.736   2.155  11.809  1.0389  3.9493 -0.5128
 2862TIP3   OH230076   6.809   1.134   0.070 -0.1244 -0.7300 -0.3354
 2862TIP3    H130077   6.852   1.193   0.008 -0.4676  0.5229  0.5890
 2862TIP3    H230078   6.717   1.160   0.068 -0.1149 -0.5851  0.7992
 2863TIP3   OH230079   3.274   1.682  12.443  0.3225 -0.1306 -0.2069
 2863TIP3    H130080   3.329   1.755  12.415  0.3065  0.1850  0.5525
 2863TIP3    H230081   3.332   1.605  12.439  0.6077  0.0785 -0.1201
 2864TIP3   OH230082   0.068   1.152   2.419 -0.3086  0.3884  0.4694
 2864TIP3    H130083   0.128   1.087   2.384 -0.8511  0.3458 -0.4210
 2864TIP3    H230084   0.046   1.207   2.343 -0.7462  0.9043  0.9607
 2865TIP3   OH230085   4.830   3.957  14.024 -0.5506  0.0304 -0.4655
 2865TIP3    H130086   4.757   3.951  13.962 -2.6518  0.6411  1.7945
 2865TIP3    H230087   4.818   3.882  14.082 -0.3320  1.0345  0.8972
 2866TIP3   OH230088   3.294   4.163   3.723 -0.1289  0.8464  0.1587
 2866TIP3    H130089   3.327   4.237   3.673 -2.4237  0.9672 -1.3267
 2866TIP3    H230090   3.203   4.185   3.742 -0.5130 -1.0471  0.7626
 2867TIP3   OH230091   4.340   1.537   0.118  0.0580  0.1291  0.2873
 2867TIP3    H130092   4.397   1.467   0.150 -0.2765  0.4043  1.5463
 2867TIP3    H230093   4.374   1.558   0.031 -0.0724 -1.8547 -0.2975
 2868TIP3   OH230094   0.433   5.377   0.535 -0.0176 -0.1418  0.4713
 2868TIP3    H130095   0.513   5.367   0.482  0.4748 -0.2177  1.2089
 2868TIP3    H230096   0.438   5.466   0.569  0.5796 -0.6392  1.7934
 2869TIP3   OH230097   0.513   4.894   4.295 -0.0846 -0.3776 -0.0909
 2869TIP3    H130098   0.434   4.888   4.242 -0.2365  0.1884  0.0627
 2869TIP3    H230099   0.517   4.811   4.343 -1.2291  0.0535  0.8004
 2870TIP3   OH230100   4.426   6.314  15.363 -0.0204  0.5601  0.1517
 2870TIP3    H130101   4.369   6.365  15.305  0.0210  1.1621  0.6308
 2870TIP3    H230102   4.420   6.224  15.330 -0.9051  0.6939 -0.0762
 2871TIP3   OH230103   2.014   3.386  14.777  0.1736 -0.2338  0.1910
 2871TIP3    H130104   1.972   3.423  14.700  0.1330 -0.9183 -0.1248
 2871TIP3    H230105   2.106   3.412  14.770 -0.2211  1.5778  1.0677
 2872TIP3   OH230106   5.779   4.639   2.819  1.1446 -0.3470 -0.4018
 2872TIP3    H130107   5.791   4.733   2.804  0.4989 -0.2576 -0.4056
 2872TIP3    H230108   5.759   4.633   2.912 -1.0220 -0.2170 -0.7906
 2873TIP3   OH230109   1.041   3.923   3.588  0.0511  0.1183  0.0397
 2873TIP3    H130110   1.121   3.873   3.575  1.9081  2.6745  0.7039
 2873TIP3    H230111   0.980   3.890   3.522  2.6120 -0.0640 -2.4137
 2874TIP3   OH230112   5.199   0.684  15.048 -0.8129  0.1552 -0.0178
 2874TIP3    H130113   5.119   0.737  15.051 -0.2838  1.0221 -0.6614
 2874TIP3    H230114   5.210   0.652  15.138 -0.9271  1.5011  0.5053
 2875TIP3   OH230115   4.547   4.660   1.633 -0.3407 -0.4588  0.5823
 2875TIP3    H130116   4.603   4.732   1.664 -1.0392  0.2843  0.1597
 2875TIP3    H230117   4.608   4.588   1.617  0.5587  0.4621 -0.2703
 2876TIP3   OH230118   4.838   5.966  11.325 -0.3312  0.1880  0.0252
 2876TIP3    H130119   4.873   5.878  11.309 -0.5274  0.1646 -0.2966
 2876TIP3    H230120   4.752   5.965  11.283 -0.1715  0.6538 -0.3212
 2877TIP3   OH230121   6.586   2.738   0.465 -0.5449  0.3068  0.5370
 2877TIP3    H130122   6.552   2.693   0.388 -1.7294  1.1994  0.5174
 2877TIP3    H230123   6.509   2.773   0.509  0.0468 -0.6543  2.4676
 2878TIP3   OH230124   1.909   1.444  12.902  0.2452  0.0936  0.3186
 2878TIP3    H130125   1.878   1.511  12.841  1.7866  0.9033  0.3859
 2878TIP3    H230126   2.003   1.460  12.911  0.4310 -1.3075  1.3113
 2879TIP3   OH230127   2.546   4.846   2.458 -0.0381  0.7968 -0.1735
 2879TIP3    H130128   2.581   4.786   2.524 -1.1392  0.8507  0.4825
 2879TIP3    H230129   2.621   4.867   2.403  0.6693 -0.0911  0.4202
 2880TIP3   OH230130   2.248   5.743  16.550  0.3102  0.3290 -0.1577
 2880TIP3    H130131   2.168   5.720  16.504  0.4125  0.3833 -0.3617
 2880TIP3    H230132   2.228   5.826  16.593  0.5611  0.8328 -0.9893
 2881TIP3   OH230133   1.574   5.068  11.050  0.1055  0.0342 -0.5029
 2881TIP3    H130134   1.654   5.067  11.103  1.0553 -0.9804 -1.8733
 2881TIP3    H230135   1.603   5.041  10.963 -1.8797 -1.1981 -0.8416
 2882TIP3   OH230136   4.876   1.741   4.919  0.0002  0.1464  0.4097
 2882TIP3    H130137   4.883   1.832   4.950  1.1788  0.7674 -1.5240
 2882TIP3    H230138   4.933   1.692   4.978 -1.3434  0.4393  2.0533
 2883TIP3   OH230139   6.770   4.906   5.542 -0.5806 -0.1958 -0.0122
 2883TIP3    H130140   6.763   4.830   5.485  0.5379 -1.3466  1.3112
 2883TIP3    H230141   6.681   4.924   5.570 -0.8191 -1.2303 -0.0762
 2884TIP3   OH230142   5.266   1.896  15.887 -0.2096  0.1406 -0.4588
 2884TIP3    H130143   5.177   1.907  15.920 -0.2221 -0.6359 -0.2043
 2884TIP3    H230144   5.323   1.913  15.963 -0.1756 -0.0991 -0.4289
 2885TIP3   OH230145   5.419   3.713   1.616  0.3859  0.5434 -0.1020
 2885TIP3    H130146   5.511   3.687   1.624  0.6579  1.1685 -1.0762
 2885TIP3    H230147   5.405   3.723   1.522 -0.5593  0.8967  0.0660
 2886TIP3   OH230148   6.323   2.069   0.346  0.0728 -0.5489  0.1675
 2886TIP3    H130149   6.259   2.050   0.277  0.3818 -0.0111 -0.2750
 2886TIP3    H230150   6.351   2.159   0.328  2.3796 -1.3843 -0.8024
 2887TIP3   OH230151   1.093   6.677  12.786  0.4675 -0.2326  0.3100
 2887TIP3    H130152   1.047   6.726  12.853 -1.9253 -2.3314  0.3371
 2887TIP3    H230153   1.035   6.679  12.710  2.0798  0.1678 -0.9780
 2888TIP3   OH230154   5.090   3.765  16.216  0.0269 -0.3427 -0.1849
 2888TIP3    H130155   5.138   3.704  16.272  0.3291  1.0600  1.1297
 2888TIP3    H230156   5.002   3.727  16.210  0.2684 -1.0213  0.4096
 2889TIP3   OH230157   4.646   0.543   4.857  0.1650  0.1041  0.7874
 2889TIP3    H130158   4.644   0.461   4.908 -0.6263  0.1617  0.8596
 2889TIP3    H230159   4.592   0.603   4.908  0.5736  0.6145  0.6229
 2890TIP3   OH230160   6.190   2.538  16.447 -0.3121  0.3476  0.0322
 2890TIP3    H130161   6.097   2.552  16.432 -0.5711 -0.5147  0.7806
 2890TIP3    H230162   6.198   2.444  16.464  0.7132  0.3861 -0.1603
 2891TIP3   OH230163   2.954   2.959   5.139  0.3246  0.2839  0.2930
 2891TIP3    H130164   2.860   2.939   5.135  0.0590  1.1295  1.6121
 2891TIP3    H230165   2.958   3.044   5.182  1.7084  0.2660  0.2263
 2892TIP3   OH230166   5.630   0.394  13.713  0.3384  0.1902 -0.2345
 2892TIP3    H130167   5.578   0.407  13.793 -1.0326 -0.9134 -0.8966
 2892TIP3    H230168   5.577   0.434  13.644 -0.4143 -2.1917 -1.1402
 2893TIP3   OH230169   5.571   0.020   0.351 -0.0470 -0.2583 -0.7275
 2893TIP3    H130170   5.542   0.003   0.441 -1.4412  0.0021 -1.1018
 2893TIP3    H230171   5.666   0.033   0.359  0.4909 -3.7368  0.1855
 2894TIP3   OH230172   0.866   3.072  15.178  0.7357 -0.0588 -0.7252
 2894TIP3    H130173   0.825   3.068  15.092 -2.2655 -1.6702  0.6553
 2894TIP3    H230174   0.834   3.154  15.216  1.9534  0.5866 -1.0277
 2895TIP3   OH230175   6.231   1.573  15.543  0.5836  0.2494  0.3872
 2895TIP3    H130176   6.322   1.575  15.574  0.6858 -2.8175  0.6338
 2895TIP3    H230177   6.182   1.617  15.612  1.7415  0.9021  0.8312
 2896TIP3   OH230178   0.580   0.555   3.995  0.2080  0.1114 -0.2455
 2896TIP3    H130179   0.669   0.590   3.993 -0.0773  0.9538  0.9795
 2896TIP3    H230180   0.565   0.530   4.086 -0.8388  0.0586 -0.4139
 2897TIP3   OH230181   5.127   0.150   3.358 -0.1287  0.3009 -0.1920
 2897TIP3    H130182   5.220   0.153   3.381 -0.0635 -0.8186 -0.2257
 2897TIP3    H230183   5.112   0.059   3.333 -1.8002 -0.2191  2.2919
 2898TIP3   OH230184   5.907   5.989  15.272  0.0023 -0.0490 -0.4218
 2898TIP3    H130185   5.906   5.912  15.328 -0.6950 -2.1695 -3.0923
 2898TIP3    H230186   5.830   6.039  15.298  1.4393  0.8409  2.5769
 2899TIP3   OH230187   6.662   0.322  14.360 -0.0566  0.0945 -0.5008
 2899TIP3    H130188   6.687   0.233  14.335  2.0050  0.4287  0.1260
 2899TIP3    H230189   6.680   0.374  14.281 -3.0834 -0.2398 -1.5285
 2900TIP3   OH230190   6.132   1.220   0.734  0.2444  0.5669  0.5259
 2900TIP3    H130191   6.185   1.281   0.785  0.6941  0.1265  0.5827
 2900TIP3    H230192   6.136   1.254   0.644  3.7301 -1.4860 -0.2677
 2901TIP3   OH230193   5.297   0.902   6.007 -0.2650 -0.4069 -0.0609
 2901TIP3    H130194   5.308   0.983   6.057  1.4482 -0.1901 -0.7139
 2901TIP3    H230195   5.281   0.835   6.073 -1.6716  0.4316  0.4921
 2902TIP3   OH230196   2.750   3.362   2.058  0.0230  0.0637  0.0082
 2902TIP3    H130197   2.680   3.384   1.996 -0.6706 -0.3804  0.6079
 2902TIP3    H230198   2.757   3.267   2.053 -1.4854 -0.2225  2.0705
 2903TIP3   OH230199   6.441   2.972   3.924  0.1977  0.2687  0.5730
 2903TIP3    H130200   6.497   3.023   3.983  2.3651  0.0318 -1.1600
 2903TIP3    H230201   6.470   2.997   3.836 -1.6688 -0.7575 -0.3885
 2904TIP3   OH230202   2.874   5.927  14.037 -0.0299 -0.3770 -0.5468
 2904TIP3    H130203   2.885   6.022  14.047 -1.7326 -0.0558 -1.4854
 2904TIP3    H230204   2.812   5.903  14.105 -0.3151 -0.6614 -0.9048
 2905TIP3   OH230205   5.868   3.712  15.549 -0.2168 -0.3699 -0.1914
 2905TIP3    H130206   5.911   3.764  15.617 -1.3817 -1.0281  1.0932
 2905TIP3    H230207   5.800   3.664  15.595  0.0405 -2.1353 -1.5490
 2906TIP3   OH230208   5.999   3.773  17.229 -0.2157 -0.1313 -0.1273
 2906TIP3    H130209   5.967   3.802  17.144 -1.5942  0.3137  0.5148
 2906TIP3    H230210   6.028   3.683  17.215 -2.0189 -0.6604 -0.7169
 2907TIP3   OH230211   0.840   3.527   0.151 -0.3762 -0.2132  0.2926
 2907TIP3    H130212   0.903   3.592   0.183  0.6006 -0.7377 -0.5256
 2907TIP3    H230213   0.779   3.516   0.224  0.2895  0.5343  0.9906
 2908TIP3   OH230214   2.487   2.793  10.889 -0.2278 -0.0148  0.5712
 2908TIP3    H130215   2.521   2.763  10.804  1.1388  0.6410  0.8538
 2908TIP3    H230216   2.402   2.750  10.898  0.7913 -2.2454  0.1016
 2909TIP3   OH230217   5.843   2.133  14.252  0.5348 -0.4965  0.0033
 2909TIP3    H130218   5.893   2.059  14.216  0.1031 -0.9353  0.2821
 2909TIP3    H230219   5.889   2.211  14.221  1.2075 -0.8871 -0.0034
 2910TIP3   OH230220   5.564   2.132  12.972  0.1386 -0.0459  0.2373
 2910TIP3    H130221   5.618   2.053  12.965 -0.6264 -0.5455 -0.1387
 2910TIP3    H230222   5.500   2.124  12.902  0.3335  1.1443 -0.0924
 2911TIP3   OH230223   1.118   2.059  12.721 -0.1822  0.4032 -0.1981
 2911TIP3    H130224   1.055   2.037  12.790 -0.8606  1.2680 -0.5180
 2911TIP3    H230225   1.121   2.154  12.720  0.9551  0.3812 -0.3712
 2912TIP3   OH230226   2.128   2.729   2.234  0.0562  0.1232  0.5197
 2912TIP3    H130227   2.086   2.740   2.319  0.0389  0.8313  0.4307
 2912TIP3    H230228   2.082   2.792   2.177  1.3455  1.0564  0.4629
 2913TIP3   OH230229   0.504   1.075  12.071 -0.0250 -0.0075  0.0602
 2913TIP3    H130230   0.539   1.148  12.121  1.4226 -0.1109 -0.7414
 2913TIP3    H230231   0.419   1.106  12.039  0.8779  1.6260 -0.8757
 2914TIP3   OH230232   4.656   1.291  13.570 -0.3985 -0.1914 -1.1315
 2914TIP3    H130233   4.660   1.247  13.485 -1.6640  1.8462 -2.3199
 2914TIP3    H230234   4.713   1.367  13.560 -0.3888 -0.0433 -0.0653
 2915TIP3   OH230235   6.745   0.563  14.940 -0.0364 -0.1850 -0.6039
 2915TIP3    H130236   6.705   0.483  14.975 -0.2663  1.0200  2.1339
 2915TIP3    H230237   6.705   0.634  14.991  1.0442  1.5836 -2.1181
 2916TIP3   OH230238   2.439   6.531   1.901 -0.3298 -0.4421  0.4592
 2916TIP3    H130239   2.417   6.439   1.915  1.5018 -1.1704 -0.9723
 2916TIP3    H230240   2.373   6.562   1.839 -1.9224 -0.2627  2.1406
 2917TIP3   OH230241   6.708   3.704   2.163  0.4499  0.0869  0.7362
 2917TIP3    H130242   6.689   3.622   2.117  0.4347  0.0703  0.7717
 2917TIP3    H230243   6.796   3.727   2.136 -0.2450  1.0791 -0.7916
 2918TIP3   OH230244   2.153   4.545   5.481  0.5417 -0.1846  0.2580
 2918TIP3    H130245   2.212   4.482   5.522  0.2644  1.9942  4.5808
 2918TIP3    H230246   2.066   4.522   5.514 -0.1002  0.4132 -0.9262
 2919TIP3   OH230247   0.774   0.323  10.539  0.5177  0.2137 -0.2368
 2919TIP3    H130248   0.732   0.266  10.603  0.5612 -0.6541 -0.9555
 2919TIP3    H230249   0.862   0.287  10.528 -0.6577 -2.1475 -3.6001
 2920TIP3   OH230250   4.807   0.043  11.749 -0.3740  0.2041  0.0275
 2920TIP3    H130251   4.763  -0.027  11.700  0.2877 -0.1303 -0.1003
 2920TIP3    H230252   4.885   0.001  11.786 -0.2769  0.7325  0.4346
 2921TIP3   OH230253   4.741   5.878  12.288 -0.2505  0.4928  0.4247
 2921TIP3    H130254   4.657   5.853  12.326  0.0322 -1.2026 -0.0036
 2921TIP3    H230255   4.803   5.873  12.361 -0.1222 -0.5066  0.2570
 2922TIP3   OH230256   1.005   0.642  14.318 -0.2142  1.1474  0.9851
 2922TIP3    H130257   0.988   0.630  14.224 -1.2521 -1.7498  1.4495
 2922TIP3    H230258   1.087   0.690  14.321  0.8380 -0.3180 -1.4469
 2923TIP3   OH230259   0.022   5.733   3.174  0.2645 -0.2843  0.3682
 2923TIP3    H130260   0.112   5.764   3.188  0.9953 -1.6326 -0.9654
 2923TIP3    H230261   0.023   5.699   3.084 -1.4384 -0.8236  0.5216
 2924TIP3   OH230262   3.019   3.537  14.433 -0.2195 -0.7339  0.1497
 2924TIP3    H130263   3.036   3.494  14.517 -0.9459  2.1184  1.9156
 2924TIP3    H230264   2.926   3.561  14.438 -1.0638 -2.8918 -2.7503
 2925TIP3   OH230265   1.290   6.486   2.416 -0.3280 -0.3717 -0.2688
 2925TIP3    H130266   1.335   6.519   2.495  1.4372  0.6996 -1.6311
 2925TIP3    H230267   1.216   6.437   2.450  0.6294 -0.3560  2.0863
 2926TIP3   OH230268   1.013   0.455   1.337  0.4099 -0.7045 -0.5019
 2926TIP3    H130269   1.006   0.473   1.243  2.4608 -1.7382 -0.9111
 2926TIP3    H230270   0.927   0.423   1.362 -0.1556 -0.4811 -2.0452
 2927TIP3   OH230271   2.719   5.677   5.295 -0.3097  0.2136 -0.5159
 2927TIP3    H130272   2.630   5.649   5.317  0.4715 -1.7988  0.2621
 2927TIP3    H230273   2.756   5.705   5.379  0.8900 -2.2778 -0.1467
 2928TIP3   OH230274   3.743   4.601  13.124 -0.2157 -0.0460 -0.4982
 2928TIP3    H130275   3.767   4.683  13.080  0.0371  0.3352  0.3103
 2928TIP3    H230276   3.776   4.613  13.214  0.2137 -1.2126 -0.4863
 2929TIP3   OH230277   5.621   2.748  11.140 -0.6309  0.2171  0.8332
 2929TIP3    H130278   5.541   2.798  11.154  0.2424  2.4849 -1.5148
 2929TIP3    H230279   5.692   2.809  11.160  0.4714 -0.2002 -1.4578
 2930TIP3   OH230280   1.184   2.605  13.254  0.2169  0.9553  0.0058
 2930TIP3    H130281   1.241   2.571  13.185  1.6516 -1.1196  2.0772
 2930TIP3    H230282   1.241   2.617  13.329 -1.7707  0.4657  1.6753
 2931TIP3   OH230283   6.228   0.495  15.610  0.4199  0.4462 -0.1935
 2931TIP3    H130284   6.165   0.559  15.578 -0.4669 -0.1159  0.3656
 2931TIP3    H230285   6.220   0.421  15.550  1.2728  0.7605 -0.7028
 2932TIP3   OH230286   2.895   4.407   5.844 -0.2301 -0.2205 -0.3213
 2932TIP3    H130287   2.937   4.373   5.765  0.0027 -0.7109  0.0061
 2932TIP3    H230288   2.808   4.365   5.843 -0.6983  0.7199 -0.9487
 2933TIP3   OH230289   0.852   3.784   1.524  0.3354  0.4318  0.3189
 2933TIP3    H130290   0.941   3.814   1.544  0.7760 -0.4792 -0.2474
 2933TIP3    H230291   0.857   3.689   1.530 -0.7178  0.3956  0.7282
 2934TIP3   OH230292   5.028   4.762   3.499 -0.5168  0.4495  0.2192
 2934TIP3    H130293   4.997   4.851   3.518 -1.0728  0.4313 -0.5419
 2934TIP3    H230294   4.965   4.705   3.542 -0.3592  0.4208  0.4124
 2935TIP3   OH230295   1.951   6.162   0.129  0.2341  0.0761  0.1894
 2935TIP3    H130296   2.021   6.162   0.064  0.2466  1.4307  0.1765
 2935TIP3    H230297   1.871   6.173   0.078  0.1140 -0.3121  0.2936
 2936TIP3   OH230298   2.169   4.785  11.927 -0.0216 -0.4901 -0.0125
 2936TIP3    H130299   2.200   4.873  11.905 -0.9051 -0.4808 -1.2858
 2936TIP3    H230300   2.143   4.747  11.844 -2.3753 -0.8911  0.8256
 2937TIP3   OH230301   6.626   5.122  14.218  0.1599  0.2930 -0.1688
 2937TIP3    H130302   6.702   5.156  14.264 -0.9222 -0.0591  2.0244
 2937TIP3    H230303   6.563   5.194  14.221 -0.1367  0.0547 -0.5907
 2938TIP3   OH230304   0.466   1.391   0.471  0.0029  0.1113  0.7187
 2938TIP3    H130305   0.385   1.358   0.430  0.6747  0.0057 -0.5917
 2938TIP3    H230306   0.441   1.410   0.561 -1.7046  0.8881  0.1289
 2939TIP3   OH230307   0.895   4.740   1.513 -0.3242 -0.1075 -0.2463
 2939TIP3    H130308   0.845   4.775   1.587 -0.3412  0.0095 -0.3116
 2939TIP3    H230309   0.867   4.649   1.505 -1.5819  0.3329 -1.1608
 2940TIP3   OH230310   3.712   3.050  13.457 -0.0598  0.0682  0.9075
 2940TIP3    H130311   3.710   3.002  13.374  1.1659 -0.8416  1.3602
 2940TIP3    H230312   3.706   3.142  13.432  0.4817 -0.1791 -0.2196
 2941TIP3   OH230313   5.023   6.213  11.333 -0.2164  0.3170  0.1647
 2941TIP3    H130314   4.961   6.141  11.328 -0.2741  0.4305 -1.9890
 2941TIP3    H230315   4.968   6.291  11.344 -0.3189  0.2282  0.2793
 2942TIP3   OH230316   3.349   2.607   0.337 -0.3574  0.5649 -0.3589
 2942TIP3    H130317   3.307   2.525   0.364 -0.9541  1.3692  1.3064
 2942TIP3    H230318   3.278   2.662   0.305 -0.6164  1.7254  1.9528
 2943TIP3   OH230319   4.535   6.234  12.040  0.5023 -0.2334  0.5000
 2943TIP3    H130320   4.441   6.215  12.032  0.3522  0.7077 -0.1534
 2943TIP3    H230321   4.566   6.240  11.950  1.4444 -1.6210  0.7062
 2944TIP3   OH230322   4.170   4.820  16.078  0.7516 -0.1788 -0.4036
 2944TIP3    H130323   4.245   4.869  16.046  2.3346 -1.4470  1.1858
 2944TIP3    H230324   4.159   4.848  16.169 -1.9884  1.4081 -1.0958
 2945TIP3   OH230325   5.708   2.544  13.664 -0.3216 -0.2071  0.2973
 2945TIP3    H130326   5.672   2.549  13.575 -2.0021 -0.2737  0.9582
 2945TIP3    H230327   5.733   2.452  13.675  0.5720 -0.0584 -0.3390
 2946TIP3   OH230328   3.192   0.357  17.168  0.7136 -0.7825 -0.1399
 2946TIP3    H130329   3.141   0.341  17.248  1.9627 -0.2615  0.7906
 2946TIP3    H230330   3.127   0.355  17.098 -0.7294  0.5505  1.0677
 2947TIP3   OH230331   0.613   6.360   0.944  0.2750 -0.4082  0.5880
 2947TIP3    H130332   0.694   6.390   0.985  1.8128 -2.9210 -0.3122
 2947TIP3    H230333   0.572   6.305   1.011  1.2315 -2.0373 -0.0912
 2948TIP3   OH230334   4.500   4.756   3.121  0.0496  0.3162 -0.2154
 2948TIP3    H130335   4.512   4.736   3.028  0.1660  0.7427 -0.2933
 2948TIP3    H230336   4.570   4.707   3.166  0.1363  0.2955 -0.3728
 2949TIP3   OH230337   2.713   3.259  16.192 -0.3779  0.2586 -1.4987
 2949TIP3    H130338   2.618   3.268  16.197 -0.2527  1.2083 -0.5318
 2949TIP3    H230339   2.729   3.166  16.210 -1.0834  0.2307 -0.9688
 2950TIP3   OH230340   6.530   4.593   2.278  0.3629  0.7286 -0.0742
 2950TIP3    H130341   6.537   4.659   2.347 -1.2041 -1.1954  2.0249
 2950TIP3    H230342   6.488   4.640   2.205  0.3569  2.3378  0.9101
 2951TIP3   OH230343   5.973   0.799   0.674 -0.1846 -0.4486  0.3452
 2951TIP3    H130344   6.001   0.845   0.753 -0.7084 -0.3842  0.4993
 2951TIP3    H230345   5.983   0.864   0.604  1.0005 -0.7366  0.2150
 2952TIP3   OH230346   5.815   0.183   3.942 -0.0929  0.1357  0.2318
 2952TIP3    H130347   5.762   0.166   3.865 -1.4118  0.1949  1.1036
 2952TIP3    H230348   5.763   0.152   4.015  1.7255 -1.2132  1.0234
 2953TIP3   OH230349   3.174   4.678   0.806 -0.0365 -0.2875  0.6669
 2953TIP3    H130350   3.161   4.695   0.899  1.2082  0.6634  0.6914
 2953TIP3    H230351   3.213   4.759   0.772  0.5862 -1.0355 -0.4475
 2954TIP3   OH230352   1.707   2.191   1.551 -0.4482  0.0862 -0.2664
 2954TIP3    H130353   1.768   2.145   1.494 -1.9469 -0.5413 -1.4410
 2954TIP3    H230354   1.762   2.236   1.615  1.1480 -1.6900 -0.3257
 2955TIP3   OH230355   4.146   3.092   3.900  0.4059  0.4946 -0.1501
 2955TIP3    H130356   4.180   3.175   3.935  0.7436  0.8439 -1.2537
 2955TIP3    H230357   4.072   3.118   3.846 -0.7079 -0.1284  1.0154
 2956TIP3   OH230358   5.207   1.024   2.855 -0.2097 -0.1363 -0.0685
 2956TIP3    H130359   5.155   1.037   2.935  0.3777  0.9805  0.1528
 2956TIP3    H230360   5.225   1.113   2.824  2.8846 -0.3780  0.7158
 2957TIP3   OH230361   1.153   1.728  12.613  0.5460 -0.0515 -0.0091
 2957TIP3    H130362   1.185   1.714  12.524  2.0181 -0.0866  0.4850
 2957TIP3    H230363   1.155   1.641  12.653 -0.2834 -0.0661  0.0199
 2958TIP3   OH230364   6.248   1.075  10.975 -0.1118 -0.4731  0.3910
 2958TIP3    H130365   6.172   1.065  10.918  0.3692  0.8454 -0.5287
 2958TIP3    H230366   6.322   1.046  10.922  0.1150 -1.2371  1.0941
 2959TIP3   OH230367   1.530   1.955  11.591  0.1619  0.1188 -0.1709
 2959TIP3    H130368   1.498   1.920  11.508  1.9124 -0.3462 -0.6871
 2959TIP3    H230369   1.468   1.921  11.656 -1.3826  0.7009 -1.2723
 2960TIP3   OH230370   1.587   6.479   3.328  0.4808 -0.0487  0.1166
 2960TIP3    H130371   1.542   6.411   3.277  0.7333  1.3565 -2.1543
 2960TIP3    H230372   1.679   6.454   3.324  1.0489  1.8750 -3.5086
 2961TIP3   OH230373   6.472   5.717   3.124 -0.3467 -0.2170 -0.1140
 2961TIP3    H130374   6.550   5.773   3.122 -0.2608 -0.2850  0.9419
 2961TIP3    H230375   6.505   5.630   3.103 -0.0672 -0.3149  0.7078
 2962TIP3   OH230376   0.089   2.290   4.345  0.7006  0.2295  0.2668
 2962TIP3    H130377   0.118   2.262   4.258  2.1713  1.2565  0.3991
 2962TIP3    H230378   0.169   2.293   4.397 -0.0145  0.6688  1.3643
 2963TIP3   OH230379   6.273   3.323   3.725 -0.1946  0.0886 -0.1807
 2963TIP3    H130380   6.328   3.379   3.780  3.0235 -2.0749 -0.9182
 2963TIP3    H230381   6.311   3.330   3.637  0.9729 -3.6918 -0.1781
 2964TIP3   OH230382   0.698   6.539  11.845 -0.1693  0.2241  0.0126
 2964TIP3    H130383   0.674   6.514  11.756 -1.5290 -0.0079  0.4158
 2964TIP3    H230384   0.666   6.629  11.854 -1.2185 -0.1974  0.6647
 2965TIP3   OH230385   1.597   4.655  13.742 -0.0134  0.5823  0.1874
 2965TIP3    H130386   1.595   4.690  13.831  1.7293 -1.0398  0.9386
 2965TIP3    H230387   1.634   4.567  13.752 -0.0256  0.2588 -2.1244
 2966TIP3   OH230388   6.432   2.321   0.405  0.1584 -0.6567  0.3972
 2966TIP3    H130389   6.338   2.338   0.408 -0.2471 -2.4570 -0.4057
 2966TIP3    H230390   6.468   2.394   0.355 -1.1162 -0.9404 -1.0144
 2967TIP3   OH230391   2.920   3.192   4.509 -0.1273 -0.3261 -0.3668
 2967TIP3    H130392   2.827   3.189   4.531  0.0602 -0.0539  0.5071
 2967TIP3    H230393   2.948   3.100   4.510 -0.3388 -0.3921 -0.4272
 2968TIP3   OH230394   1.719   5.208   0.512  0.1783  0.3012  0.3253
 2968TIP3    H130395   1.801   5.250   0.487 -0.5987  0.7048 -1.7740
 2968TIP3    H230396   1.651   5.265   0.477 -0.9540 -1.2547 -0.1606
 2969TIP3   OH230397   6.197   1.271  15.284  1.0593  0.2745 -0.3579
 2969TIP3    H130398   6.179   1.256  15.191 -2.5624  0.2952  0.2029
 2969TIP3    H230399   6.173   1.188  15.326 -0.2567  1.2077  0.8078
 2970TIP3   OH230400   5.953   3.761  14.379  0.2508  0.1619 -0.0099
 2970TIP3    H130401   5.878   3.792  14.430  0.2122  1.0950 -0.6064
 2970TIP3    H230402   6.023   3.748  14.443  0.3709  1.8287  0.2406
 2971TIP3   OH230403   4.151   0.135  15.715 -0.5606 -0.6258 -0.3114
 2971TIP3    H130404   4.108   0.151  15.799 -0.2435 -0.6054 -0.1525
 2971TIP3    H230405   4.089   0.169  15.650 -1.1367 -1.3288 -0.1348
 2972TIP3   OH230406   3.011   6.088   0.736 -0.2743  0.2336  0.5055
 2972TIP3    H130407   2.931   6.125   0.697 -1.3231  2.0039  3.8946
 2972TIP3    H230408   2.990   6.080   0.829  2.9105 -1.0325  1.2297
 2973TIP3   OH230409   0.277   2.570   1.678 -0.1505  0.7431 -0.0465
 2973TIP3    H130410   0.306   2.650   1.634 -0.1346 -0.3541 -2.2079
 2973TIP3    H230411   0.317   2.499   1.627 -2.1682 -0.6969  0.2355
 2974TIP3   OH230412   2.020   4.775  11.210  0.6892 -0.3188 -0.4110
 2974TIP3    H130413   2.063   4.857  11.184  0.5374 -0.1337 -0.0890
 2974TIP3    H230414   2.091   4.720  11.242  0.5108  0.6070  1.7207
 2975TIP3   OH230415   2.778   2.425   3.343 -0.5265  0.1244  0.2240
 2975TIP3    H130416   2.777   2.454   3.434 -1.3370 -0.6320  0.4636
 2975TIP3    H230417   2.707   2.474   3.301 -0.6638 -0.1115  0.1831
 2976TIP3   OH230418   3.299   4.393  15.069  0.4804 -0.1929  0.1692
 2976TIP3    H130419   3.384   4.424  15.100  0.9455  0.3716 -1.5391
 2976TIP3    H230420   3.308   4.388  14.974 -1.1343 -0.9608  0.0101
 2977TIP3   OH230421   0.989   4.552  11.077  0.1844 -0.2436  0.9769
 2977TIP3    H130422   1.074   4.513  11.057  0.2210  0.1836  0.2448
 2977TIP3    H230423   1.008   4.623  11.137  0.0712 -1.5861  2.6755
 2978TIP3   OH230424   0.997   0.523  10.838 -0.3671 -0.0503 -0.2506
 2978TIP3    H130425   0.990   0.570  10.921  0.9020 -0.1400 -0.0725
 2978TIP3    H230426   0.946   0.443  10.852 -0.1290 -0.0882  0.4620
 2979TIP3   OH230427   2.818   1.452  15.463 -0.4223  0.7022  0.5202
 2979TIP3    H130428   2.789   1.370  15.501 -1.8093  0.6639 -0.5365
 2979TIP3    H230429   2.791   1.519  15.526 -3.3183  0.7082 -0.5826
 2980TIP3   OH230430   4.913   1.643   2.918 -0.5747  0.2230  0.1316
 2980TIP3    H130431   5.005   1.655   2.943 -0.8662  3.2227  0.0689
 2980TIP3    H230432   4.890   1.558   2.955  2.2642 -0.7218 -0.0244
 2981TIP3   OH230433   0.668   0.501  12.384 -0.2233  0.8201 -0.3771
 2981TIP3    H130434   0.733   0.570  12.371  1.7122 -0.9722 -0.7883
 2981TIP3    H230435   0.600   0.518  12.320 -0.3832  2.9577  0.2960
 2982TIP3   OH230436   0.628   5.881   3.850 -0.1387  0.4462 -0.6329
 2982TIP3    H130437   0.650   5.788   3.840 -0.2753  0.2710  0.5598
 2982TIP3    H230438   0.683   5.911   3.922 -2.1515  0.5471  0.9431
 2983TIP3   OH230439   6.165   5.049   1.395  0.8391 -0.2100  0.0864
 2983TIP3    H130440   6.112   5.128   1.399 -0.4012 -1.0718  2.2768
 2983TIP3    H230441   6.167   5.026   1.302 -0.3993  1.2909 -0.3456
 2984TIP3   OH230442   3.169   4.817  15.857  0.2777 -0.0233  0.0403
 2984TIP3    H130443   3.200   4.755  15.792 -1.9243 -1.3682  0.1891
 2984TIP3    H230444   3.225   4.801  15.934  1.5103  0.1300 -0.7909
 2985TIP3   OH230445   3.034   2.550  15.813 -0.5988 -1.0498 -0.3972
 2985TIP3    H130446   3.019   2.601  15.733  0.4302  0.2322  0.1740
 2985TIP3    H230447   2.955   2.565  15.866  0.1491  1.0146  0.2559
 2986TIP3   OH230448   0.227   2.059   3.156  0.1762 -0.1005 -0.2368
 2986TIP3    H130449   0.281   2.015   3.090  0.3305 -1.7185  0.8958
 2986TIP3    H230450   0.137   2.040   3.130  0.1732  0.8661 -0.9929
 2987TIP3   OH230451   6.531   0.515   0.774 -0.3693  0.0485 -0.0858
 2987TIP3    H130452   6.515   0.517   0.868 -2.8899 -0.7586 -0.4123
 2987TIP3    H230453   6.591   0.441   0.761  0.0790  0.2311  0.8662
 2988TIP3   OH230454   2.167   3.281   0.072  0.2315  0.2281  0.5069
 2988TIP3    H130455   2.077   3.300   0.099 -0.3664 -1.2703 -0.3279
 2988TIP3    H230456   2.170   3.306  -0.020  1.4304  2.6166  1.1327
 2989TIP3   OH230457   6.011   5.951   3.789  0.4984  0.2585  0.0430
 2989TIP3    H130458   6.093   5.997   3.811  0.5396  0.8930 -1.3429
 2989TIP3    H230459   6.014   5.940   3.694 -0.2421 -1.2689  0.1787
 2990TIP3   OH230460   2.976   4.759   0.187 -0.4126 -0.3137 -0.3944
 2990TIP3    H130461   3.066   4.773   0.215 -0.7975  0.8879  0.3326
 2990TIP3    H230462   2.937   4.847   0.187 -1.1212 -0.5736 -2.3477
 2991TIP3   OH230463   4.748   2.500  11.518 -0.0598 -0.8113  0.3865
 2991TIP3    H130464   4.744   2.582  11.567  0.1155 -0.1454 -0.6946
 2991TIP3    H230465   4.834   2.463  11.539 -0.0530 -0.6195  0.6995
 2992TIP3   OH230466   5.155   6.078   1.896  0.2008 -0.0482  0.0302
 2992TIP3    H130467   5.124   6.133   1.967 -0.0116  0.0838 -0.1625
 2992TIP3    H230468   5.093   6.094   1.824  0.3104 -0.3121 -0.1249
 2993TIP3   OH230469   3.690   6.441   2.901 -0.0883 -0.4439 -0.1834
 2993TIP3    H130470   3.730   6.368   2.949  0.6030  0.5608  0.8119
 2993TIP3    H230471   3.627   6.478   2.963  0.7431  0.8101 -0.0570
 2994TIP3   OH230472   5.908   2.544  16.458 -0.5137 -0.0415 -0.5001
 2994TIP3    H130473   5.918   2.479  16.528 -0.1312 -1.5219 -1.8619
 2994TIP3    H230474   5.814   2.545  16.441 -0.7575  1.1460  0.7329
 2995TIP3   OH230475   6.130   6.623   4.141 -0.5572 -0.0279 -0.3112
 2995TIP3    H130476   6.037   6.601   4.134  0.0523 -4.3897  1.5950
 2995TIP3    H230477   6.160   6.627   4.051 -2.3067 -0.2410 -0.9459
 2996TIP3   OH230478   6.381   6.388   0.097 -0.5038  0.5023 -0.4989
 2996TIP3    H130479   6.352   6.323   0.162 -0.5896  0.9231 -0.1135
 2996TIP3    H230480   6.300   6.430   0.068 -0.2284  2.8177  1.7732
 2997TIP3   OH230481   0.047   4.650  10.894 -0.3844 -0.5990 -0.0680
 2997TIP3    H130482   0.045   4.631  10.800 -0.3287 -2.0000  0.1934
 2997TIP3    H230483   0.118   4.713  10.904 -0.3872 -0.4421 -0.9667
 2998TIP3   OH230484   3.422   5.732  11.306  0.1917  0.8619  0.2844
 2998TIP3    H130485   3.379   5.815  11.326  0.4679  1.3436 -1.0076
 2998TIP3    H230486   3.359   5.665  11.332 -0.3135  1.4935  0.7038
 2999TIP3   OH230487   1.170   5.024  10.844 -0.5813 -0.6003 -0.1655
 2999TIP3    H130488   1.084   5.038  10.804 -0.3726  0.3231 -0.2931
 2999TIP3    H230489   1.149   4.991  10.932 -1.1190  1.0893  0.3785
 3000TIP3   OH230490   5.012   6.068  17.075  0.3961  0.2314 -0.0371
 3000TIP3    H130491   4.996   5.974  17.081  1.1425  0.1871  1.5454
 3000TIP3    H230492   4.926   6.108  17.089  0.4329 -0.1757  1.5236
 3001TIP3   OH230493   1.481   4.306  14.492  0.6175 -0.5038 -0.1332
 3001TIP3    H130494   1.458   4.399  14.493 -0.3029 -0.7018 -0.8044
 3001TIP3    H230495   1.480   4.280  14.584 -1.1994 -0.3137 -0.0620
 3002TIP3   OH230496   5.879   6.441   3.898  0.3716  0.0895 -0.0947
 3002TIP3    H130497   5.917   6.439   3.810  0.4367  0.8105 -0.0909
 3002TIP3    H230498   5.785   6.430   3.884  0.3824  0.2028 -0.2550
 3003TIP3   OH230499   3.096   4.288   0.582 -0.0273  0.1074  0.5322
 3003TIP3    H130500   3.138   4.323   0.660  1.2632 -1.9374  0.8333
 3003TIP3    H230501   3.094   4.362   0.521  0.3128  1.3350  1.9473
 3004TIP3   OH230502   4.665   3.287  16.408  0.1754  0.4710  0.0965
 3004TIP3    H130503   4.581   3.313  16.445  0.0869 -1.1853  1.1551
 3004TIP3    H230504   4.722   3.362  16.422  0.1640 -0.0244  3.7322
 3005TIP3   OH230505   4.446   1.772   3.318  0.5331  0.3973  0.0839
 3005TIP3    H130506   4.519   1.770   3.379  0.4665  3.6631  0.4674
 3005TIP3    H230507   4.470   1.838   3.254 -0.7180 -0.8002 -1.7153
 3006TIP3   OH230508   3.234   5.796   2.201 -0.5267 -0.1391 -0.0587
 3006TIP3    H130509   3.215   5.845   2.281  3.3736  0.8559  0.4686
 3006TIP3    H230510   3.221   5.859   2.131  0.3214  0.3528  0.2191
 3007TIP3   OH230511   3.492   3.111   0.240  0.0842 -0.0949  0.3573
 3007TIP3    H130512   3.551   3.060   0.296 -0.7765 -1.7186 -0.1263
 3007TIP3    H230513   3.549   3.162   0.183  0.9776  0.4666  1.7232
 3008TIP3   OH230514   3.686   0.223   2.537  0.1836 -0.1294  0.1255
 3008TIP3    H130515   3.676   0.144   2.484  0.0178  0.0663 -0.1361
 3008TIP3    H230516   3.776   0.219   2.569  0.4349 -0.0290 -0.5357
 3009TIP3   OH230517   0.423   5.606  16.066 -0.1849 -0.2173 -0.1651
 3009TIP3    H130518   0.499   5.579  16.014 -0.7548 -2.1216 -0.1121
 3009TIP3    H230519   0.353   5.620  16.003 -0.0971  0.4232 -0.1259
 3010TIP3   OH230520   1.135   4.711  11.413  0.1175 -0.0888  0.5181
 3010TIP3    H130521   1.163   4.779  11.475 -1.1796 -0.2982  1.3794
 3010TIP3    H230522   1.193   4.722  11.338  0.8403  1.0733  1.2100
 3011TIP3   OH230523   1.130   3.172   4.762  0.3287  0.5202  0.0638
 3011TIP3    H130524   1.041   3.208   4.763  0.2790  0.4186  1.9471
 3011TIP3    H230525   1.151   3.165   4.669 -0.9004  2.3453 -0.4111
 3012TIP3   OH230526   4.375   6.068   4.423  0.2518  0.2890 -0.0102
 3012TIP3    H130527   4.398   5.991   4.474 -0.1581  0.7360  0.8574
 3012TIP3    H230528   4.446   6.075   4.359  1.0542  0.0297  0.8230
 3013TIP3   OH230529   4.598   1.608  16.885 -0.9031 -0.2551 -0.6212
 3013TIP3    H130530   4.592   1.517  16.856  0.1003 -0.0082 -1.6235
 3013TIP3    H230531   4.628   1.656  16.809 -1.3218  0.9157 -0.0685
 3014TIP3   OH230532   1.675   5.243   6.004 -0.5202 -0.1856  0.2330
 3014TIP3    H130533   1.631   5.158   6.009 -2.4649  0.8273  1.6594
 3014TIP3    H230534   1.706   5.259   6.093  1.0668  0.0074 -0.3345
 3015TIP3   OH230535   0.493   5.449  13.429  0.6197 -0.3104  0.1317
 3015TIP3    H130536   0.557   5.486  13.369  1.3101 -1.6446  0.0169
 3015TIP3    H230537   0.517   5.485  13.515 -0.2236  1.4065 -0.2864
 3016TIP3   OH230538   2.188   0.748   0.497  0.2189 -0.6515 -0.1029
 3016TIP3    H130539   2.233   0.801   0.563  0.4288  0.3037 -0.9818
 3016TIP3    H230540   2.125   0.808   0.457  1.5501 -0.5297 -2.2098
 3017TIP3   OH230541   1.459   1.696  13.233 -0.3584  0.1386  0.0005
 3017TIP3    H130542   1.513   1.617  13.231 -0.9676 -0.3128  0.7053
 3017TIP3    H230543   1.373   1.666  13.202 -0.9128  0.2475  1.3679
 3018TIP3   OH230544   1.765   4.615   6.279  0.2019  0.0672  0.4921
 3018TIP3    H130545   1.787   4.530   6.239 -0.6443  0.5089 -0.9970
 3018TIP3    H230546   1.714   4.660   6.212  0.2914  1.6071  1.4223
 3019TIP3   OH230547   5.201   2.202   2.931 -0.8949 -0.0175 -0.5097
 3019TIP3    H130548   5.123   2.196   2.986 -0.5193 -1.6130 -0.1022
 3019TIP3    H230549   5.270   2.233   2.989 -0.9904  0.4398 -0.6343
 3020TIP3   OH230550   4.785   3.270  16.014  0.0846 -0.1394 -0.2424
 3020TIP3    H130551   4.766   3.190  16.063 -0.9728  1.1596  1.5939
 3020TIP3    H230552   4.702   3.318  16.014  0.2669  0.2836 -2.7068
 3021TIP3   OH230553   5.583   0.176  15.853 -0.3483 -0.2577 -0.3846
 3021TIP3    H130554   5.537   0.256  15.877 -2.2690 -1.2144 -0.7510
 3021TIP3    H230555   5.581   0.175  15.758  0.6873 -0.2002 -0.4228
 3022TIP3   OH230556   6.616   6.589   0.085  0.0973 -1.0662  0.0417
 3022TIP3    H130557   6.604   6.631  -0.000 -0.6589 -0.9860  0.1782
 3022TIP3    H230558   6.552   6.517   0.086 -0.8772 -0.2293  1.0561
 3023TIP3   OH230559   1.065   0.526   4.860  1.3543 -0.0183  0.2693
 3023TIP3    H130560   1.000   0.581   4.904  1.1277  1.3664 -1.6960
 3023TIP3    H230561   1.051   0.541   4.767  1.2693 -3.4783 -0.4364
 3024TIP3   OH230562   5.253   5.621  13.542 -0.0766 -0.1067 -0.2610
 3024TIP3    H130563   5.232   5.647  13.452 -0.6531 -0.0341 -0.1071
 3024TIP3    H230564   5.278   5.703  13.585 -2.0605  0.2528  0.2708
 3025TIP3   OH230565   1.033   5.740   0.219  0.8187 -0.4978  0.1561
 3025TIP3    H130566   1.002   5.830   0.221  1.3445 -0.3365  1.9720
 3025TIP3    H230567   1.093   5.737   0.144  0.0698  0.3850 -0.5062
 3026TIP3   OH230568   0.851   5.745   4.804  0.7492 -0.2088 -0.2343
 3026TIP3    H130569   0.931   5.705   4.838 -0.0607 -1.0329  0.7500
 3026TIP3    H230570   0.873   5.768   4.714  1.3579 -2.6201 -0.7729
 3027TIP3   OH230571   5.091   3.632   1.023  0.6317 -0.1501  0.1940
 3027TIP3    H130572   5.042   3.675   0.954  1.6565  0.8066  0.0446
 3027TIP3    H230573   5.152   3.698   1.055  0.9722 -0.9294  1.2246
 3028TIP3   OH230574   3.545   6.394  14.236 -0.0026 -0.2593  0.0525
 3028TIP3    H130575   3.601   6.445  14.178 -1.3886  1.0303 -0.1948
 3028TIP3    H230576   3.531   6.311  14.190  2.0446 -0.8204  0.3425
 3029TIP3   OH230577   5.275   1.529   2.496 -0.2505 -0.3557  0.8888
 3029TIP3    H130578   5.371   1.528   2.489 -0.3812 -0.3104 -1.3516
 3029TIP3    H230579   5.252   1.438   2.517  0.2570 -0.3877  1.3427
 3030TIP3   OH230580   5.584   2.084   6.234  0.2573  0.0240 -0.1728
 3030TIP3    H130581   5.629   2.165   6.255 -0.6292  0.1479  1.4225
 3030TIP3    H230582   5.496   2.095   6.271 -0.2823 -1.1828 -1.0100
 3031TIP3   OH230583   1.096   2.702  13.616  0.2371 -0.2341  0.2718
 3031TIP3    H130584   1.049   2.782  13.640 -1.0053 -0.8532 -0.0740
 3031TIP3    H230585   1.135   2.672  13.698 -0.6000 -0.1226  0.7187
 3032TIP3   OH230586   0.372   4.923  11.546 -0.4504 -0.1720  0.3857
 3032TIP3    H130587   0.306   4.856  11.528 -1.2345  0.5527  0.5128
 3032TIP3    H230588   0.379   4.973  11.464 -0.6216  0.2281  0.6124
 3033TIP3   OH230589   4.766   5.783   4.135 -0.1375  0.3530  0.1388
 3033TIP3    H130590   4.824   5.742   4.199 -0.9826 -0.3567  0.4796
 3033TIP3    H230591   4.769   5.725   4.059  0.1417  0.6906 -0.1083
 3034TIP3   OH230592   5.314   2.498   1.101  0.6118 -0.0977 -0.3915
 3034TIP3    H130593   5.386   2.551   1.135  2.7201 -1.6884 -2.1138
 3034TIP3    H230594   5.314   2.419   1.155 -1.2570  0.7152  0.9110
 3035TIP3   OH230595   1.115   1.622   4.818  0.4206 -0.1316 -0.3196
 3035TIP3    H130596   1.033   1.583   4.847  0.6654 -0.2105  0.2629
 3035TIP3    H230597   1.088   1.698   4.766 -0.0156  0.2727  0.4766
 3036TIP3   OH230598   0.844   5.980   5.728  0.3311  0.4889 -0.5164
 3036TIP3    H130599   0.859   5.893   5.691  0.3664  0.0080  0.5991
 3036TIP3    H230600   0.926   6.027   5.713  0.7396 -0.0668 -0.0522
 3037TIP3   OH230601   5.540   1.297   1.418 -0.3846 -0.0355 -0.0879
 3037TIP3    H130602   5.552   1.361   1.347 -2.5065 -0.8621 -1.3022
 3037TIP3    H230603   5.577   1.216   1.383  2.2483  0.3888  1.4293
 3038TIP3   OH230604   3.436   6.453  12.770  0.0666 -0.2138  0.1767
 3038TIP3    H130605   3.379   6.460  12.693 -0.6652 -1.7190  0.5559
 3038TIP3    H230606   3.506   6.395  12.742 -0.8470 -1.7505  0.9916
 3039TIP3   OH230607   6.769   1.594  15.794  0.0956 -0.0641  0.0192
 3039TIP3    H130608   6.860   1.594  15.824 -0.8040  0.9812  3.2132
 3039TIP3    H230609   6.721   1.552  15.865 -2.1004  0.8609 -0.8305
 3040TIP3   OH230610   0.503   4.352  14.058 -0.3644  0.4843  0.2929
 3040TIP3    H130611   0.537   4.428  14.011 -0.6113  0.4715  0.0897
 3040TIP3    H230612   0.518   4.371  14.150 -1.0404  1.0783  0.2832
 3041TIP3   OH230613   4.043   1.620  16.020 -0.1314  0.2561 -0.5391
 3041TIP3    H130614   3.965   1.570  15.993  0.7700 -1.4051 -0.2162
 3041TIP3    H230615   4.106   1.606  15.949  0.3341  0.4688 -0.1729
 3042TIP3   OH230616   4.084   6.523   0.143  0.4859  0.2153  0.7832
 3042TIP3    H130617   4.076   6.456   0.210 -1.1727 -1.0621 -0.5825
 3042TIP3    H230618   4.016   6.587   0.165  1.4912  1.0250  1.5980
 3043TIP3   OH230619   3.214   6.450   6.284 -0.3697  0.0429  0.3140
 3043TIP3    H130620   3.219   6.544   6.272  0.1339 -0.1797 -1.6101
 3043TIP3    H230621   3.126   6.434   6.317 -0.5954  1.1395  0.2745
 3044TIP3   OH230622   1.203   0.259  12.039 -0.2206 -0.0650 -0.0842
 3044TIP3    H130623   1.143   0.184  12.036  1.2955 -1.3082 -0.9755
 3044TIP3    H230624   1.286   0.225  12.006 -0.0850  2.6041 -3.0179
 3045TIP3   OH230625   0.170   5.577   2.989  0.4582  0.1099  0.0657
 3045TIP3    H130626   0.229   5.525   3.044 -1.9187 -0.1050  2.6290
 3045TIP3    H230627   0.114   5.512   2.947 -1.1541  0.4205  1.6290
 3046TIP3   OH230628   5.014   1.330   2.773  0.2585  0.3708  0.3172
 3046TIP3    H130629   5.093   1.329   2.719 -0.7936 -0.4240 -1.2616
 3046TIP3    H230630   5.046   1.312   2.862  1.7029 -1.6266 -0.5339
 3047TIP3   OH230631   4.990   0.370   5.311  0.1376  0.0637  0.2305
 3047TIP3    H130632   4.913   0.414   5.275 -0.3703 -0.7352  0.3162
 3047TIP3    H230633   4.971   0.276   5.302  1.3845 -0.1511 -0.3498
 3048TIP3   OH230634   5.220   0.696   2.497 -0.5345 -0.2163 -1.0263
 3048TIP3    H130635   5.165   0.618   2.491  0.2777 -0.9306  0.3543
 3048TIP3    H230636   5.173   0.754   2.557  0.0268 -0.6811 -0.1223
 3049TIP3   OH230637   3.108   2.838  13.461  0.9687 -0.2524  0.0537
 3049TIP3    H130638   3.110   2.885  13.544  0.5451  1.5465 -0.9010
 3049TIP3    H230639   3.187   2.784  13.461  1.0244 -0.2107  1.5525
 3050TIP3   OH230640   3.956   3.875   3.564 -0.7506  0.3833  0.1890
 3050TIP3    H130641   4.020   3.937   3.527 -0.0912 -0.0524  0.5869
 3050TIP3    H230642   3.881   3.930   3.587  0.2555  1.2523  1.5898
 3051TIP3   OH230643   1.198   5.626  13.920 -0.7368 -0.1923  0.2425
 3051TIP3    H130644   1.154   5.705  13.949 -0.8716 -0.6211  1.2388
 3051TIP3    H230645   1.162   5.556  13.975  0.7159 -0.6579  0.6483
 3052TIP3   OH230646   3.203   0.066   3.623  0.1988  0.0448 -0.3308
 3052TIP3    H130647   3.296   0.088   3.629  0.6875 -1.9006  0.0384
 3052TIP3    H230648   3.162   0.115   3.694  1.0492  0.4679 -0.1212
 3053TIP3   OH230649   1.731   2.428   1.241 -0.1731  0.4425 -0.4067
 3053TIP3    H130650   1.770   2.458   1.323  1.2002 -1.0502 -0.4634
 3053TIP3    H230651   1.637   2.427   1.257  0.0481  0.5894  0.9897
 3054TIP3   OH230652   1.591   4.406  14.972  0.3291  0.3887  0.5270
 3054TIP3    H130653   1.640   4.455  15.038  0.4824 -0.4800  1.0804
 3054TIP3    H230654   1.580   4.467  14.899 -1.0229  1.8406  1.8675
 3055TIP3   OH230655   1.945   5.646   0.434 -0.1315 -0.0878 -0.1833
 3055TIP3    H130656   2.039   5.660   0.440 -0.4266  1.6322  1.5021
 3055TIP3    H230657   1.920   5.613   0.521 -1.0902 -0.4992 -0.5964
 3056TIP3   OH230658   2.983   5.720  12.913 -0.1059 -0.5030 -0.6447
 3056TIP3    H130659   2.893   5.713  12.881  0.8619 -0.4773 -3.7816
 3056TIP3    H230660   3.001   5.814  12.912 -0.4716 -0.3739  1.4998
 3057TIP3   OH230661   0.227   1.149  14.930 -0.1446  0.1253 -0.0592
 3057TIP3    H130662   0.313   1.111  14.914 -0.3335 -0.0690 -0.6203
 3057TIP3    H230663   0.245   1.233  14.971  0.3615  0.9167 -1.8490
 3058TIP3   OH230664   2.762   3.234   1.407  0.3615  0.1283  0.3208
 3058TIP3    H130665   2.672   3.210   1.385  0.5834  1.7453 -2.9311
 3058TIP3    H230666   2.756   3.324   1.440  0.7593  0.1240  0.4178
 3059TIP3   OH230667   6.519   5.040  12.402  0.6754 -0.3400 -0.1188
 3059TIP3    H130668   6.507   4.948  12.379  0.8147 -0.7420  1.2904
 3059TIP3    H230669   6.520   5.040  12.498  2.5585  0.8864 -0.0944
 3060TIP3   OH230670   5.369   3.279   4.074 -0.1069 -0.3931  0.3919
 3060TIP3    H130671   5.424   3.272   4.152 -0.2756 -1.0336  0.4583
 3060TIP3    H230672   5.431   3.284   4.001  0.0513  0.2234  0.5652
 3061TIP3   OH230673   4.773   4.793   5.055  0.2844 -0.2525 -0.2727
 3061TIP3    H130674   4.782   4.759   5.144  2.1322 -0.5811 -0.5595
 3061TIP3    H230675   4.771   4.715   5.000 -1.0296 -0.0576 -0.5330
 3062TIP3   OH230676   5.017   6.796  17.225 -0.3770 -0.2663 -0.4683
 3062TIP3    H130677   4.994   6.888  17.215 -1.0402 -0.5729 -1.9942
 3062TIP3    H230678   5.102   6.788  17.183  0.7568  0.0499  1.6189
 3063TIP3   OH230679   3.025   1.159   3.973  0.6949  0.1383 -0.1087
 3063TIP3    H130680   3.037   1.227   3.906 -0.7844 -0.3837 -0.9545
 3063TIP3    H230681   2.970   1.094   3.930  3.1371 -2.3114  0.1915
 3064TIP3   OH230682   0.225   3.168  11.856  0.4665  0.0904  0.2547
 3064TIP3    H130683   0.137   3.205  11.862  1.1467  1.8051  0.2061
 3064TIP3    H230684   0.264   3.209  11.779  0.5806 -2.3436 -1.0707
 3065TIP3   OH230685   5.080   0.622   2.910  0.3184 -0.3792  0.1826
 3065TIP3    H130686   5.073   0.639   3.004 -1.3986 -2.3081  0.4717
 3065TIP3    H230687   5.040   0.536   2.898  0.1090  0.0006 -2.3830
 3066TIP3   OH230688   5.545   4.426   1.201 -0.0225  0.3614 -0.3163
 3066TIP3    H130689   5.640   4.428   1.216  0.1328  0.5419 -1.2338
 3066TIP3    H230690   5.536   4.446   1.108 -0.9184 -0.4777 -0.4265
 3067TIP3   OH230691   1.795   2.999   0.818 -0.4370 -0.1279 -0.2450
 3067TIP3    H130692   1.725   2.962   0.873  0.9005 -1.8060  0.4219
 3067TIP3    H230693   1.830   3.071   0.870  2.7222 -3.3856  2.7594
 3068TIP3   OH230694   3.973   4.833   5.657  0.0383  0.0001  0.2032
 3068TIP3    H130695   4.065   4.812   5.644  0.1321  0.5557 -0.0634
 3068TIP3    H230696   3.971   4.881   5.740  0.0333  0.2436  0.0644
 3069TIP3   OH230697   3.479   0.495  12.282  0.1090 -0.4113 -0.2530
 3069TIP3    H130698   3.389   0.506  12.249 -0.1020 -1.9378 -0.2650
 3069TIP3    H230699   3.515   0.424  12.229  1.7252  0.8979 -0.9820
 3070TIP3   OH230700   3.382   5.981   3.061  0.0491 -0.4329 -0.7894
 3070TIP3    H130701   3.412   5.894   3.036  1.0318 -0.0120 -1.1192
 3070TIP3    H230702   3.455   6.039   3.040  0.6832  0.0850  2.3692
 3071TIP3   OH230703   3.076   4.930   1.783  0.2729 -0.3988  0.2392
 3071TIP3    H130704   3.037   4.996   1.839  1.9385  1.9690 -1.2256
 3071TIP3    H230705   3.008   4.862   1.774 -1.4850  1.0541  1.8252
 3072TIP3   OH230706   6.119   3.811  12.329  0.0334  0.3313 -0.0761
 3072TIP3    H130707   6.206   3.850  12.341 -0.3310  1.2386 -0.3527
 3072TIP3    H230708   6.134   3.717  12.340  1.3351  0.3275 -1.5094
 3073TIP3   OH230709   0.413   0.620  11.682  0.0280  0.0029 -0.3667
 3073TIP3    H130710   0.494   0.590  11.723 -1.3011  0.3959  2.9098
 3073TIP3    H230711   0.372   0.540  11.649  0.9041 -0.4481 -0.3974
 3074TIP3   OH230712   0.854   6.218   6.342 -0.1678  0.0553 -0.3343
 3074TIP3    H130713   0.763   6.225   6.372 -0.4753 -0.8231 -1.0257
 3074TIP3    H230714   0.853   6.256   6.254  0.7565  2.7605  0.7308
 3075TIP3   OH230715   6.196   5.886   4.410  0.2712  0.1329  0.0734
 3075TIP3    H130716   6.131   5.830   4.454 -0.1360  0.2780 -0.3291
 3075TIP3    H230717   6.150   5.968   4.396  0.3068  0.0034 -0.8467
 3076TIP3   OH230718   3.965   5.399  16.691  0.0587 -0.4210  0.3446
 3076TIP3    H130719   4.028   5.334  16.657  0.5637  0.1523  0.1657
 3076TIP3    H230720   3.977   5.396  16.786  0.1663 -0.5026  0.3292
 3077TIP3   OH230721   0.536   4.471   4.174 -0.1544  0.1834  0.3969
 3077TIP3    H130722   0.442   4.466   4.158 -0.4527  1.5562  1.5649
 3077TIP3    H230723   0.549   4.430   4.259 -0.0232  1.9241  1.2457
 3078TIP3   OH230724   0.570   1.182   5.613  0.2494 -0.1803  1.2146
 3078TIP3    H130725   0.528   1.258   5.573  2.7851  0.6023 -0.2405
 3078TIP3    H230726   0.606   1.215   5.696  1.1305  0.1995  0.7015
 3079TIP3   OH230727   4.854   0.615   3.417  0.0096  0.2787 -0.3825
 3079TIP3    H130728   4.765   0.638   3.444  0.3267  1.3243 -0.1768
 3079TIP3    H230729   4.870   0.529   3.457 -0.3688  0.7557  0.8309
 3080TIP3   OH230730   5.744   5.164   2.872 -0.2292  0.1291  0.1359
 3080TIP3    H130731   5.737   5.250   2.831 -5.1234  0.1178  0.3303
 3080TIP3    H230732   5.733   5.181   2.965 -1.2167 -0.6591  0.1798
 3081TIP3   OH230733   2.255   4.551   2.894 -0.2353 -0.0416  0.5376
 3081TIP3    H130734   2.261   4.571   2.800  0.6931 -1.0889  0.3540
 3081TIP3    H230735   2.343   4.523   2.918 -0.5924 -0.2856  1.6045
 3082TIP3   OH230736   3.306   0.136   1.893 -0.4298  0.1587 -0.0796
 3082TIP3    H130737   3.366   0.127   1.819  0.4913 -1.9845  0.8513
 3082TIP3    H230738   3.330   0.220   1.933  0.6521  0.2380 -0.8468
 3083TIP3   OH230739   2.155   0.874   0.115 -0.3499 -0.1693 -0.2091
 3083TIP3    H130740   2.144   0.845   0.025  0.2544 -0.4854 -0.1814
 3083TIP3    H230741   2.249   0.876   0.129 -0.4448 -1.2927  0.7902
 3084TIP3   OH230742   5.015   2.326   4.098 -0.4054 -0.1557 -0.2040
 3084TIP3    H130743   5.066   2.331   4.017 -0.4512 -0.0591 -0.2269
 3084TIP3    H230744   5.075   2.355   4.166 -0.7619  1.0521 -0.3718
 3085TIP3   OH230745   5.648   5.978  16.955 -0.9307  0.2999  0.0450
 3085TIP3    H130746   5.671   6.035  16.881 -0.6468  0.1301 -0.0000
 3085TIP3    H230747   5.665   6.031  17.032  0.2791 -0.0349  0.0437
 3086TIP3   OH230748   3.123   1.080   2.745 -0.2211  0.2217  0.2116
 3086TIP3    H130749   3.059   1.028   2.696 -0.1107 -0.2813  0.5965
 3086TIP3    H230750   3.127   1.163   2.697 -0.3969 -0.1180 -0.4121
 3087TIP3   OH230751   0.390   5.310   2.945 -0.6800  0.5235  0.5076
 3087TIP3    H130752   0.348   5.281   3.026  0.3662 -1.4095  0.4224
 3087TIP3    H230753   0.431   5.231   2.911  1.5168  1.9508 -0.3168
 3088TIP3   OH230754   2.152   5.240   5.542 -0.0743  0.3875  0.0263
 3088TIP3    H130755   2.176   5.180   5.613 -0.9281 -0.6301 -0.5234
 3088TIP3    H230756   2.114   5.315   5.587  0.3909  0.2384  0.6925
 3089TIP3   OH230757   5.260   2.295  11.083  0.2835  0.4518  0.0047
 3089TIP3    H130758   5.327   2.279  11.016  0.0238  0.6752 -0.3092
 3089TIP3    H230759   5.308   2.293  11.165  0.4037 -1.2360 -0.0600
 3090TIP3   OH230760   5.990   1.489   3.450 -0.4780 -0.4533  0.1516
 3090TIP3    H130761   5.943   1.497   3.533 -0.1263  1.5125  0.2208
 3090TIP3    H230762   6.071   1.443   3.473 -1.0287 -1.2181  0.6039
 3091TIP3   OH230763   5.973   3.944   0.859 -0.5253 -0.2076  0.5332
 3091TIP3    H130764   5.960   3.896   0.777  0.8608  0.2693 -0.0062
 3091TIP3    H230765   6.014   3.881   0.918 -0.9721 -0.3805  0.6604
 3092TIP3   OH230766   4.420   4.196  15.024 -0.6615  0.2958  0.0586
 3092TIP3    H130767   4.470   4.182  15.105  0.0066  2.3082  0.0565
 3092TIP3    H230768   4.444   4.123  14.968  1.5387  0.6518  0.4543
 3093TIP3   OH230769   1.187   3.321  13.149  0.0547  0.1317 -0.3347
 3093TIP3    H130770   1.167   3.229  13.164 -0.9118  0.4789  0.6605
 3093TIP3    H230771   1.274   3.334  13.185  0.6231 -0.6076 -1.4062
 3094TIP3   OH230772   4.292   5.435  15.432  0.0321 -0.1252  0.5692
 3094TIP3    H130773   4.235   5.374  15.385 -0.2935 -0.6442  1.6022
 3094TIP3    H230774   4.361   5.457  15.369 -1.7753  1.2756 -1.0767
 3095TIP3   OH230775   1.645   5.161   2.176 -0.3172 -0.0058  0.1804
 3095TIP3    H130776   1.605   5.096   2.234 -0.2946 -0.8442 -0.7359
 3095TIP3    H230777   1.672   5.112   2.099  1.3245  0.7660  0.2198
 3096TIP3   OH230778   4.415   5.479  12.810  0.3594  0.3509  0.1120
 3096TIP3    H130779   4.352   5.494  12.740  0.1494  0.5419  0.3420
 3096TIP3    H230780   4.498   5.467  12.765  0.3902  1.3757 -0.1217
 3097TIP3   OH230781   0.841   4.847  16.229 -0.1876 -0.2739  0.6111
 3097TIP3    H130782   0.759   4.877  16.189 -0.0091 -0.6807 -0.0668
 3097TIP3    H230783   0.816   4.768  16.276 -0.0304 -0.8908 -0.3132
 3098TIP3   OH230784   0.278   6.377  12.142 -0.0595  0.5105  0.5379
 3098TIP3    H130785   0.185   6.373  12.116  0.0889  1.6774 -0.2272
 3098TIP3    H230786   0.291   6.466  12.172  0.6091  0.0893  1.5435
 3099TIP3   OH230787   6.415   3.774   4.420  0.0270 -0.0542  0.2215
 3099TIP3    H130788   6.375   3.847   4.372  0.8292  0.7910  0.7915
 3099TIP3    H230789   6.412   3.802   4.512 -1.7080 -1.7433  0.7577
 3100TIP3   OH230790   3.084   3.771   0.935 -0.6289  0.2742  0.3083
 3100TIP3    H130791   3.098   3.679   0.959 -0.9387  0.1822  0.1427
 3100TIP3    H230792   3.172   3.805   0.919 -0.4485  0.2338  1.1962
 3101TIP3   OH230793   2.206   3.364   1.002  0.3635 -0.4002 -0.7025
 3101TIP3    H130794   2.231   3.439   0.948  0.5651  1.0550  1.2906
 3101TIP3    H230795   2.290   3.325   1.028  0.2790 -0.7755 -0.9799
 3102TIP3   OH230796   5.327   4.036  15.999 -0.3585 -0.3719 -0.3555
 3102TIP3    H130797   5.351   4.126  16.023 -0.1992 -0.2388 -0.9949
 3102TIP3    H230798   5.232   4.038  15.993 -0.4638 -0.5779  0.9069
 3103TIP3   OH230799   2.925   5.531  14.834 -0.8273  0.0120 -0.0192
 3103TIP3    H130800   3.002   5.587  14.843 -0.3948 -0.1987 -1.9858
 3103TIP3    H230801   2.876   5.545  14.915  0.9958  0.5488  1.0495
 3104TIP3   OH230802   4.062   2.964   2.616 -0.3737 -0.5621  0.1483
 3104TIP3    H130803   4.071   2.913   2.536  1.3753 -0.0997  0.0041
 3104TIP3    H230804   4.100   3.050   2.594 -1.0926  0.0140  1.0785
 3105TIP3   OH230805   6.600   2.015  15.578 -0.0216  0.2033 -0.3622
 3105TIP3    H130806   6.595   1.924  15.550 -1.2775  0.2119 -0.2398
 3105TIP3    H230807   6.558   2.064  15.507  0.2257  0.6299 -0.2152
 3106TIP3   OH230808   2.477   2.202  16.121  0.1060 -0.7330  0.6154
 3106TIP3    H130809   2.511   2.281  16.079  0.2123 -1.7289 -1.3073
 3106TIP3    H230810   2.382   2.209  16.113  0.1167 -2.4356 -3.0854
 3107TIP3   OH230811   3.945   6.804  10.858 -0.3112 -0.1174  0.0587
 3107TIP3    H130812   3.921   6.770  10.772 -1.9619  2.0556 -0.4263
 3107TIP3    H230813   4.011   6.870  10.840  0.5112 -0.7608  0.6517
 3108TIP3   OH230814   0.539   6.018   0.089 -0.5447  0.2082  0.7095
 3108TIP3    H130815   0.551   6.087   0.024 -1.0049  0.1645  0.5698
 3108TIP3    H230816   0.499   6.061   0.164 -0.6210  0.1369  0.7106
 3109TIP3   OH230817   2.161   6.283  12.417 -0.4253 -0.2482  0.3605
 3109TIP3    H130818   2.192   6.223  12.350  0.2258 -0.3434  0.7342
 3109TIP3    H230819   2.241   6.315  12.459 -0.7265  1.3517 -0.2234
 3110TIP3   OH230820   2.287   2.170   1.051  0.2020  0.1365  0.0235
 3110TIP3    H130821   2.325   2.183   0.964  0.8453  0.5883  0.3541
 3110TIP3    H230822   2.239   2.088   1.045  0.1502  0.2154 -0.7841
 3111TIP3   OH230823   1.415   2.952   3.222  0.8485  0.2288 -0.0083
 3111TIP3    H130824   1.366   3.009   3.282  0.8489  0.9828 -0.7114
 3111TIP3    H230825   1.505   2.983   3.228  0.7227  0.8127 -0.9578
 3112TIP3   OH230826   3.477   2.183  13.622 -0.4146 -0.2585 -0.4523
 3112TIP3    H130827   3.439   2.190  13.709 -0.6791 -0.6764 -0.5301
 3112TIP3    H230828   3.537   2.257  13.615 -0.0678 -0.4672  0.2490
 3113TIP3   OH230829   0.636   2.631  12.021  0.4428 -0.0602 -0.0918
 3113TIP3    H130830   0.722   2.636  11.979  0.5776 -0.7032  0.0905
 3113TIP3    H230831   0.623   2.718  12.060  0.0608  0.7399 -1.9252
 3114TIP3   OH230832   1.221   6.285   5.170  0.0601  0.3521  0.2368
 3114TIP3    H130833   1.281   6.235   5.226 -0.0560  0.6085  0.5925
 3114TIP3    H230834   1.161   6.327   5.231  0.2215  1.0098 -0.0510
 3115TIP3   OH230835   0.274   2.275  15.303 -0.1232  0.7363 -0.3994
 3115TIP3    H130836   0.282   2.370  15.309 -1.5894  0.8842 -0.3711
 3115TIP3    H230837   0.284   2.256  15.210  2.2156  0.6692 -0.1786
 3116TIP3   OH230838   0.782   3.371  16.724  0.1615  0.2118 -0.2250
 3116TIP3    H130839   0.812   3.438  16.663 -0.3294 -0.2289 -0.9760
 3116TIP3    H230840   0.687   3.383  16.728 -0.6598 -2.9878 -3.7104
 3117TIP3   OH230841   5.567   3.755   3.609 -0.3432 -0.5017 -0.4195
 3117TIP3    H130842   5.498   3.721   3.552  0.1634 -0.0638 -1.3083
 3117TIP3    H230843   5.645   3.755   3.555  0.3911 -1.0828  0.6128
 3118TIP3   OH230844   5.385   0.820  16.112  0.1557  0.1120  0.0211
 3118TIP3    H130845   5.358   0.911  16.118 -0.5258 -0.0385 -0.6511
 3118TIP3    H230846   5.398   0.793  16.203 -1.7469  0.2601  0.3779
 3119TIP3   OH230847   0.818   3.553   3.136  0.0379  0.2414  0.1895
 3119TIP3    H130848   0.738   3.516   3.099  0.1159  0.4364 -0.1817
 3119TIP3    H230849   0.790   3.637   3.172  0.2501  0.7473 -0.7861
 3120TIP3   OH230850   2.611   4.640   3.332  0.2139 -0.0182 -0.3704
 3120TIP3    H130851   2.613   4.701   3.258 -1.3982  0.7648  0.1980
 3120TIP3    H230852   2.527   4.596   3.324 -0.1951  0.4244  1.2547
 3121TIP3   OH230853   1.038   4.300  16.459 -0.1010 -0.4960  0.5487
 3121TIP3    H130854   1.020   4.211  16.487  0.7016 -0.9193 -0.2309
 3121TIP3    H230855   1.111   4.292  16.398 -0.4380  0.6168 -0.0405
 3122TIP3   OH230856   1.089   4.196  12.884  0.4556  0.5555  0.6640
 3122TIP3    H130857   1.170   4.147  12.871 -0.4957 -0.5167 -1.6682
 3122TIP3    H230858   1.022   4.130  12.901 -0.5469  1.0745 -0.9630
 3123TIP3   OH230859   1.772   3.037   2.906  0.5322  0.4579  0.1094
 3123TIP3    H130860   1.762   3.110   2.968 -0.6737  0.6947 -0.3356
 3123TIP3    H230861   1.776   3.080   2.821 -0.8957 -0.0210 -0.2150
 3124TIP3   OH230862   0.532   6.242   1.614  0.0068 -0.3560 -0.2143
 3124TIP3    H130863   0.579   6.159   1.623  1.9912  0.6547 -0.7212
 3124TIP3    H230864   0.441   6.220   1.633  0.8226 -2.1998  2.0844
 3125TIP3   OH230865   0.614   2.536   6.317  0.1634 -0.3334  0.3075
 3125TIP3    H130866   0.681   2.470   6.335 -1.6390 -1.8516  1.9470
 3125TIP3    H230867   0.547   2.489   6.268  0.3607  1.2479 -1.6399
 3126TIP3   OH230868   4.076   5.745  11.234 -0.0194  0.3941 -0.0225
 3126TIP3    H130869   4.042   5.708  11.316 -0.9830 -1.0162 -1.0131
 3126TIP3    H230870   4.151   5.690  11.212  1.1658  1.6866  0.6328
 3127TIP3   OH230871   5.669   3.182  11.907  0.6248 -0.1989  0.2055
 3127TIP3    H130872   5.636   3.094  11.926  0.8609  0.0519  1.8833
 3127TIP3    H230873   5.751   3.166  11.860  0.6663 -0.8811  0.4924
 3128TIP3   OH230874   1.807   1.032  14.307 -0.1569 -0.5507  0.3737
 3128TIP3    H130875   1.742   1.093  14.342  0.4109 -0.1351  0.7279
 3128TIP3    H230876   1.890   1.064  14.342  0.5335  0.2687 -1.8206
 3129TIP3   OH230877   3.425   0.177  14.676 -0.3644  0.0801 -0.2626
 3129TIP3    H130878   3.426   0.272  14.691 -0.8243  0.1396 -0.5975
 3129TIP3    H230879   3.495   0.144  14.732 -0.6727  0.5381  0.4133
 3130TIP3   OH230880   4.821   2.800  11.873 -0.1485 -0.3595 -0.0780
 3130TIP3    H130881   4.758   2.839  11.933 -0.2817 -1.8824  0.8292
 3130TIP3    H230882   4.880   2.871  11.850 -1.2205  0.7064  0.3523
 3131TIP3   OH230883   3.516   1.965   4.471  0.6758 -0.1552  0.4049
 3131TIP3    H130884   3.552   1.906   4.539  1.4361  0.1388  0.2742
 3131TIP3    H230885   3.586   1.971   4.406 -0.1320 -0.6069 -0.5266
 3132TIP3   OH230886   5.588   4.634  15.993  0.4073  0.3901  0.3122
 3132TIP3    H130887   5.624   4.690  15.924  0.7510  0.2649  0.3870
 3132TIP3    H230888   5.497   4.619  15.967 -0.6805  3.5584  1.9062
 3133TIP3   OH230889   3.482   0.342   0.009  0.2099 -0.4828  0.1856
 3133TIP3    H130890   3.445   0.325   0.095 -0.9124  1.4224  0.1164
 3133TIP3    H230891   3.408   0.332  -0.051  0.9742 -1.7687 -0.6075
 3134TIP3   OH230892   1.671   2.105   6.574  0.0494 -0.7432 -0.0821
 3134TIP3    H130893   1.679   2.147   6.488 -1.2119 -0.4322 -0.0725
 3134TIP3    H230894   1.692   2.013   6.558 -0.2657 -0.7048 -0.7448
 3135TIP3   OH230895   6.451   5.380   5.187 -0.5175  0.2383 -0.7316
 3135TIP3    H130896   6.447   5.475   5.198  0.2871  0.1441  0.5368
 3135TIP3    H230897   6.536   5.354   5.223 -0.7500 -0.9735 -0.9870
 3136TIP3   OH230898   3.674   6.176  15.262 -0.2337 -0.4257 -0.1692
 3136TIP3    H130899   3.740   6.216  15.205 -0.0612  2.5124  1.8162
 3136TIP3    H230900   3.724   6.143  15.336 -0.7398 -0.7950  0.0103
 3137TIP3   OH230901   4.679   3.509   1.606  0.2086 -0.3501 -0.0688
 3137TIP3    H130902   4.758   3.558   1.627  0.2421 -0.7876  0.8751
 3137TIP3    H230903   4.678   3.504   1.510  0.1562  1.5474 -0.2061
 3138TIP3   OH230904   2.049   1.205   1.371 -0.0171  0.5821  0.3145
 3138TIP3    H130905   2.035   1.148   1.295 -1.3164 -0.2002  1.1130
 3138TIP3    H230906   1.964   1.245   1.387  0.5919  1.8488  0.5140
 3139TIP3   OH230907   1.153   6.552   4.795  0.1447  0.0684 -0.4772
 3139TIP3    H130908   1.207   6.631   4.798  1.5552 -0.7684 -2.2836
 3139TIP3    H230909   1.205   6.485   4.840 -0.1266 -0.3374 -0.7511
 3140TIP3   OH230910   6.695   3.025  14.959 -0.4872  0.8138  0.0216
 3140TIP3    H130911   6.669   3.098  15.016 -1.0810  0.9420 -0.4015
 3140TIP3    H230912   6.631   2.956  14.978 -1.0353  1.0621 -0.8949
 3141TIP3   OH230913   1.632   6.089  11.393  0.3529 -0.5429 -0.4397
 3141TIP3    H130914   1.652   6.144  11.468 -0.5123 -1.4765  0.5078
 3141TIP3    H230915   1.715   6.045  11.373  0.5672 -0.3667  0.0376
 3142TIP3   OH230916   2.249   2.368  16.592  0.4534  0.0707  0.1184
 3142TIP3    H130917   2.182   2.372  16.524  0.6793  0.3361 -0.0947
 3142TIP3    H230918   2.207   2.403  16.670  0.4036  0.4222 -0.0661
 3143TIP3   OH230919   1.792   6.009   5.868  0.2496  0.0287  0.2484
 3143TIP3    H130920   1.800   6.083   5.808 -1.4276  0.5121  0.5572
 3143TIP3    H230921   1.855   5.945   5.837  0.0864  0.6587 -1.4474
 3144TIP3   OH230922   5.871   0.678  16.315 -0.3170 -0.2682 -0.2874
 3144TIP3    H130923   5.841   0.731  16.390 -0.8418 -0.3839 -0.4091
 3144TIP3    H230924   5.963   0.663  16.333  0.0807  1.4339 -0.6911
 3145TIP3   OH230925   4.242   1.342  11.814  0.2272  0.2222  0.4403
 3145TIP3    H130926   4.330   1.312  11.791  0.2440 -1.6556  2.5733
 3145TIP3    H230927   4.204   1.369  11.731  2.3806 -0.1109 -0.7390
 3146TIP3   OH230928   5.720   6.206   0.879 -0.1229  0.2294 -0.0184
 3146TIP3    H130929   5.699   6.190   0.787 -1.7426 -0.1761  0.3797
 3146TIP3    H230930   5.806   6.248   0.877  0.8717 -1.7432 -1.5539
 3147TIP3   OH230931   2.665   0.600  15.202  0.3929 -0.2178  0.1616
 3147TIP3    H130932   2.702   0.585  15.114 -1.6902  0.5175 -0.8968
 3147TIP3    H230933   2.694   0.524  15.253  2.3897 -0.2223 -0.8841
 3148TIP3   OH230934   4.220   5.884  12.713 -0.3052  0.3513 -0.2209
 3148TIP3    H130935   4.169   5.806  12.736 -0.0704  0.4480  0.6953
 3148TIP3    H230936   4.308   5.849  12.694 -0.3908  0.3157 -0.5536
 3149TIP3   OH230937   2.524   4.278  13.107 -0.0635 -0.3291 -0.3777
 3149TIP3    H130938   2.510   4.351  13.047  2.4383  1.5089  1.0691
 3149TIP3    H230939   2.457   4.289  13.174  1.0624  1.5617  0.5342
 3150TIP3   OH230940   2.887   0.022   4.170  0.7769 -0.6289  0.2912
 3150TIP3    H130941   2.942  -0.052   4.144 -0.1175 -0.4776 -2.4466
 3150TIP3    H230942   2.839   0.045   4.090  0.1151  2.1463  1.3569
 3151TIP3   OH230943   5.180   5.441   2.225 -0.1750  0.0826 -0.3349
 3151TIP3    H130944   5.140   5.482   2.301 -1.7031 -2.4561  0.3517
 3151TIP3    H230945   5.146   5.491   2.151 -0.2340  1.3741  0.5364
 3152TIP3   OH230946   5.756   3.832   4.604  0.0195 -0.3903 -0.0272
 3152TIP3    H130947   5.702   3.834   4.682  0.5586 -1.3760  0.3884
 3152TIP3    H230948   5.830   3.776   4.627  1.0202  0.6064 -0.7066
 3153TIP3   OH230949   5.510   5.718  14.272  0.4021 -0.0803 -0.0899
 3153TIP3    H130950   5.502   5.624  14.256  0.3303 -0.2176  0.7362
 3153TIP3    H230951   5.492   5.758  14.187 -1.7667 -0.7057  0.0072
 3154TIP3   OH230952   2.228   5.552   0.512  0.5773  0.1333  0.2107
 3154TIP3    H130953   2.248   5.508   0.595  1.7647  1.5387  0.7072
 3154TIP3    H230954   2.255   5.490   0.445 -0.0998 -0.8944  0.8648
 3155TIP3   OH230955   1.869   1.004  14.020 -0.3322 -0.2388  0.0698
 3155TIP3    H130956   1.868   0.997  14.116 -0.4870  0.3427  0.1123
 3155TIP3    H230957   1.952   1.047  14.000 -1.3299  1.8264  0.1136
 3156TIP3   OH230958   5.289   1.730   2.274  0.4230 -0.3098 -0.5395
 3156TIP3    H130959   5.240   1.720   2.356  1.7888 -1.6407  0.1865
 3156TIP3    H230960   5.363   1.786   2.298  0.3132  0.0992 -1.1301
 3157TIP3   OH230961   2.519   6.618   0.105 -0.4506  0.1171  0.9377
 3157TIP3    H130962   2.499   6.632   0.197 -0.4322  0.6980  0.8613
 3157TIP3    H230963   2.438   6.586   0.067 -1.0361  1.6694  0.7888
 3158TIP3   OH230964   0.255   5.593   3.428  0.1445  0.4335 -0.5067
 3158TIP3    H130965   0.316   5.629   3.364 -0.1364  2.0894  0.1126
 3158TIP3    H230966   0.234   5.505   3.395  1.3723  0.5694 -1.7199
 3159TIP3   OH230967   5.169   6.628  14.643 -0.0688 -0.1838 -0.2615
 3159TIP3    H130968   5.142   6.681  14.568 -1.1444 -1.8797 -1.1341
 3159TIP3    H230969   5.256   6.597  14.619 -1.1222 -2.2578 -1.7867
 3160TIP3   OH230970   6.792   3.508  11.819 -0.1643 -0.0032  0.1099
 3160TIP3    H130971   6.697   3.518  11.821 -0.3656 -1.4537 -0.6452
 3160TIP3    H230972   6.826   3.597  11.824 -1.5300  0.4788  1.5120
 3161TIP3   OH230973   5.157   2.241  14.382  0.0322 -0.4646 -0.0087
 3161TIP3    H130974   5.079   2.206  14.427  0.4632 -2.0891 -0.4535
 3161TIP3    H230975   5.225   2.241  14.449 -0.8785  3.5611  1.2021
 3162TIP3   OH230976   0.995   4.311   3.888 -0.3621  0.0476 -0.1867
 3162TIP3    H130977   1.056   4.312   3.961  0.1451 -0.2789 -0.5917
 3162TIP3    H230978   0.910   4.293   3.927 -0.3825  1.5255  0.5099
 3163TIP3   OH230979   6.439   2.878  17.229 -0.1686 -0.2545 -0.0083
 3163TIP3    H130980   6.404   2.924  17.305 -2.1580 -1.1285 -0.3508
 3163TIP3    H230981   6.474   2.796  17.264  0.7263  0.1952  0.1959
 3164TIP3   OH230982   6.120   1.756   4.925 -0.3130 -0.0370  0.1835
 3164TIP3    H130983   6.097   1.844   4.953 -1.5225 -0.0713 -0.6557
 3164TIP3    H230984   6.143   1.710   5.005 -0.5509  0.7863  0.7269
 3165TIP3   OH230985   5.699   5.781   3.116 -0.9343 -0.5049 -0.3432
 3165TIP3    H130986   5.761   5.780   3.043 -0.1827  1.4090  0.1970
 3165TIP3    H230987   5.619   5.820   3.079 -0.9748 -0.6897 -0.4490
 3166TIP3   OH230988   5.878   6.262  14.215  0.2640  0.0581 -0.2099
 3166TIP3    H130989   5.889   6.354  14.240 -0.0315  0.3272 -1.0246
 3166TIP3    H230990   5.967   6.230  14.201  0.5554 -0.4727  2.3285
 3167TIP3   OH230991   5.334   6.684   4.174  0.3281  0.7135  0.2626
 3167TIP3    H130992   5.261   6.621   4.171 -0.0521  1.1432  0.3917
 3167TIP3    H230993   5.297   6.765   4.141  0.7458  0.9409  0.3493
 3168TIP3   OH230994   6.763   4.637   6.004 -0.1036 -0.1076  0.2888
 3168TIP3    H130995   6.729   4.683   6.081 -0.4425 -0.6735  0.4802
 3168TIP3    H230996   6.713   4.673   5.930 -3.2895 -2.9043  0.8348
 3169TIP3   OH230997   0.546   5.141  15.993 -0.3345 -0.1433  0.1560
 3169TIP3    H130998   0.590   5.226  16.002 -1.0323  0.2237  0.1695
 3169TIP3    H230999   0.485   5.153  15.921 -0.0355 -0.8176 -0.2159
 3170TIP3   OH231000   4.294   1.631  13.530  0.0368  0.2498  0.8559
 3170TIP3    H131001   4.300   1.718  13.571 -1.1822  1.0227 -0.5012
 3170TIP3    H231002   4.202   1.623  13.505  0.3972 -0.9018 -0.1699
 3171TIP3   OH231003   6.465   1.527   5.941 -0.0887  0.0439 -0.1900
 3171TIP3    H131004   6.487   1.444   5.899  1.3573  0.7683 -0.9439
 3171TIP3    H231005   6.488   1.513   6.033  1.6130  0.0740 -0.5827
 3172TIP3   OH231006   5.214   3.201   2.520 -0.0798  0.4088  0.7992
 3172TIP3    H131007   5.282   3.176   2.458  0.3200 -1.4010  1.9087
 3172TIP3    H231008   5.198   3.294   2.501  0.5339  0.1047 -1.4766
 3173TIP3   OH231009   3.348   1.374  13.285 -0.0613  0.3309 -0.6936
 3173TIP3    H131010   3.295   1.351  13.209  0.7394  0.9660 -1.4706
 3173TIP3    H231011   3.418   1.309  13.286 -0.5802 -0.2295  0.0569
 3174TIP3   OH231012   3.311   5.694   4.217  0.3734 -0.2111  0.2024
 3174TIP3    H131013   3.331   5.745   4.139 -0.4356  0.6490  0.5416
 3174TIP3    H231014   3.291   5.606   4.183  0.5500  0.0157 -0.5019
 3175TIP3   OH231015   4.066   5.803  11.862 -0.5829 -0.2370 -0.3011
 3175TIP3    H131016   4.074   5.888  11.906  0.0654  0.6245 -1.9905
 3175TIP3    H231017   4.155   5.780  11.836 -0.6491 -1.8139  0.7539
 3176TIP3   OH231018   3.426   6.247   4.512  0.4014 -0.1764 -0.1649
 3176TIP3    H131019   3.448   6.325   4.563  0.8565  0.1289 -0.8177
 3176TIP3    H231020   3.363   6.200   4.567 -1.1721  1.4709 -0.4817
 3177TIP3   OH231021   4.019   1.947  13.271 -0.2639  1.1312 -0.4292
 3177TIP3    H131022   4.094   1.984  13.318 -0.3476 -0.2846  0.8939
 3177TIP3    H231023   3.957   1.924  13.340 -0.0701 -1.7643 -1.1139
 3178TIP3   OH231024   0.458   6.667   1.526  0.1779  0.0212  0.7626
 3178TIP3    H131025   0.409   6.587   1.542 -1.2990  0.3056 -1.7588
 3178TIP3    H231026   0.530   6.639   1.469 -0.0258  0.3739  0.3231
 3179TIP3   OH231027   2.897   0.657  14.477 -0.4129 -0.0998  0.6641
 3179TIP3    H131028   2.978   0.643  14.526  0.1804 -0.6564 -0.4349
 3179TIP3    H231029   2.899   0.749  14.453 -0.1583 -0.0852  0.7387
 3180TIP3   OH231030   6.391   3.326  11.715 -0.0235 -0.1358  0.1381
 3180TIP3    H131031   6.450   3.296  11.785  0.9896 -0.5270 -0.8530
 3180TIP3    H231032   6.449   3.370  11.653 -0.6442 -1.2933 -1.2958
 3181TIP3   OH231033   4.612   2.037   5.971  0.5922  0.0520  0.1471
 3181TIP3    H131034   4.640   2.057   6.060  1.5000  1.0878 -0.3488
 3181TIP3    H231035   4.524   2.075   5.965 -0.1544 -1.4489  1.0842
 3182TIP3   OH231036   0.148   6.566  14.749  0.8031  0.0374 -0.2127
 3182TIP3    H131037   0.184   6.484  14.783  0.2871  0.6592  2.0152
 3182TIP3    H231038   0.065   6.540  14.707  0.0418 -0.4937  1.5186
 3183TIP3   OH231039   1.539   2.717   2.858 -0.0590 -0.2398  0.5523
 3183TIP3    H131040   1.519   2.624   2.855  0.3311 -0.3232  0.5115
 3183TIP3    H231041   1.595   2.728   2.935 -0.8438  0.1098  1.0890
 3184TIP3   OH231042   6.511   2.461   2.708  0.7795 -0.1794  0.1865
 3184TIP3    H131043   6.526   2.393   2.774  0.4178  1.4593  2.0714
 3184TIP3    H231044   6.458   2.419   2.641 -1.0929 -1.2756  2.2467
 3185TIP3   OH231045   2.432   4.945   2.840 -0.2094 -0.1758 -0.0553
 3185TIP3    H131046   2.469   4.999   2.771  0.5955  0.1443  0.6106
 3185TIP3    H231047   2.383   4.877   2.794  1.6262 -0.9360 -0.9826
 3186TIP3   OH231048   1.240   3.633  13.409  0.2875  0.0360 -0.0336
 3186TIP3    H131049   1.225   3.606  13.319 -0.3447 -1.1233  0.4060
 3186TIP3    H231050   1.160   3.609  13.456  0.2222  1.4830  0.6665
 3187TIP3   OH231051   5.527   1.898  14.299  0.1670 -0.0625  0.1449
 3187TIP3    H131052   5.441   1.864  14.273  0.2335 -0.0853 -0.0434
 3187TIP3    H231053   5.583   1.880  14.224  0.0924  0.8819 -0.1411
 3188TIP3   OH231054   5.765   5.271   4.540  0.0916  0.2408 -0.0182
 3188TIP3    H131055   5.824   5.199   4.515  1.1461  0.6772  1.1160
 3188TIP3    H231056   5.768   5.272   4.635 -1.1542  0.8005  0.0293
 3189TIP3   OH231057   5.871   6.448   1.768 -0.1434  0.4947 -0.2512
 3189TIP3    H131058   5.960   6.443   1.733  0.4303  1.6995  0.9424
 3189TIP3    H231059   5.877   6.409   1.855 -0.7171  0.8238 -0.0588
 3190TIP3   OH231060   2.158   6.084  12.191  0.3983 -0.5282  0.0392
 3190TIP3    H131061   2.139   6.172  12.159  0.3068 -0.9260 -1.0585
 3190TIP3    H231062   2.145   6.028  12.114 -2.2902 -1.8725  1.3201
 3191TIP3   OH231063   0.577   3.656   5.713  0.4247 -0.0445  0.4036
 3191TIP3    H131064   0.657   3.677   5.665  0.6867 -1.0950  0.3749
 3191TIP3    H231065   0.507   3.667   5.648  0.7875 -1.5627 -0.2761
 3192TIP3   OH231066   2.441   5.043  14.562 -0.0937 -0.3757  0.0068
 3192TIP3    H131067   2.374   5.109  14.577  0.5172  0.0393  1.0169
 3192TIP3    H231068   2.521   5.082  14.596  0.3035 -1.5823  0.5212
 3193TIP3   OH231069   2.409   0.898  13.453  0.3226  0.2076  0.5898
 3193TIP3    H131070   2.449   0.983  13.466  1.7615 -0.5343  1.2619
 3193TIP3    H231071   2.473   0.835  13.487  1.0880 -1.4658 -3.3860
 3194TIP3   OH231072   1.092   6.298   3.596 -0.1848  0.3990 -0.1990
 3194TIP3    H131073   1.141   6.244   3.659  0.3175  1.8838  0.7546
 3194TIP3    H231074   1.089   6.246   3.517  1.7785 -0.3341  0.1409
 3195TIP3   OH231075   0.090   1.511   1.991 -0.1641  0.2898  0.4781
 3195TIP3    H131076   0.131   1.431   1.958  0.3714  0.2822  1.1444
 3195TIP3    H231077   0.008   1.517   1.942  0.1267 -0.2751 -0.0963
 3196TIP3   OH231078   0.785   1.348  15.943 -0.4632 -0.2050 -0.4053
 3196TIP3    H131079   0.724   1.290  15.989 -1.0631 -0.8606 -1.9688
 3196TIP3    H231080   0.783   1.318  15.852  1.2557  0.5692 -0.7390
 3197TIP3   OH231081   0.581   1.204  13.969 -0.2517  0.2123  0.1583
 3197TIP3    H131082   0.568   1.191  13.875  0.7258 -0.2604  0.0846
 3197TIP3    H231083   0.567   1.298  13.982 -0.2823  0.3000 -0.4704
 3198TIP3   OH231084   5.826   0.801   5.675  0.2722  0.4184 -0.6691
 3198TIP3    H131085   5.887   0.772   5.744  0.7489  0.2687 -1.1430
 3198TIP3    H231086   5.766   0.860   5.720  0.3320  0.0154 -0.0381
 3199TIP3   OH231087   6.507   5.836   1.067  0.3507 -0.0356 -0.4781
 3199TIP3    H131088   6.596   5.840   1.034 -0.4811  1.3847 -2.8011
 3199TIP3    H231089   6.496   5.915   1.120  1.0239 -1.2529  1.6208
 3200TIP3   OH231090   3.135   4.055   4.603 -0.3242  0.6201 -0.3573
 3200TIP3    H131091   3.111   3.962   4.604 -1.9481  0.9987 -0.1228
 3200TIP3    H231092   3.058   4.099   4.641 -0.6542  2.2775 -2.7634
 3201TIP3   OH231093   4.453   2.912   5.824  0.1490 -0.4110  0.0770
 3201TIP3    H131094   4.370   2.868   5.839  1.7705 -3.4080  1.2180
 3201TIP3    H231095   4.473   2.895   5.732 -0.2381 -0.1483 -0.0576
 3202TIP3   OH231096   4.737   5.842  14.744 -0.3112  0.6424 -0.3680
 3202TIP3    H131097   4.786   5.916  14.782 -2.5101  0.7686  2.6261
 3202TIP3    H231098   4.740   5.775  14.812 -3.5086  0.3958 -0.3247
 3203TIP3   OH231099   2.704   2.323  11.133  1.1180  0.2198  0.2865
 3203TIP3    H131100   2.729   2.240  11.094  0.7174 -0.4611  1.4191
 3203TIP3    H231101   2.634   2.357  11.077  1.2468 -0.2280 -0.1447
 3204TIP3   OH231102   3.423   1.712  16.018  0.2775 -0.7731  0.4899
 3204TIP3    H131103   3.409   1.759  16.101  2.0735  1.1133 -0.1849
 3204TIP3    H231104   3.517   1.695  16.016  0.4437  0.1068 -1.5711
 3205TIP3   OH231105   2.859   5.759   0.602 -0.5082 -0.3234 -0.1394
 3205TIP3    H131106   2.898   5.846   0.609  0.5471 -0.7759 -0.3633
 3205TIP3    H231107   2.818   5.757   0.516  0.1948 -0.3480 -0.4716
 3206TIP3   OH231108   4.552   6.234  13.475  0.6497 -0.0597  0.5480
 3206TIP3    H131109   4.644   6.209  13.480  0.3380 -1.0569  3.4484
 3206TIP3    H231110   4.546   6.312  13.530 -0.1115  0.4645 -0.2653
 3207TIP3   OH231111   0.177   5.343  11.316 -0.8563  0.0508  0.4238
 3207TIP3    H131112   0.234   5.378  11.248 -0.9378  1.1107  0.8880
 3207TIP3    H231113   0.137   5.420  11.356 -1.0030 -0.5677  1.4997
 3208TIP3   OH231114   6.067   2.287  10.965 -0.3860  0.4579  0.5552
 3208TIP3    H131115   6.135   2.340  10.923  0.0274  1.1934  2.0750
 3208TIP3    H231116   5.985   2.316  10.924 -0.0235  1.2757  0.3823
 3209TIP3   OH231117   2.846   4.274  12.090 -0.0599 -0.5527  0.0371
 3209TIP3    H131118   2.906   4.303  12.160 -1.0069 -0.7177  0.9376
 3209TIP3    H231119   2.865   4.181  12.080  0.4317 -0.4233 -0.2954
 3210TIP3   OH231120   5.600   6.541   5.855 -0.1173  0.6925  0.0240
 3210TIP3    H131121   5.641   6.457   5.873  0.1473  0.8888  0.3524
 3210TIP3    H231122   5.581   6.578   5.941 -2.6856 -0.2003 -0.0801
 3211TIP3   OH231123   0.170   5.263   6.414  0.0658  0.0885  0.5266
 3211TIP3    H131124   0.198   5.354   6.419  1.0818 -0.1996  0.3360
 3211TIP3    H231125   0.244   5.217   6.374  0.3220 -1.1384  2.2722
 3212TIP3   OH231126   1.646   1.505   2.399  0.0451 -0.9326  0.1278
 3212TIP3    H131127   1.644   1.595   2.432  2.7101 -0.5265 -0.5511
 3212TIP3    H231128   1.609   1.511   2.311  2.6581  0.1580 -1.0202
 3213TIP3   OH231129   2.396   6.269   5.697 -0.3095  0.0185  0.7296
 3213TIP3    H131130   2.486   6.290   5.718 -0.4464  1.2231  0.1629
 3213TIP3    H231131   2.374   6.326   5.624 -2.5161  2.1285  2.8344
 3214TIP3   OH231132   1.443   0.682  12.754  0.1711 -0.4565 -0.4135
 3214TIP3    H131133   1.385   0.705  12.826 -0.5764 -1.4471 -0.6808
 3214TIP3    H231134   1.455   0.587  12.762  0.6156 -0.4722 -1.1951
 3215TIP3   OH231135   3.336   4.779   2.376 -0.0604  0.2152  0.4124
 3215TIP3    H131136   3.328   4.852   2.438 -0.8673  0.1376  0.4114
 3215TIP3    H231137   3.406   4.725   2.412 -1.9937 -1.0584  2.5634
 3216TIP3   OH231138   5.112   2.631  12.391  0.0181  0.0166 -0.1880
 3216TIP3    H131139   5.025   2.611  12.426 -0.1695  1.1300  0.0118
 3216TIP3    H231140   5.098   2.703  12.330  0.4815 -1.3200 -1.9194
 3217TIP3   OH231141   2.803   0.093  12.710 -0.2219 -0.2752  0.5336
 3217TIP3    H131142   2.737   0.136  12.765 -0.1894 -0.0801  0.4196
 3217TIP3    H231143   2.798   0.001  12.736 -0.5248 -0.2593  0.5396
 3218TIP3   OH231144   2.953   5.362   3.376  0.5290  0.7251  0.4249
 3218TIP3    H131145   2.863   5.389   3.355  0.2979  0.6201  1.2544
 3218TIP3    H231146   2.947   5.268   3.390  0.8577  0.6448  0.0188
 3219TIP3   OH231147   0.043   3.985  11.123  0.0348  0.3181 -0.3031
 3219TIP3    H131148   0.105   3.995  11.051 -0.4393  0.3591 -0.7185
 3219TIP3    H231149   0.004   4.072  11.134 -0.1751  0.2203 -0.2606
 3220TIP3   OH231150   3.705   6.297  11.070  0.0296 -0.4392 -0.2336
 3220TIP3    H131151   3.776   6.278  11.009 -0.3707  0.0406 -0.8637
 3220TIP3    H231152   3.630   6.247  11.038 -0.3411  0.2508 -0.4895
 3221TIP3   OH231153   4.807   3.862   1.358  0.1331  0.0496  0.0539
 3221TIP3    H131154   4.800   3.930   1.424  0.0421  1.4602 -1.3428
 3221TIP3    H231155   4.852   3.904   1.285 -1.2095 -0.9458 -1.4154
 3222TIP3   OH231156   3.304   6.090   0.646  0.2473 -0.5959 -0.2583
 3222TIP3    H131157   3.337   6.098   0.735 -0.6013 -0.1169  0.0212
 3222TIP3    H231158   3.213   6.061   0.656 -0.4373  1.1805 -0.8749
 3223TIP3   OH231159   2.891   2.457   6.324  0.1587 -0.3213  0.5024
 3223TIP3    H131160   2.876   2.474   6.231 -0.9943  0.3268  0.7849
 3223TIP3    H231161   2.844   2.376   6.342  3.4552 -2.6114 -0.2475
 3224TIP3   OH231162   4.276   6.529   5.866 -0.1024  0.3594 -0.0906
 3224TIP3    H131163   4.253   6.599   5.805  2.3536  0.3427 -1.1289
 3224TIP3    H231164   4.326   6.571   5.935 -1.5820  0.1237  1.1929
 3225TIP3   OH231165   5.725   6.200  15.350 -0.0689 -0.5082  0.4081
 3225TIP3    H131166   5.640   6.173  15.387 -0.0328 -2.0636 -0.5483
 3225TIP3    H231167   5.702   6.241  15.266  0.1124 -0.8192  0.2062
 3226TIP3   OH231168   5.921   5.112  12.779  0.2257  0.1120  0.5496
 3226TIP3    H131169   5.896   5.161  12.701  1.3468  0.0237  0.1165
 3226TIP3    H231170   5.970   5.175  12.832 -0.6069  0.1979  1.2433
 3227TIP3   OH231171   3.468   4.012   4.469  0.9129 -0.4492 -0.3574
 3227TIP3    H131172   3.423   4.012   4.385  1.9653  0.6469 -0.9507
 3227TIP3    H231173   3.426   4.082   4.519  1.2826 -0.0810 -0.5510
 3228TIP3   OH231174   1.783   3.020  16.721  0.1000  0.7538  0.2367
 3228TIP3    H131175   1.821   3.046  16.637  0.4749  1.9631  0.7555
 3228TIP3    H231176   1.827   2.938  16.743  2.4752  2.0958  0.8110
 3229TIP3   OH231177   3.118   1.378  11.246  0.2481 -0.0126 -0.3192
 3229TIP3    H131178   3.185   1.329  11.294  0.4140 -0.5436 -1.0713
 3229TIP3    H231179   3.137   1.359  11.154 -1.1904 -0.5256 -0.5304
 3230TIP3   OH231180   0.604   3.643  12.946 -0.0734 -0.1334  0.0942
 3230TIP3    H131181   0.524   3.596  12.965  0.7276 -1.3070  0.6381
 3230TIP3    H231182   0.675   3.582  12.966  0.9757  0.9172 -0.2210
 3231TIP3   OH231183   0.083   3.626  10.733 -0.1511  0.0889 -0.4335
 3231TIP3    H131184   0.068   3.533  10.751 -1.4868  0.5032  0.8005
 3231TIP3    H231185  -0.003   3.660  10.707  0.5248  0.7895 -1.8426
 3232TIP3   OH231186   5.738   0.858  16.871 -0.3564  0.2766  0.2588
 3232TIP3    H131187   5.824   0.818  16.861  0.0427  0.5826  2.0319
 3232TIP3    H231188   5.753   0.951  16.858 -0.3194  0.3840  1.0444
 3233TIP3   OH231189   3.967   0.568   4.688 -0.0950 -0.2428  0.0020
 3233TIP3    H131190   3.957   0.662   4.702 -0.5017 -0.1529 -0.8558
 3233TIP3    H231191   3.886   0.530   4.720 -0.0965 -0.2655 -0.0296
 3234TIP3   OH231192   2.961   5.594  11.962  0.1911  0.3555  0.2820
 3234TIP3    H131193   2.904   5.557  12.030 -0.1666  0.9563  0.3161
 3234TIP3    H231194   2.941   5.542  11.884  1.5749 -1.2403  0.9168
 3235TIP3   OH231195   1.657   6.514  14.964  0.6579  0.0202  0.2305
 3235TIP3    H131196   1.676   6.585  14.902  2.3117  0.0898  0.7604
 3235TIP3    H231197   1.563   6.501  14.957  0.4521  1.6228 -0.5701
 3236TIP3   OH231198   1.841   3.812  11.389 -0.1786 -0.2380  0.6159
 3236TIP3    H131199   1.851   3.907  11.378 -1.9833 -0.3488 -4.1828
 3236TIP3    H231200   1.930   3.781  11.408  0.6569  2.2890  1.2882
 3237TIP3   OH231201   6.525   6.288  13.497  0.9115  0.3250 -0.1429
 3237TIP3    H131202   6.435   6.297  13.529  0.2351 -0.7177 -1.6002
 3237TIP3    H231203   6.563   6.220  13.553  0.0264 -0.8653 -0.9331
 3238TIP3   OH231204   5.978   6.533  12.178 -0.3959 -0.4293 -0.7397
 3238TIP3    H131205   6.034   6.537  12.100 -1.9475  0.2663 -1.8544
 3238TIP3    H231206   5.917   6.462  12.161 -0.5077 -0.5323  0.0393
 3239TIP3   OH231207   1.962   2.539  14.791  0.1763  0.3776 -0.5391
 3239TIP3    H131208   1.891   2.600  14.770  0.3684  0.6756 -0.3307
 3239TIP3    H231209   2.040   2.576  14.751  0.2266  0.0764 -0.7239
 3240TIP3   OH231210   6.650   1.545   0.710  0.6276 -0.0902  0.1562
 3240TIP3    H131211   6.559   1.533   0.686  0.2802  0.9650  0.8786
 3240TIP3    H231212   6.692   1.462   0.687 -0.6455 -0.8377  0.4405
 3241TIP3   OH231213   2.889   1.439   5.897  0.2675  0.2291 -0.2749
 3241TIP3    H131214   2.888   1.353   5.938  2.6934  0.6548  0.8614
 3241TIP3    H231215   2.855   1.424   5.809  1.9324 -2.1978 -0.5911
 3242TIP3   OH231216   4.728   6.136  17.124  0.4572 -0.0857 -0.0098
 3242TIP3    H131217   4.708   6.057  17.175 -0.2946  0.0761 -0.0379
 3242TIP3    H231218   4.642   6.175  17.107  0.6604 -0.2971 -1.6448
 3243TIP3   OH231219   2.649   0.362   3.053  0.1719  0.1946 -0.3506
 3243TIP3    H131220   2.559   0.357   3.020  0.2082 -0.2956 -0.3824
 3243TIP3    H231221   2.673   0.271   3.072  1.1250  0.1517 -1.5968
 3244TIP3   OH231222   5.287   5.853   5.460 -0.2633  0.9020 -0.5439
 3244TIP3    H131223   5.210   5.889   5.503  1.1812  1.4361  1.7717
 3244TIP3    H231224   5.347   5.926   5.452  1.9329 -0.3601  2.4165
 3245TIP3   OH231225   0.931   0.883   0.701  0.1244 -0.1357  0.0108
 3245TIP3    H131226   0.993   0.810   0.715 -0.3062 -0.4580  0.2476
 3245TIP3    H231227   0.845   0.844   0.715 -0.1578  0.2213 -0.7016
 3246TIP3   OH231228   6.491   1.383  11.039  0.0049 -0.4756 -0.3164
 3246TIP3    H131229   6.532   1.391  11.125 -1.6068  0.5553  0.4217
 3246TIP3    H231230   6.514   1.295  11.009 -1.0977 -1.7008  2.1338
 3247TIP3   OH231231   4.706   1.118   0.766  0.2686 -0.0819  0.5912
 3247TIP3    H131232   4.627   1.168   0.745  0.7763  0.5029  0.0317
 3247TIP3    H231233   4.676   1.051   0.828 -1.4277 -2.1464 -2.1601
 3248TIP3   OH231234   1.881   5.095   0.986 -1.1750 -0.0861  0.5004
 3248TIP3    H131235   1.793   5.115   0.953  0.0705  2.2553 -1.8481
 3248TIP3    H231236   1.924   5.050   0.913 -0.0706 -0.0609  1.1215
 3249TIP3   OH231237   6.409   6.205  15.397 -0.0010 -0.9716  0.4826
 3249TIP3    H131238   6.326   6.203  15.348 -0.3539 -1.1532  1.0696
 3249TIP3    H231239   6.399   6.135  15.462  0.4351 -0.6964  0.8472
 3250TIP3   OH231240   1.442   6.545  14.526 -0.3929  0.3095 -0.1857
 3250TIP3    H131241   1.425   6.544  14.432 -0.3888 -0.1833 -0.1802
 3250TIP3    H231242   1.526   6.591  14.534 -1.9028  3.3138 -0.1725
 3251TIP3   OH231243   0.318   6.567   5.473  0.2584  0.2956 -0.2411
 3251TIP3    H131244   0.287   6.648   5.513 -2.0614  0.3939 -2.0526
 3251TIP3    H231245   0.389   6.594   5.415  0.6068  0.7855  0.4144
 3252TIP3   OH231246   1.211   3.537  10.173 -0.1650 -0.4653 -0.0229
 3252TIP3    H131247   1.216   3.451  10.130  0.5317 -0.5619  0.2362
 3252TIP3    H231248   1.142   3.527  10.239 -0.5745 -0.6081 -0.4684
 3253TIP3   OH231249   2.646   0.857  17.211 -0.4374 -0.0821  0.0578
 3253TIP3    H131250   2.608   0.933  17.255 -0.1462  0.1374 -0.0627
 3253TIP3    H231251   2.709   0.822  17.274 -0.1101  0.1587 -0.1279
 3254TIP3   OH231252   0.544   1.491  13.061 -0.0213  0.0558 -0.4654
 3254TIP3    H131253   0.555   1.538  12.978 -1.0020 -0.9720 -1.2244
 3254TIP3    H231254   0.449   1.482  13.070  0.0572  0.5719  1.0398
 3255TIP3   OH231255   5.882   3.483   1.879 -0.4028  0.5590  0.1704
 3255TIP3    H131256   5.923   3.513   1.960 -0.4330  1.2218 -0.0596
 3255TIP3    H231257   5.953   3.441   1.830  0.1104  2.0732 -0.4111
 3256TIP3   OH231258   1.332   0.577   4.960  0.7213 -0.1638  0.1643
 3256TIP3    H131259   1.242   0.562   4.933  0.7790  0.7552 -0.5992
 3256TIP3    H231260   1.366   0.490   4.980  0.0362 -0.6571 -0.7457
 3257TIP3   OH231261   2.163   2.026   2.439 -0.2352  0.1991 -0.3979
 3257TIP3    H131262   2.128   1.985   2.518  0.2211  0.6063  0.0292
 3257TIP3    H231263   2.256   2.003   2.440  0.0335  1.2281 -0.1346
 3258TIP3   OH231264   4.587   0.593  14.211  0.1273 -0.1636 -0.7409
 3258TIP3    H131265   4.681   0.586  14.198  0.2203  1.5615 -1.3421
 3258TIP3    H231266   4.550   0.583  14.123 -0.2584 -0.7964 -0.5157
 3259TIP3   OH231267   2.585   6.436  11.911  0.2947  0.0869  0.2089
 3259TIP3    H131268   2.519   6.461  11.846 -0.8060 -1.0055  0.8767
 3259TIP3    H231269   2.656   6.499  11.897 -0.7680  1.1499 -0.6871
 3260TIP3   OH231270   0.498   4.906   1.284  0.3745  0.2138 -0.5272
 3260TIP3    H131271   0.534   4.991   1.310  0.2902 -0.1099  0.7562
 3260TIP3    H231272   0.403   4.919   1.286  0.3640  0.1244 -0.4418
 3261TIP3   OH231273   0.717   0.595  13.533  0.3279  0.0457 -0.1666
 3261TIP3    H131274   0.626   0.569  13.547  0.2005  0.5414 -0.0508
 3261TIP3    H231275   0.728   0.674  13.586  0.8620 -0.0824 -0.0844
 3262TIP3   OH231276   4.998   3.442  15.432  0.3840 -0.0977  0.0701
 3262TIP3    H131277   4.968   3.352  15.427 -0.0425  0.0317  0.3011
 3262TIP3    H231278   4.979   3.469  15.521 -0.9839  0.7479 -0.4554
 3263TIP3   OH231279   4.932   5.386  17.112  0.2364  0.2916 -0.1040
 3263TIP3    H131280   4.985   5.450  17.159  2.5794 -0.5374 -1.4768
 3263TIP3    H231281   4.898   5.434  17.037  0.0022  0.5287  0.1518
 3264TIP3   OH231282   3.957   5.790  11.605 -0.2342 -0.2456 -0.4148
 3264TIP3    H131283   3.949   5.882  11.580 -0.7656 -0.4915 -1.2067
 3264TIP3    H231284   3.992   5.792  11.694 -2.9395  0.8116  0.7315
 3265TIP3   OH231285   0.336   0.293   4.531 -0.1957 -0.3372  0.2065
 3265TIP3    H131286   0.422   0.280   4.571  0.3399  0.3822 -0.6628
 3265TIP3    H231287   0.303   0.374   4.572 -1.2469 -1.5106  1.8060
 3266TIP3   OH231288   3.082   0.811   5.167 -0.5796 -0.0699  0.5715
 3266TIP3    H131289   3.162   0.863   5.155 -0.6981  0.2527  1.1311
 3266TIP3    H231290   3.096   0.733   5.114  0.0980 -0.0011  0.6379
 3267TIP3   OH231291   2.876   1.709  13.339  0.3789  0.8734 -0.7364
 3267TIP3    H131292   2.944   1.759  13.294  1.7041 -0.7490 -0.6487
 3267TIP3    H231293   2.811   1.691  13.272  1.2175  0.4481 -1.4660
 3268TIP3   OH231294   2.912   0.919  12.461  0.0568 -0.3349  0.0401
 3268TIP3    H131295   2.818   0.933  12.454  0.1614  1.2841  1.3205
 3268TIP3    H231296   2.948   1.005  12.483  1.9782 -0.6962 -1.4721
 3269TIP3   OH231297   1.452   0.887  13.972  0.3582 -0.9838  0.0710
 3269TIP3    H131298   1.468   0.820  14.039  2.1839 -0.3828  0.3141
 3269TIP3    H231299   1.540   0.912  13.942 -0.2633  1.1228 -0.1701
 3270TIP3   OH231300   2.509   5.646  14.205  0.0391 -0.2567 -0.2399
 3270TIP3    H131301   2.472   5.671  14.289  0.1234  1.1793 -0.6043
 3270TIP3    H231302   2.545   5.558  14.219 -1.3329 -0.6859  0.7750
 3271TIP3   OH231303   1.072   6.101   6.521  0.2709  0.6982 -0.1538
 3271TIP3    H131304   1.113   6.071   6.439  0.5165 -1.6414  0.7577
 3271TIP3    H231305   0.992   6.146   6.493  0.1989 -0.3174 -1.6622
 3272TIP3   OH231306   3.559   0.400   6.227 -0.1894 -0.3053  0.0349
 3272TIP3    H131307   3.608   0.390   6.308 -1.6322 -1.4204  0.8330
 3272TIP3    H231308   3.559   0.494   6.210 -1.4926  0.2186  2.4550
 3273TIP3   OH231309   2.568   3.015  12.182  0.2576 -0.1429  0.2157
 3273TIP3    H131310   2.586   2.941  12.240 -1.0029  0.8793  2.0444
 3273TIP3    H231311   2.639   3.077  12.200  0.3034 -0.1538  0.0700
 3274TIP3   OH231312   0.638   5.802   4.246  0.3227 -0.5066 -0.0745
 3274TIP3    H131313   0.680   5.843   4.170  0.6549 -1.5632 -0.4782
 3274TIP3    H231314   0.664   5.710   4.241  0.4986 -0.5564  1.4352
 3275TIP3   OH231315   3.030   2.202   0.732 -0.1353  0.2511 -0.2177
 3275TIP3    H131316   2.963   2.259   0.768 -0.6687  0.1053 -0.9697
 3275TIP3    H231317   2.983   2.126   0.699  0.1554  1.0052 -2.5107
 3276TIP3   OH231318   0.098   2.524   4.605 -0.3198 -0.1614 -0.0883
 3276TIP3    H131319   0.165   2.465   4.571 -0.6709 -1.1402  0.8741
 3276TIP3    H231320   0.016   2.492   4.567 -0.5767 -0.6176  0.8223
 3277TIP3   OH231321   0.492   5.955   5.262 -0.1761  0.6211 -0.4920
 3277TIP3    H131322   0.423   5.971   5.327 -0.5086  2.5453 -1.2598
 3277TIP3    H231323   0.530   5.871   5.288 -1.5541  0.4231  1.0599
 3278TIP3   OH231324   2.483   0.500   2.567  0.0677 -0.3808 -0.1679
 3278TIP3    H131325   2.565   0.490   2.616 -0.0277 -0.2330  0.0208
 3278TIP3    H231326   2.461   0.593   2.576  1.7165  0.4150 -3.1119
 3279TIP3   OH231327   0.203   6.699  13.532 -0.0960 -0.1958  0.0553
 3279TIP3    H131328   0.140   6.634  13.501 -0.2787  0.7289 -1.6679
 3279TIP3    H231329   0.160   6.783  13.515  0.6766  0.4126  1.0042
 3280TIP3   OH231330   5.946   0.352  16.565  0.3958  0.3412  1.0438
 3280TIP3    H131331   6.010   0.423  16.562  1.0066 -0.2197  0.4432
 3280TIP3    H231332   5.954   0.310  16.479 -0.3805 -0.0850  1.1756
 3281TIP3   OH231333   3.356   0.940   5.961 -0.1584 -0.1774  0.0458
 3281TIP3    H131334   3.276   0.902   5.997  0.5326 -0.9431  0.8425
 3281TIP3    H231335   3.415   0.947   6.036  1.0142 -0.9784 -0.7536
 3282TIP3   OH231336   3.297   3.461  17.020  0.4197 -0.3002  0.5316
 3282TIP3    H131337   3.220   3.476  17.074  2.0060  0.0574  2.8147
 3282TIP3    H231338   3.292   3.369  16.996 -0.2499 -0.5041  1.4103
 3283TIP3   OH231339   5.839   2.608  16.829 -0.0806  0.2291  0.0670
 3283TIP3    H131340   5.754   2.619  16.786  0.8670 -0.0018 -2.0130
 3283TIP3    H231341   5.879   2.533  16.784  0.9910 -0.0559  1.4131
 3284TIP3   OH231342   2.210   0.045   2.172 -0.1369  0.0915  0.6906
 3284TIP3    H131343   2.261   0.118   2.207  1.8242 -0.6262 -0.4871
 3284TIP3    H231344   2.272  -0.029   2.171 -1.4873 -1.0817  0.0519
 3285TIP3   OH231345   1.490   2.461  11.958  0.6195  0.3073  0.2126
 3285TIP3    H131346   1.503   2.383  11.904 -1.0170 -1.0018  1.5760
 3285TIP3    H231347   1.572   2.471  12.006  1.4482  0.4447 -1.2117
 3286TIP3   OH231348   3.891   3.785  16.584  0.2413  0.0726  0.4200
 3286TIP3    H131349   3.796   3.786  16.594  0.3148  0.8955  1.2484
 3286TIP3    H231350   3.921   3.854  16.644  1.2642  0.7075 -0.7894
 3287TIP3   OH231351   1.129   1.573  13.888  0.1318 -0.0709 -0.6657
 3287TIP3    H131352   1.088   1.503  13.838  1.1538 -2.4479  1.6329
 3287TIP3    H231353   1.219   1.545  13.901  0.5564  1.6472  0.4119
 3288TIP3   OH231354   5.838   3.004   2.394 -0.0439 -0.4633  0.0876
 3288TIP3    H131355   5.768   2.960   2.443  1.7771 -1.7367  1.6964
 3288TIP3    H231356   5.917   2.987   2.445  1.5221  0.6156 -1.8467
 3289TIP3   OH231357   5.549   1.512   4.235  0.0116  0.0136  0.0401
 3289TIP3    H131358   5.466   1.550   4.206 -0.6637  0.8072  2.7457
 3289TIP3    H231359   5.544   1.420   4.207 -2.6125 -0.4215  1.5559
 3290TIP3   OH231360   3.678   1.013  16.169  0.5378  0.0539 -0.3479
 3290TIP3    H131361   3.643   1.037  16.083 -1.0687 -0.5021  0.1219
 3290TIP3    H231362   3.654   0.920  16.179  3.5014 -0.8376 -0.6266
 3291TIP3   OH231363   4.088   0.814   2.402  0.0428 -0.4150  0.1918
 3291TIP3    H131364   4.104   0.777   2.315  0.6172  2.3390 -0.9825
 3291TIP3    H231365   4.169   0.860   2.423 -0.8149  0.6300  1.3058
 3292TIP3   OH231366   5.998   5.985  15.845 -0.5341  0.3375 -0.3873
 3292TIP3    H131367   5.914   5.999  15.889 -0.3383 -1.5043  0.6653
 3292TIP3    H231368   6.046   5.925  15.903  0.7702 -0.1260 -1.8803
 3293TIP3   OH231369   0.854   2.796   2.271  0.6658  0.5368 -0.0671
 3293TIP3    H131370   0.926   2.733   2.274  0.3951 -0.0191 -2.8290
 3293TIP3    H231371   0.897   2.881   2.261  0.9667  0.4524  0.4727
 3294TIP3   OH231372   2.002   3.590   3.628  0.2470  0.0398  0.3877
 3294TIP3    H131373   1.954   3.672   3.617  0.3352  0.2530  1.4766
 3294TIP3    H231374   1.935   3.522   3.624  0.3092  0.0419 -1.7026
 3295TIP3   OH231375   5.564   5.131  17.177 -0.1585  0.0886  0.5160
 3295TIP3    H131376   5.567   5.205  17.237 -0.2281 -1.2554  2.2569
 3295TIP3    H231377   5.471   5.115  17.163 -0.1406  0.5170 -0.1172
 3296TIP3   OH231378   5.608   6.445   2.633  0.1866  0.0631  0.9947
 3296TIP3    H131379   5.588   6.367   2.685 -2.7478  0.5971  0.8599
 3296TIP3    H231380   5.526   6.465   2.588  1.6433  1.6327 -1.1801
 3297TIP3   OH231381   1.141   0.063  16.928 -0.2597 -0.0444 -0.1390
 3297TIP3    H131382   1.116   0.025  16.844 -0.6569  0.5265 -0.2841
 3297TIP3    H231383   1.058   0.091  16.967 -0.1717 -1.0883  0.8335
 3298TIP3   OH231384   0.387   0.012  12.210 -0.6646 -0.2065  0.2098
 3298TIP3    H131385   0.313  -0.045  12.189  1.2703 -2.7161 -0.3065
 3298TIP3    H231386   0.396   0.005  12.305  0.0914 -1.5478  0.0626
 3299TIP3   OH231387   0.661   0.662   3.572 -0.3918  0.0448  0.4857
 3299TIP3    H131388   0.605   0.595   3.611 -1.0511  0.6931  0.6738
 3299TIP3    H231389   0.740   0.615   3.546 -1.3767 -1.0762 -0.6221
 3300TIP3   OH231390   1.154   1.904   3.444 -0.2134  0.7576 -0.4090
 3300TIP3    H131391   1.121   1.939   3.361 -0.1331 -1.0253 -1.2507
 3300TIP3    H231392   1.075   1.873   3.489 -0.2022  1.2035 -0.0894
 3301TIP3   OH231393   5.021   0.261  12.433  0.2976  0.1582 -0.2627
 3301TIP3    H131394   4.946   0.280  12.377  0.9285  0.9964 -0.8399
 3301TIP3    H231395   5.061   0.346  12.450  2.0811 -0.4070 -1.3284
 3302TIP3   OH231396   4.574   0.308   1.759  0.8039  0.5112 -0.1604
 3302TIP3    H131397   4.630   0.259   1.819  0.0662 -0.2784 -0.0902
 3302TIP3    H231398   4.513   0.355   1.817 -0.4159 -0.8616 -0.2544
 3303TIP3   OH231399   3.740   1.977  14.919 -0.4842  0.5466  0.3129
 3303TIP3    H131400   3.705   2.063  14.894 -0.8054  0.2274 -0.3764
 3303TIP3    H231401   3.662   1.923  14.932 -0.3577 -0.6352 -2.8717
 3304TIP3   OH231402   1.245   0.781   3.948  0.8548 -0.7341  0.0981
 3304TIP3    H131403   1.210   0.699   3.983  1.0717 -1.4785 -1.3410
 3304TIP3    H231404   1.177   0.846   3.966  0.3263 -1.4034  0.5549
 3305TIP3   OH231405   5.494   1.935  13.177 -0.9717 -0.3253  0.6850
 3305TIP3    H131406   5.445   1.885  13.112  1.9106 -3.0750  0.3773
 3305TIP3    H231407   5.540   2.001  13.126 -2.8278  1.1132  0.7585
 3306TIP3   OH231408   1.443   6.797   2.961  0.1322  0.0256  0.0761
 3306TIP3    H131409   1.480   6.717   2.996  0.7804 -1.1741 -3.0395
 3306TIP3    H231410   1.348   6.787   2.973  0.3393  0.9022  3.6230
 3307TIP3   OH231411   1.763   0.768  14.185  0.7645 -0.0124 -0.4664
 3307TIP3    H131412   1.808   0.787  14.103  0.0500  0.2551 -0.7976
 3307TIP3    H231413   1.745   0.854  14.223 -1.4000  0.0113 -1.3922
 3308TIP3   OH231414   0.943   6.746  13.206 -0.1845 -0.6097  0.5984
 3308TIP3    H131415   0.966   6.653  13.204  0.6919 -0.3862 -0.6860
 3308TIP3    H231416   0.848   6.747  13.196 -0.1766 -1.3673  0.3630
 3309TIP3   OH231417   3.637   1.484   5.452  0.1594  0.6758 -0.2793
 3309TIP3    H131418   3.677   1.502   5.538 -0.4654  1.9644 -0.2275
 3309TIP3    H231419   3.665   1.558   5.398  0.6829 -0.2172 -1.2518
 3310TIP3   OH231420   2.006   0.455  12.720  0.0260  0.5286  0.3841
 3310TIP3    H131421   1.923   0.496  12.697  0.0267 -0.0803 -0.7424
 3310TIP3    H231422   2.021   0.481  12.811 -0.7995  1.6197  0.2230
 3311TIP3   OH231423   5.251   3.053  13.335 -0.3233  0.9102 -0.5439
 3311TIP3    H131424   5.223   2.999  13.261  1.1322  1.0654 -1.2515
 3311TIP3    H231425   5.324   3.005  13.373 -0.9368  0.9266  0.7060
 3312TIP3   OH231426   6.025   4.152  13.308  0.3435 -0.2822 -0.1592
 3312TIP3    H131427   6.025   4.114  13.396  1.6037 -0.6746 -0.3030
 3312TIP3    H231428   5.976   4.090  13.254  0.3212 -0.4796  0.0901
 3313TIP3   OH231429   1.052   1.695   1.847 -0.1090  0.0593 -0.1132
 3313TIP3    H131430   1.044   1.604   1.877 -3.2517  0.2666  0.0728
 3313TIP3    H231431   1.121   1.692   1.781 -0.7429 -2.6892 -0.8190
 3314TIP3   OH231432   4.383   5.385  14.459 -0.5538  0.0139 -0.4434
 3314TIP3    H131433   4.418   5.439  14.388  0.7771  0.9320  0.8493
 3314TIP3    H231434   4.363   5.448  14.529 -1.9027 -0.8567 -0.0079
 3315TIP3   OH231435   1.236   5.491   3.996  0.1881  0.5271  0.0320
 3315TIP3    H131436   1.237   5.435   3.918  0.1592 -0.1334  0.5048
 3315TIP3    H231437   1.324   5.483   4.032  0.1697  0.7508  0.1259
 3316TIP3   OH231438   6.377   3.236   4.358  0.2883  0.2262  0.5479
 3316TIP3    H131439   6.411   3.304   4.299 -0.6025 -0.2872 -0.6031
 3316TIP3    H231440   6.328   3.285   4.424  0.1419  0.7509  0.0674
 3317TIP3   OH231441   2.561   4.058  12.642  0.0358 -0.3198 -0.2282
 3317TIP3    H131442   2.621   4.124  12.677  1.4682 -0.5364 -2.1265
 3317TIP3    H231443   2.533   4.008  12.719  1.0046  0.8076  0.9081
 3318TIP3   OH231444   5.560   5.555   2.251  0.0481 -0.2936 -0.0053
 3318TIP3    H131445   5.583   5.467   2.282 -0.7547  0.0020  1.4800
 3318TIP3    H231446   5.583   5.554   2.158  0.2289 -2.0117  0.0322
 3319TIP3   OH231447   4.289   3.885   5.800 -0.1394  0.0685 -0.7672
 3319TIP3    H131448   4.282   3.789   5.797 -0.0646  0.0686 -1.0157
 3319TIP3    H231449   4.222   3.912   5.862 -0.9761 -0.0771 -1.5764
 3320TIP3   OH231450   4.586   3.670   3.004 -0.2663 -0.1263 -1.0541
 3320TIP3    H131451   4.617   3.760   3.012 -0.4132 -0.1393 -0.2250
 3320TIP3    H231452   4.538   3.668   2.921 -3.0298  1.3986  0.3733
 3321TIP3   OH231453   1.219   0.720  14.474  0.3032  0.0013 -0.0340
 3321TIP3    H131454   1.299   0.745  14.426  0.1070 -2.0454 -1.5379
 3321TIP3    H231455   1.223   0.625  14.479 -0.9318  0.0037  1.9362
 3322TIP3   OH231456   4.415   1.061   2.858 -0.4933 -0.1232  0.0479
 3322TIP3    H131457   4.394   1.132   2.797 -2.2364  0.3843  1.1750
 3322TIP3    H231458   4.425   1.105   2.943 -0.0177 -1.0431  0.4769
 3323TIP3   OH231459   6.188   5.144  13.239  0.2501 -0.3914 -0.3517
 3323TIP3    H131460   6.125   5.198  13.289  0.3426  0.0372 -0.6915
 3323TIP3    H231461   6.271   5.189  13.250  0.3262 -0.4600 -0.6489
 3324TIP3   OH231462   1.259   1.262  16.945 -0.4859 -0.2367  0.0700
 3324TIP3    H131463   1.171   1.255  16.981 -0.5264  1.3845  0.3463
 3324TIP3    H231464   1.310   1.307  17.013  0.5315 -1.0143 -0.1459
 3325TIP3   OH231465   6.647   0.660  13.451  0.2088  0.1422 -0.2616
 3325TIP3    H131466   6.704   0.716  13.504  1.1154  0.8446 -1.9147
 3325TIP3    H231467   6.568   0.649  13.504  1.2345  0.4825  1.3874
 3326TIP3   OH231468   4.490   5.517  13.173 -0.1062  0.2856  0.1347
 3326TIP3    H131469   4.554   5.460  13.131  0.0108  0.3956  0.1635
 3326TIP3    H231470   4.487   5.595  13.118 -2.3944 -0.8758 -1.6009
 3327TIP3   OH231471   2.676   2.913   5.131 -0.0477 -0.5172 -0.1715
 3327TIP3    H131472   2.629   2.993   5.158  0.4528 -0.5387  0.8205
 3327TIP3    H231473   2.681   2.919   5.036  0.6655  1.0356 -0.0663
 3328TIP3   OH231474   6.320   6.432  16.891  0.2475 -0.2286  0.2490
 3328TIP3    H131475   6.300   6.503  16.829  0.3734  0.3163  0.8286
 3328TIP3    H231476   6.377   6.373  16.841  1.4336  0.8743  0.2444
 3329TIP3   OH231477   6.666   1.781  11.207  0.0466  0.0746 -0.1157
 3329TIP3    H131478   6.576   1.776  11.174  0.0101 -0.3822  0.0444
 3329TIP3    H231479   6.713   1.832  11.141 -0.2363 -0.0318 -0.4010
 3330TIP3   OH231480   0.382   1.722  11.563  0.1366  0.6005 -0.1655
 3330TIP3    H131481   0.359   1.686  11.649 -1.8883  1.0462 -0.4848
 3330TIP3    H231482   0.370   1.816  11.573 -0.5826  0.6115 -1.0540
 3331TIP3   OH231483   2.735   1.656   0.439 -0.1883 -0.5069 -0.4216
 3331TIP3    H131484   2.660   1.637   0.495 -0.6756  0.6472 -0.6455
 3331TIP3    H231485   2.707   1.631   0.351 -1.6722  2.9632 -1.1093
 3332TIP3   OH231486   0.293   1.166  13.706 -0.0564 -0.2043 -0.4218
 3332TIP3    H131487   0.285   1.099  13.638 -0.1618  0.2203 -0.8358
 3332TIP3    H231488   0.386   1.189  13.705  0.1041 -0.8026  0.1711
 3333TIP3   OH231489   5.197   5.297  16.919  0.0172 -0.2213 -0.1717
 3333TIP3    H131490   5.258   5.323  16.989  0.9429 -1.8768 -0.3107
 3333TIP3    H231491   5.186   5.376  16.867  0.2032  0.7472  1.1860
 3334TIP3   OH231492   5.092   1.281   5.746  0.3879 -0.5370  0.1676
 3334TIP3    H131493   5.097   1.185   5.744 -1.0882 -0.6311 -0.6571
 3334TIP3    H231494   5.026   1.299   5.814 -0.9380 -0.2327 -1.1429
 3335TIP3   OH231495   4.977   3.868   0.454 -0.2322  0.1011  0.0718
 3335TIP3    H131496   5.041   3.940   0.451  0.5123 -0.5344  0.2143
 3335TIP3    H231497   5.031   3.789   0.456 -1.0443 -0.4854 -0.6734
 3336TIP3   OH231498   1.539   1.032   2.464  0.1394 -0.1101 -0.1328
 3336TIP3    H131499   1.535   0.937   2.474  0.5870 -0.0205  1.1824
 3336TIP3    H231500   1.561   1.046   2.372 -1.5674 -1.2131 -0.7482
 3337TIP3   OH231501   4.842   0.558  15.424 -0.4555 -0.9594 -0.3978
 3337TIP3    H131502   4.804   0.629  15.477 -1.0802 -1.2673 -0.4269
 3337TIP3    H231503   4.909   0.519  15.482 -0.6071 -0.8093 -0.1185
 3338TIP3   OH231504   6.177   5.829   2.777 -0.4364  0.0026  0.2260
 3338TIP3    H131505   6.132   5.846   2.695  0.7218  1.5734 -0.1493
 3338TIP3    H231506   6.213   5.915   2.802  1.0056 -0.8620  1.2735
 3339TIP3   OH231507   3.400   4.675   6.209 -0.3633  0.1240 -0.1181
 3339TIP3    H131508   3.321   4.664   6.156  0.1399  0.6500 -0.9936
 3339TIP3    H231509   3.463   4.613   6.172 -0.4775 -0.5962  0.8426
 3340TIP3   OH231510   1.233   5.011  12.326  0.1096  0.1653 -0.2212
 3340TIP3    H131511   1.244   5.104  12.311  2.9409 -0.3078 -1.7367
 3340TIP3    H231512   1.260   4.998  12.417 -2.5321  1.0485  0.7646
 3341TIP3   OH231513   0.513   4.231   1.154 -0.1313 -0.0736  0.2194
 3341TIP3    H131514   0.577   4.301   1.143  1.0948 -1.0556  0.9016
 3341TIP3    H231515   0.456   4.238   1.077  0.2170  1.3883  0.0588
 3342TIP3   OH231516   5.834   4.860   5.199 -0.0440 -0.3699 -0.1656
 3342TIP3    H131517   5.841   4.764   5.201 -1.2892 -0.5331 -1.8387
 3342TIP3    H231518   5.804   4.884   5.287  1.3523 -1.3873  0.6273
 3343TIP3   OH231519   6.788   6.729  12.417 -0.2856 -0.3905 -0.2009
 3343TIP3    H131520   6.833   6.790  12.476 -0.5843 -1.1552  0.8397
 3343TIP3    H231521   6.854   6.707  12.351 -0.1391  0.9601 -0.5295
 3344TIP3   OH231522   1.361   0.798   5.117 -0.1068  0.2433 -0.3671
 3344TIP3    H131523   1.347   0.709   5.085 -1.1677  0.5240 -0.7441
 3344TIP3    H231524   1.355   0.852   5.038 -1.6110  0.8364  0.1154
 3345TIP3   OH231525   0.218   0.675  16.855 -0.0352  0.0180 -0.1844
 3345TIP3    H131526   0.237   0.680  16.762 -0.8029 -0.3725 -0.3660
 3345TIP3    H231527   0.253   0.589  16.882  3.1432  1.4107  0.6058
 3346TIP3   OH231528   0.087   0.945  15.067  0.2724 -0.2351  0.1396
 3346TIP3    H131529   0.165   0.892  15.083  0.4805  0.1622  0.4513
 3346TIP3    H231530   0.121   1.029  15.034  0.2038  1.0600  3.0386
 3347TIP3   OH231531   3.881   3.760  14.341 -0.4466  0.2090 -0.5931
 3347TIP3    H131532   3.860   3.734  14.431  1.8730  2.1494  0.6385
 3347TIP3    H231533   3.812   3.823  14.317  0.0450  1.3021  0.7087
 3348TIP3   OH231534   3.830   2.704   2.736 -0.4523  0.1805  0.0114
 3348TIP3    H131535   3.789   2.717   2.651 -0.6105  0.0645  0.0723
 3348TIP3    H231536   3.888   2.629   2.724  0.0490  0.5874 -0.1871
 3349TIP3   OH231537   4.875   3.955   3.043 -0.1916  0.8712  0.0941
 3349TIP3    H131538   4.886   3.975   3.136 -0.9138 -0.6882  0.5539
 3349TIP3    H231539   4.963   3.963   3.006  0.9895 -2.4947  1.7898
 3350TIP3   OH231540   0.824   3.549  14.073 -0.1913 -0.3516  0.0957
 3350TIP3    H131541   0.847   3.461  14.104  0.3560 -0.0501  0.5530
 3350TIP3    H231542   0.867   3.557  13.988 -0.9027 -0.8192 -0.3235
 3351TIP3   OH231543   3.657   2.442  13.748  0.3398 -0.9973  0.1949
 3351TIP3    H131544   3.577   2.493  13.757  1.2200  0.0778  2.7380
 3351TIP3    H231545   3.660   2.419  13.655 -1.9569  0.4726 -0.3297
 3352TIP3   OH231546   0.273   6.780  13.238  0.3450  0.5203  0.4266
 3352TIP3    H131547   0.282   6.756  13.330 -2.3577 -0.0689  0.6054
 3352TIP3    H231548   0.207   6.720  13.203  0.6461  1.3268 -1.6713
 3353TIP3   OH231549   3.403   0.508   3.438  0.5533  0.5451 -0.9379
 3353TIP3    H131550   3.407   0.531   3.531  0.1891 -0.6338 -0.6188
 3353TIP3    H231551   3.323   0.551   3.406  0.0353 -0.0181 -0.4183
 3354TIP3   OH231552   5.888   1.087  12.042 -0.3897 -0.1647  0.0867
 3354TIP3    H131553   5.815   1.148  12.051 -0.5619 -0.2407 -0.7314
 3354TIP3    H231554   5.946   1.128  11.978 -0.8689 -1.1824 -1.0471
 3355TIP3   OH231555   5.592   5.409  14.408  0.0995  0.3808  0.4780
 3355TIP3    H131556   5.560   5.423  14.319  1.4619 -1.7998 -0.4330
 3355TIP3    H231557   5.520   5.439  14.464 -2.0617 -1.0043 -1.3912
 3356TIP3   OH231558   1.676   4.311   5.727 -0.1996  0.1848  0.2002
 3356TIP3    H131559   1.717   4.382   5.678 -0.9946  1.0768  0.7891
 3356TIP3    H231560   1.745   4.279   5.785 -0.0710  1.1021  0.5794
 3357TIP3   OH231561   3.462   5.421   5.324 -0.3939 -0.1728 -0.4490
 3357TIP3    H131562   3.531   5.425   5.391 -0.8322 -1.2256  0.0895
 3357TIP3    H231563   3.505   5.451   5.244  0.2055  0.9095  0.2378
 3358TIP3   OH231564   0.189   5.923  13.335 -0.2330  0.0227 -0.0336
 3358TIP3    H131565   0.281   5.925  13.363 -1.0650 -0.8839  3.1500
 3358TIP3    H231566   0.173   6.010  13.300  1.5997  0.4986  0.1982
 3359TIP3   OH231567   6.489   3.049   4.530 -0.3771 -0.0685 -0.1377
 3359TIP3    H131568   6.526   2.965   4.504 -1.5458 -0.4589 -0.6165
 3359TIP3    H231569   6.450   3.083   4.449 -3.5635 -1.0119  0.8775
 3360TIP3   OH231570   0.123   3.157  11.579  0.4172 -0.2996 -0.3154
 3360TIP3    H131571   0.072   3.183  11.655 -0.6010 -0.1192 -1.0413
 3360TIP3    H231572   0.191   3.225  11.571  0.5896 -0.3732  0.4738
 3361TIP3   OH231573   3.267   1.899   3.998  0.1618  0.2573 -0.1211
 3361TIP3    H131574   3.343   1.934   4.045  0.2182  0.3705 -0.2935
 3361TIP3    H231575   3.276   1.935   3.910 -0.3129  0.6065 -0.0291
 3362TIP3   OH231576   3.177   1.183  13.490 -0.2672  0.2263 -0.0611
 3362TIP3    H131577   3.169   1.205  13.583  0.3056  2.1651 -0.4371
 3362TIP3    H231578   3.271   1.175  13.474 -0.2857  1.1247 -0.7137
 3363TIP3   OH231579   1.927   6.688   0.756  0.0492  0.0988  0.2852
 3363TIP3    H131580   1.991   6.759   0.748  1.0145 -0.8896 -2.1745
 3363TIP3    H231581   1.918   6.655   0.666 -2.7852 -0.8353  0.8192
 3364TIP3   OH231582   3.075   6.820   1.637  0.1685  0.6551 -0.5487
 3364TIP3    H131583   3.058   6.754   1.705 -0.4319  0.8389 -0.5205
 3364TIP3    H231584   3.013   6.799   1.567 -0.6138  1.6959 -0.1918
 3365TIP3   OH231585   5.193   2.684   3.879  0.6411  0.0711 -0.6047
 3365TIP3    H131586   5.287   2.698   3.890  0.3905  1.1722  0.2898
 3365TIP3    H231587   5.153   2.766   3.907 -0.4320  1.1982 -4.7202
 3366TIP3   OH231588   3.938   6.218   1.105  0.2787 -0.5341  0.3095
 3366TIP3    H131589   3.924   6.167   1.185  1.8774  0.3080  1.1685
 3366TIP3    H231590   3.856   6.207   1.056 -1.1638 -0.2817  2.4876
 3367TIP3   OH231591   4.397   2.241  13.522  0.8932 -0.2426  0.5051
 3367TIP3    H131592   4.353   2.228  13.606  0.3125 -0.8793  0.1084
 3367TIP3    H231593   4.345   2.191  13.459  0.3288  1.5625 -0.5509
 3368TIP3   OH231594   6.648   3.378   3.065 -0.3483  0.1380  0.4692
 3368TIP3    H131595   6.728   3.331   3.089 -0.4871  0.6548  2.1358
 3368TIP3    H231596   6.676   3.469   3.059 -0.3667  0.0471 -1.2969
 3369TIP3   OH231597   2.643   6.390   1.454  0.0402 -0.1912 -1.2163
 3369TIP3    H131598   2.652   6.481   1.425  0.6393 -0.2926 -1.3741
 3369TIP3    H231599   2.589   6.395   1.532  1.6671  0.5385 -0.0816
 3370TIP3   OH231600   3.580   4.085   1.957  0.5544 -0.0166 -0.3169
 3370TIP3    H131601   3.591   4.150   1.887  1.1343 -1.2106 -1.3618
 3370TIP3    H231602   3.545   4.008   1.913 -0.9274 -0.1707  1.0544
 3371TIP3   OH231603   4.998   6.302   5.174  0.1915 -0.6173 -0.0776
 3371TIP3    H131604   4.963   6.216   5.196  1.9673 -1.5738 -0.8524
 3371TIP3    H231605   4.942   6.332   5.102  0.7411 -2.0065 -1.1353
 3372TIP3   OH231606   6.122   3.587  16.396  0.5355 -0.4319 -0.3359
 3372TIP3    H131607   6.190   3.644  16.432  1.3592 -0.6579 -1.4833
 3372TIP3    H231608   6.144   3.500  16.430 -0.8582 -0.1018  1.6119
 3373TIP3   OH231609   6.459   4.664   3.747 -0.0501  0.1844  0.8858
 3373TIP3    H131610   6.454   4.662   3.843  2.9178 -2.9998  1.1473
 3373TIP3    H231611   6.548   4.694   3.728  0.5954 -2.3686 -0.6554
 3374TIP3   OH231612   5.612   4.963  14.303 -0.1001  0.4537 -0.0012
 3374TIP3    H131613   5.621   5.021  14.379  2.1307  0.2858 -0.0894
 3374TIP3    H231614   5.599   5.023  14.229  1.3163  0.8437  0.0341
 3375TIP3   OH231615   1.604   0.929   4.739  0.3305  0.2563 -0.3332
 3375TIP3    H131616   1.558   1.010   4.719  0.8417  0.4371 -0.7953
 3375TIP3    H231617   1.605   0.880   4.657  2.2528  0.9101 -0.7459
 3376TIP3   OH231618   3.500   1.880   3.646  0.8031  0.2041  0.4124
 3376TIP3    H131619   3.481   1.904   3.737  0.2423 -0.9296  0.6201
 3376TIP3    H231620   3.422   1.908   3.598  0.7004 -0.0106  0.4478
 3377TIP3   OH231621   1.939   2.812   3.388 -0.2968  0.3550 -0.4771
 3377TIP3    H131622   2.008   2.753   3.359  0.0489  1.0450 -1.1133
 3377TIP3    H231623   1.968   2.843   3.474 -1.2516 -1.5889  0.6064
 3378TIP3   OH231624   3.125   0.644  14.660  0.0128 -0.0364 -0.3677
 3378TIP3    H131625   3.071   0.614  14.733  0.9350 -0.2480  0.2499
 3378TIP3    H231626   3.142   0.736  14.679  1.6173 -0.4915  0.5898
 3379TIP3   OH231627   5.928   3.021  11.810 -0.6809 -0.0020  0.6421
 3379TIP3    H131628   5.909   2.947  11.868  0.5426 -1.0126 -0.1956
 3379TIP3    H231629   5.999   2.990  11.754  0.3410  2.0535  0.7082
 3380TIP3   OH231630   2.238   4.553   4.879  0.3141 -0.7301 -0.0214
 3380TIP3    H131631   2.254   4.561   4.785 -1.2126  1.8537 -0.1521
 3380TIP3    H231632   2.143   4.547   4.886  0.2959  0.6160  1.3857
 3381TIP3   OH231633   2.854   2.439  12.760 -0.3436 -0.2182  0.0269
 3381TIP3    H131634   2.800   2.506  12.803 -0.3735  0.0633 -0.4432
 3381TIP3    H231635   2.812   2.424  12.676  1.7666  2.0338 -1.5885
 3382TIP3   OH231636   2.752   4.906  16.634  0.3800 -0.3082 -0.8134
 3382TIP3    H131637   2.803   4.850  16.575  1.1326  0.9861 -1.4484
 3382TIP3    H231638   2.804   4.985  16.643 -0.0597 -0.1739  1.0657
 3383TIP3   OH231639   2.211   0.089   4.890  0.6535 -0.3163  0.4429
 3383TIP3    H131640   2.150   0.159   4.866  1.7009  0.7288  0.7607
 3383TIP3    H231641   2.269   0.081   4.815 -0.5333 -2.1353 -0.3633
 3384TIP3   OH231642   2.873   5.688  16.526  0.8328 -0.1220 -0.4187
 3384TIP3    H131643   2.830   5.718  16.446 -2.4431 -1.6225  0.6228
 3384TIP3    H231644   2.855   5.757  16.590  0.3163 -0.5656 -0.0792
 3385TIP3   OH231645   0.540   4.177   0.422 -1.4665  0.6240 -0.3169
 3385TIP3    H131646   0.549   4.085   0.398  0.1472  0.7337 -0.2195
 3385TIP3    H231647   0.595   4.187   0.500  0.2130  2.1454 -1.6228
 3386TIP3   OH231648   0.772   3.352  17.177 -0.0131 -0.7170  0.2423
 3386TIP3    H131649   0.819   3.380  17.099 -2.0693  1.6026 -0.2792
 3386TIP3    H231650   0.784   3.423  17.240 -0.9305 -1.1260  0.9065
 3387TIP3   OH231651   3.264   3.802   6.741  0.1326 -0.0786 -0.3766
 3387TIP3    H131652   3.261   3.748   6.663 -0.7322  0.7121 -0.9140
 3387TIP3    H231653   3.177   3.841   6.747  1.3416  3.1013 -1.3924
 3388TIP3   OH231654   2.943   3.759  16.025 -0.2644  0.4244  0.2256
 3388TIP3    H131655   2.919   3.679  16.072 -0.6201 -0.0962 -0.8079
 3388TIP3    H231656   3.021   3.792  16.071 -0.1937 -0.4355  0.7436
 3389TIP3   OH231657   1.078   4.720  13.067  0.0672  0.2617  0.4143
 3389TIP3    H131658   0.997   4.755  13.029  1.0883  2.2721 -0.0492
 3389TIP3    H231659   1.054   4.695  13.156 -1.5628 -1.2955 -0.4051
 3390TIP3   OH231660   6.422   6.531  14.389  0.0783  0.6549 -0.1623
 3390TIP3    H131661   6.481   6.567  14.324  0.7481  0.3555  0.2693
 3390TIP3    H231662   6.359   6.602  14.407 -0.7955  0.3666 -1.9102
 3391TIP3   OH231663   4.657   3.881  12.752 -0.0568 -0.2878  0.6020
 3391TIP3    H131664   4.753   3.883  12.752 -0.0555  1.6298 -0.0560
 3391TIP3    H231665   4.634   3.816  12.686  0.8049 -0.0612  0.0599
 3392TIP3   OH231666   4.486   5.507  14.221  0.4502 -0.5179 -0.2788
 3392TIP3    H131667   4.532   5.587  14.246  1.1381 -0.9041 -0.2798
 3392TIP3    H231668   4.485   5.508  14.126  0.5455 -0.5532 -0.2806
 3393TIP3   OH231669   4.455   6.426   1.317 -0.4128 -0.4042 -0.5007
 3393TIP3    H131670   4.480   6.418   1.409  0.6888  0.8445 -0.6602
 3393TIP3    H231671   4.418   6.514   1.310 -1.5998 -0.9230 -1.0329
 3394TIP3   OH231672   4.942   5.355   2.408  0.1885  0.0269  0.2203
 3394TIP3    H131673   5.015   5.385   2.461  1.0111  1.6429 -1.6695
 3394TIP3    H231674   4.883   5.431   2.403  0.1006 -0.0897 -1.0211
 3395TIP3   OH231675   3.958   0.329   3.148  0.9452 -0.1558  0.3692
 3395TIP3    H131676   3.939   0.265   3.217 -0.3643 -0.6405 -0.3945
 3395TIP3    H231677   3.909   0.296   3.072 -2.0921  3.1180  0.6410
 3396TIP3   OH231678   1.603   2.495  11.427 -0.2681  0.1818 -0.1326
 3396TIP3    H131679   1.615   2.583  11.390 -1.9972  0.3420 -0.3727
 3396TIP3    H231680   1.619   2.506  11.520  0.4364  0.5542 -0.2935
 3397TIP3   OH231681   3.333   6.246  15.932 -0.3539  0.0474  0.3998
 3397TIP3    H131682   3.370   6.166  15.895 -1.1876 -1.2283  2.2027
 3397TIP3    H231683   3.409   6.302  15.949  0.4577 -1.1846  0.9584
 3398TIP3   OH231684   6.807   4.195  16.213  0.3906  0.6901  0.1452
 3398TIP3    H131685   6.776   4.258  16.148 -1.9745 -0.4160  0.1112
 3398TIP3    H231686   6.805   4.243  16.296 -2.4553  0.4419  0.3023
 3399TIP3   OH231687   2.586   3.885   4.499 -0.7410  0.0124  0.1052
 3399TIP3    H131688   2.651   3.831   4.454  0.0359  2.5218 -2.0918
 3399TIP3    H231689   2.622   3.898   4.586  1.5572  0.8790 -0.8753
 3400TIP3   OH231690   0.946   0.970   2.476 -0.1662  1.0196 -0.0250
 3400TIP3    H131691   1.018   1.031   2.489  0.1839  1.3537 -2.9596
 3400TIP3    H231692   0.870   1.027   2.460 -0.6385  0.6487  0.8078
 3401TIP3   OH231693   5.268   3.244  14.110  0.2511 -0.0019  0.3327
 3401TIP3    H131694   5.243   3.156  14.083  0.8290  0.4209 -1.8082
 3401TIP3    H231695   5.241   3.300  14.037  2.2390  1.2071  0.4485
 3402TIP3   OH231696   3.374   6.196   3.955 -0.1825  0.0388  0.4543
 3402TIP3    H131697   3.445   6.260   3.947  0.3260 -0.5881 -0.2049
 3402TIP3    H231698   3.315   6.218   3.883  0.8635 -1.2632 -0.8774
 3403TIP3   OH231699   3.148   3.012  14.217 -0.0523  0.0866 -0.2952
 3403TIP3    H131700   3.059   2.979  14.227 -0.0417  0.5229  1.6049
 3403TIP3    H231701   3.164   3.064  14.296  1.7088  0.4425 -0.8297
 3404TIP3   OH231702   4.122   2.069   5.728  0.0854  0.3288  0.3101
 3404TIP3    H131703   4.039   2.099   5.763  0.5106 -1.2786  3.0131
 3404TIP3    H231704   4.121   2.094   5.636 -3.3846  0.2981  0.2417
 3405TIP3   OH231705   1.220   1.599   3.622  0.1614 -0.2507 -0.0299
 3405TIP3    H131706   1.297   1.650   3.597 -0.4156  0.6950  0.0778
 3405TIP3    H231707   1.147   1.661   3.616 -0.3569 -0.6654  1.5271
 3406TIP3   OH231708   0.617   4.661   3.965  0.5318 -0.6219  0.4437
 3406TIP3    H131709   0.568   4.620   4.036 -0.5061  1.8975  1.3137
 3406TIP3    H231710   0.707   4.668   3.998  0.2409 -0.2686  1.1922
 3407TIP3   OH231711   1.440   3.998   4.186  0.3676  0.3507 -0.2900
 3407TIP3    H131712   1.500   4.072   4.183  2.6386 -1.3954 -1.4405
 3407TIP3    H231713   1.408   3.990   4.096 -0.0995  0.1056 -0.1055
 3408TIP3   OH231714   5.744   6.018  15.989  0.1321  0.5597 -0.3045
 3408TIP3    H131715   5.730   5.924  15.996  2.6124  0.1175 -0.5639
 3408TIP3    H231716   5.656   6.055  15.995 -0.8726 -1.7202  0.2481
 3409TIP3   OH231717   6.706   1.079   2.129  0.1960 -0.4738 -0.4802
 3409TIP3    H131718   6.721   0.987   2.149  0.4877 -0.3415 -0.0873
 3409TIP3    H231719   6.613   1.093   2.148  0.6150 -0.1697  1.5647
 3410TIP3   OH231720   6.403   1.316   5.346 -0.1305 -0.1439 -0.5802
 3410TIP3    H131721   6.322   1.275   5.377 -0.6528  0.6580 -0.8725
 3410TIP3    H231722   6.436   1.363   5.423  0.9655 -1.8198  0.0354
 3411TIP3   OH231723   3.952   4.280  17.220  0.0653  0.4966 -0.5487
 3411TIP3    H131724   3.942   4.270  17.125  2.2274 -1.7633 -0.6331
 3411TIP3    H231725   4.039   4.320  17.230  0.2522 -0.1417  0.4750
 3412TIP3   OH231726   0.300   5.016   3.423  0.3255  0.5440  0.2045
 3412TIP3    H131727   0.301   4.923   3.446 -0.7807  0.3821 -0.3536
 3412TIP3    H231728   0.275   5.017   3.331 -0.6856  1.4418  0.4815
 3413TIP3   OH231729   0.584   3.027  13.050 -0.7323 -0.0566  0.2951
 3413TIP3    H131730   0.489   3.037  13.055 -1.0384 -2.4793  0.5005
 3413TIP3    H231731   0.602   2.942  13.091  1.4541  0.0410 -0.2995
 3414TIP3   OH231732   5.991   3.677  11.329  0.6435  0.2134 -0.2977
 3414TIP3    H131733   6.080   3.707  11.315  1.5383 -2.0440  0.1031
 3414TIP3    H231734   5.946   3.752  11.368  2.4412  1.2955 -0.2117
 3415TIP3   OH231735   3.152   5.477   2.698 -0.6190 -0.6128  0.0108
 3415TIP3    H131736   3.109   5.394   2.678 -1.3250 -0.9711  2.6890
 3415TIP3    H231737   3.122   5.500   2.786  1.9502  0.9262  0.6065
 3416TIP3   OH231738   4.359   0.033  11.684  0.7656 -0.2098  0.0502
 3416TIP3    H131739   4.271   0.036  11.721  2.0896 -0.6642  3.5999
 3416TIP3    H231740   4.380   0.124  11.661 -0.8415 -0.2131 -1.6699
 3417TIP3   OH231741   6.780   0.186   0.126  0.0275 -0.5423  0.3276
 3417TIP3    H131742   6.764   0.266   0.176 -0.9803 -0.5182 -0.0076
 3417TIP3    H231743   6.873   0.189   0.106 -0.0339  0.6650  0.1304
 3418TIP3   OH231744   5.012   1.495   3.350  1.0572  0.2394 -0.1157
 3418TIP3    H131745   4.945   1.426   3.348  2.6807 -1.5501  1.9319
 3418TIP3    H231746   5.085   1.458   3.300  1.1854  1.4284 -0.8360
 3419TIP3   OH231747   6.771   6.225  11.649  0.4778  0.1180 -0.7722
 3419TIP3    H131748   6.817   6.146  11.678  0.0583 -0.4050 -1.4802
 3419TIP3    H231749   6.775   6.284  11.724  1.6354 -0.2008 -0.5621
 3420TIP3   OH231750   1.579   5.094   3.244  0.5094 -0.0764  0.2760
 3420TIP3    H131751   1.526   5.126   3.317 -1.7267 -1.1384 -0.8078
 3420TIP3    H231752   1.584   5.000   3.258 -0.3294 -0.3555 -1.1515
 3421TIP3   OH231753   3.532   6.650   3.924  0.1360  0.1088 -0.4220
 3421TIP3    H131754   3.605   6.678   3.868  1.6890 -0.6362  1.1260
 3421TIP3    H231755   3.514   6.726   3.980 -0.7308  0.5035 -1.2081
 3422TIP3   OH231756   6.649   2.421  14.211 -0.0347 -0.4933 -0.3155
 3422TIP3    H131757   6.593   2.366  14.266 -0.1088 -0.1208 -0.0126
 3422TIP3    H231758   6.621   2.511  14.230 -0.2319 -0.3657 -1.1409
 3423TIP3   OH231759   0.440   2.410  12.208  0.3980  0.2669  0.2385
 3423TIP3    H131760   0.403   2.400  12.295 -1.5019  2.0458 -0.2951
 3423TIP3    H231761   0.383   2.359  12.151  0.2375  0.9990 -0.2686
 3424TIP3   OH231762   2.134   2.879   4.182  0.2708  0.0155  0.1156
 3424TIP3    H131763   2.061   2.821   4.160  1.4753 -1.4410 -0.1690
 3424TIP3    H231764   2.134   2.882   4.278 -1.6421  2.0464  0.1510
 3425TIP3   OH231765   2.834   2.743   3.597 -0.1721 -0.5073 -0.4083
 3425TIP3    H131766   2.888   2.821   3.582 -0.7394  0.2570  1.2827
 3425TIP3    H231767   2.744   2.776   3.599 -0.6136 -1.5386 -1.6991
 3426TIP3   OH231768   4.493   4.687  11.532  0.1228 -0.1095  0.1841
 3426TIP3    H131769   4.528   4.746  11.465 -0.5199 -0.0504 -0.1108
 3426TIP3    H231770   4.402   4.670  11.504 -0.4446  0.6062  1.4967
 3427TIP3   OH231771   0.333   2.615   1.137  0.1060  0.1206 -0.4823
 3427TIP3    H131772   0.238   2.610   1.153  0.4613  0.9690  2.4254
 3427TIP3    H231773   0.361   2.523   1.137 -0.7278 -0.1671 -1.8072
 3428TIP3   OH231774   1.072   1.535  11.647 -0.0743 -0.0080 -0.6781
 3428TIP3    H131775   1.001   1.513  11.587 -0.6753 -3.0848  1.0034
 3428TIP3    H231776   1.119   1.453  11.661  1.3045  1.0470  1.4735
 3429TIP3   OH231777   3.918   3.292   0.270 -0.0145  0.0135  0.0321
 3429TIP3    H131778   3.968   3.347   0.209  2.7373 -0.0815  2.0271
 3429TIP3    H231779   3.951   3.316   0.356 -2.2123 -1.4023  1.3587
 3430TIP3   OH231780   1.222   4.821  10.606  0.1739 -0.5774  0.4607
 3430TIP3    H131781   1.194   4.884  10.540  0.5594 -2.0716 -1.1898
 3430TIP3    H231782   1.316   4.811  10.592  0.1297 -1.4742  0.7207
 3431TIP3   OH231783   0.060   2.575   1.167 -0.6047  0.4443  0.3457
 3431TIP3    H131784   0.000   2.593   1.239 -1.0635 -1.3348  0.4630
 3431TIP3    H231785   0.004   2.574   1.089 -0.9690 -2.0922  0.5580
 3432TIP3   OH231786   0.558   2.619   3.368  0.0097  0.0418  0.0172
 3432TIP3    H131787   0.503   2.655   3.437  0.7384 -0.2690  0.7898
 3432TIP3    H231788   0.640   2.596   3.413  0.2875 -0.6989 -0.8387
 3433TIP3   OH231789   3.019   1.098  13.154  0.8121  0.1596 -0.0477
 3433TIP3    H131790   3.004   1.145  13.236 -1.4331  2.4720 -1.6270
 3433TIP3    H231791   3.094   1.144  13.114  3.1058 -2.0975  1.3439
 3434TIP3   OH231792   4.101   5.170  14.550 -0.2569  0.1328  0.2582
 3434TIP3    H131793   4.015   5.163  14.591 -0.3648 -1.1968 -0.1517
 3434TIP3    H231794   4.085   5.212  14.466 -0.3830  0.6424  0.5351
 3435TIP3   OH231795   4.613   1.387  16.268  0.0032 -0.5974 -0.4235
 3435TIP3    H131796   4.654   1.447  16.205 -2.1935  0.1167 -1.2739
 3435TIP3    H231797   4.520   1.389  16.245 -0.8358 -0.6321  2.6151
 3436TIP3   OH231798   6.345   3.555  15.472 -0.2010 -0.3737 -0.6524
 3436TIP3    H131799   6.286   3.612  15.521  0.1824  0.8282 -1.5322
 3436TIP3    H231800   6.420   3.542  15.529 -0.1087  0.3640 -0.5935
 3437TIP3   OH231801   6.137   5.971  14.498  0.2940 -0.5032 -0.7642
 3437TIP3    H131802   6.230   5.994  14.492  0.3716 -0.3877  0.7182
 3437TIP3    H231803   6.136   5.892  14.552 -0.6862  1.2643  1.9592
 3438TIP3   OH231804   2.912   4.756   3.425 -0.9207  0.4683 -0.1442
 3438TIP3    H131805   2.889   4.764   3.333 -0.7605 -0.8541 -0.3230
 3438TIP3    H231806   2.861   4.681   3.456 -1.5181  1.3197  1.0383
 3439TIP3   OH231807   6.243   5.352   1.868 -0.4071 -0.0094 -0.1693
 3439TIP3    H131808   6.233   5.355   1.773 -3.5114  1.1060  0.0648
 3439TIP3    H231809   6.153   5.361   1.901  0.7779  2.0977  2.8685
 3440TIP3   OH231810   2.479   2.658   5.197 -0.4046  0.1963 -0.1479
 3440TIP3    H131811   2.422   2.674   5.272 -1.4217 -1.9919 -0.3663
 3440TIP3    H231812   2.567   2.680   5.228 -1.1597  2.4116  0.6001
 3441TIP3   OH231813   6.439   4.426   2.589 -0.2331  0.0355 -0.2718
 3441TIP3    H131814   6.491   4.379   2.654  0.1151 -0.5558 -0.9683
 3441TIP3    H231815   6.477   4.514   2.588  1.8820 -0.7942 -1.9097
 3442TIP3   OH231816   6.258   4.903  12.575  0.2904  0.0274  0.3201
 3442TIP3    H131817   6.244   4.822  12.624 -0.3219 -0.4699 -0.6365
 3442TIP3    H231818   6.324   4.951  12.626  0.9080 -1.2158  0.7461
 3443TIP3   OH231819   0.312   5.896  15.308 -0.0682 -0.3317 -0.2201
 3443TIP3    H131820   0.280   5.857  15.389  1.7092 -2.3353 -0.3951
 3443TIP3    H231821   0.365   5.827  15.268  0.8221  1.3322 -2.0535
 3444TIP3   OH231822   2.192   1.058  11.269  0.1238 -0.3088  0.4120
 3444TIP3    H131823   2.140   1.060  11.189  2.4498 -0.2500 -1.1863
 3444TIP3    H231824   2.154   1.126  11.325  0.1276  1.6216 -1.7908
 3445TIP3   OH231825   6.114   2.531   4.080 -0.2407 -0.5712  0.2752
 3445TIP3    H131826   6.122   2.622   4.054 -0.7939 -0.8647 -1.0507
 3445TIP3    H231827   6.141   2.482   4.002  0.8258 -1.5519  1.2305
 3446TIP3   OH231828   1.164   0.174  11.618 -0.2230  0.5910 -0.6513
 3446TIP3    H131829   1.121   0.167  11.703  1.4599  0.3788  0.2254
 3446TIP3    H231830   1.227   0.246  11.628  0.3107  0.2732 -1.5745
 3447TIP3   OH231831   6.194   2.198  15.248  0.2400  0.1783  0.7080
 3447TIP3    H131832   6.133   2.251  15.196 -0.9862 -0.8315  1.0499
 3447TIP3    H231833   6.140   2.164  15.319  1.3975 -0.1858  1.4259
 3448TIP3   OH231834   4.772   4.288  13.726  0.0687  0.5181  0.0758
 3448TIP3    H131835   4.759   4.310  13.819  0.5859 -0.7985  0.4914
 3448TIP3    H231836   4.847   4.341  13.699  1.0218 -0.3618  0.9196
 3449TIP3   OH231837   2.357   2.790   2.089 -0.4002 -0.3149 -0.0722
 3449TIP3    H131838   2.356   2.710   2.036 -0.7800 -0.3075 -0.0785
 3449TIP3    H231839   2.315   2.765   2.171  0.0660 -0.2904  0.1808
 3450TIP3   OH231840   3.734   3.192   2.114  0.1655  0.0365  0.5478
 3450TIP3    H131841   3.750   3.175   2.207  0.5103 -0.0173  0.4817
 3450TIP3    H231842   3.819   3.220   2.080 -0.0315  0.3682  0.3156
 3451TIP3   OH231843   6.705   0.332  14.636  0.1193  0.1588  0.4749
 3451TIP3    H131844   6.736   0.422  14.625 -0.4730  0.2639 -0.4910
 3451TIP3    H231845   6.715   0.293  14.549  1.4117 -1.0601  1.1354
 3452TIP3   OH231846   5.865   1.296   0.535  0.0638  0.0809  0.2423
 3452TIP3    H131847   5.810   1.312   0.611 -2.2716  1.4552 -1.5653
 3452TIP3    H231848   5.950   1.331   0.559 -0.4334 -0.0950  2.4152
 3453TIP3   OH231849   3.275   0.986  13.702 -0.0908 -0.3857 -0.0580
 3453TIP3    H131850   3.328   0.982  13.781  0.3261  1.5835 -0.1673
 3453TIP3    H231851   3.318   0.927  13.641  0.8024 -0.3473  0.5169
 3454TIP3   OH231852   6.533   1.259  11.760  0.4192  0.3008 -0.0093
 3454TIP3    H131853   6.460   1.320  11.751 -0.3786 -0.5112  0.7193
 3454TIP3    H231854   6.518   1.193  11.692  0.8866  0.5181 -0.3315
 3455TIP3   OH231855   1.365   1.477   5.751  0.3050  0.6181  0.1649
 3455TIP3    H131856   1.397   1.399   5.706 -1.2764  0.4709 -0.7704
 3455TIP3    H231857   1.443   1.531   5.764  1.0178  0.0482 -1.5206
 3456TIP3   OH231858   5.166   0.956  16.571 -0.1119  0.2020  0.1873
 3456TIP3    H131859   5.152   0.861  16.579 -0.5984  0.1654 -0.9374
 3456TIP3    H231860   5.193   0.983  16.659 -5.0577 -0.1197  2.1191
 3457TIP3   OH231861   5.495   1.837   4.862  0.1465 -0.2762 -0.6893
 3457TIP3    H131862   5.571   1.798   4.906 -0.1385 -0.6201 -0.5069
 3457TIP3    H231863   5.505   1.812   4.770  0.5650  0.1674 -0.7717
 3458TIP3   OH231864   1.360   2.657  14.090 -0.3119 -0.3883  0.4970
 3458TIP3    H131865   1.311   2.715  14.032 -0.8902  1.1551  2.4273
 3458TIP3    H231866   1.412   2.602  14.031 -0.0529  1.8063 -1.4405
 3459TIP3   OH231867   2.464   5.894   5.686 -0.1590 -0.1275  0.5468
 3459TIP3    H131868   2.404   5.855   5.748  2.5457 -1.3548  2.5972
 3459TIP3    H231869   2.539   5.922   5.739  1.4315  0.6266 -1.9036
 3460TIP3   OH231870   0.627   2.604   3.992 -0.8638 -0.1162 -0.4536
 3460TIP3    H131871   0.632   2.676   4.055  0.2172  0.1117 -0.7779
 3460TIP3    H231872   0.713   2.562   3.998 -0.4717  0.3420 -2.2852
 3461TIP3   OH231873   2.003   4.930  17.061 -0.5966  0.6501 -0.2823
 3461TIP3    H131874   1.998   4.860  17.126 -1.1187  0.6329 -0.3345
 3461TIP3    H231875   2.079   4.907  17.007  1.2489  1.8668  1.6690
 3462TIP3   OH231876   6.177   0.175  13.259  0.1380 -0.0713  0.0432
 3462TIP3    H131877   6.147   0.237  13.192  0.7645  0.0434 -0.1398
 3462TIP3    H231878   6.213   0.102  13.209 -1.0860 -0.8484  0.2492
 3463TIP3   OH231879   4.713   2.842   1.890  0.6804 -0.0280  0.1136
 3463TIP3    H131880   4.746   2.754   1.874  0.0596 -0.2088 -0.2421
 3463TIP3    H231881   4.758   2.897   1.826  0.6354 -0.1926 -0.0606
 3464TIP3   OH231882   0.957   1.971   5.320  0.1578  0.5697 -0.2225
 3464TIP3    H131883   1.019   1.904   5.348 -0.7521 -0.1310  0.1876
 3464TIP3    H231884   0.978   1.987   5.228  0.6490  0.0220 -0.2091
 3465TIP3   OH231885   1.133   5.115  16.566  0.3255  0.0709 -0.2458
 3465TIP3    H131886   1.054   5.061  16.570  0.1364  0.2426 -1.3685
 3465TIP3    H231887   1.148   5.129  16.472  2.2000 -0.7179 -0.1196
 3466TIP3   OH231888   0.069   6.614  12.190  0.2018 -0.6073  0.8721
 3466TIP3    H131889   0.009   6.541  12.172  1.8976 -1.8430 -0.0542
 3466TIP3    H231890   0.075   6.661  12.107 -1.9598  1.5264  1.8087
 3467TIP3   OH231891   2.103   4.726  15.161 -0.0439  0.2525 -0.1937
 3467TIP3    H131892   2.162   4.796  15.187  1.1116 -0.7917  0.0772
 3467TIP3    H231893   2.015   4.762  15.175  0.5291  1.1513  1.2631
 3468TIP3   OH231894   1.985   4.321   0.375  0.5553  0.0014  0.3550
 3468TIP3    H131895   1.920   4.279   0.318  0.5124  0.7148 -0.1258
 3468TIP3    H231896   1.975   4.415   0.359  0.6541  0.2063  1.4223
 3469TIP3   OH231897   4.016   1.455  16.613  0.6119 -0.0506 -0.1392
 3469TIP3    H131898   4.019   1.531  16.554  0.9272 -0.9959 -1.3759
 3469TIP3    H231899   3.999   1.381  16.556 -2.2669 -0.6551  1.3480
 3470TIP3   OH231900   1.283   3.784   4.920 -0.9726 -0.5772  0.4503
 3470TIP3    H131901   1.294   3.751   4.831 -0.7965 -1.6560  0.8492
 3470TIP3    H231902   1.370   3.775   4.959 -1.2338 -0.9004  0.9706
 3471TIP3   OH231903   2.906   5.165   5.429  0.7881  0.0910  0.3037
 3471TIP3    H131904   2.860   5.240   5.390  0.6646 -0.3715 -0.4545
 3471TIP3    H231905   2.854   5.089   5.402 -0.6947 -0.1143  3.3144
 3472TIP3   OH231906   3.346   2.541   5.758  0.2882 -0.0595  0.2813
 3472TIP3    H131907   3.342   2.531   5.663 -1.6127 -0.5636  0.3683
 3472TIP3    H231908   3.427   2.589   5.774  0.1604  0.8875 -1.6662
 3473TIP3   OH231909   4.202   4.547  12.347  0.1301 -0.2280  0.1615
 3473TIP3    H131910   4.143   4.590  12.285  1.6579  0.6903 -0.7276
 3473TIP3    H231911   4.268   4.506  12.292  1.6982  0.8554  1.1452
 3474TIP3   OH231912   0.725   4.800  11.408  0.2147  0.2896  0.1022
 3474TIP3    H131913   0.732   4.760  11.321 -2.4630  0.4483 -0.2762
 3474TIP3    H231914   0.792   4.868  11.408  1.9229 -1.3073 -0.8740
 3475TIP3   OH231915   6.115   3.533  17.214 -0.1865 -0.0357 -1.0254
 3475TIP3    H131916   6.120   3.486  17.297 -0.9099  1.1206 -0.2998
 3475TIP3    H231917   6.088   3.466  17.151  4.4617 -2.0206 -1.3534
 3476TIP3   OH231918   3.001   2.392  15.434  0.4555 -0.1941 -0.7854
 3476TIP3    H131919   3.029   2.398  15.343 -0.7505  0.8358 -1.1123
 3476TIP3    H231920   3.006   2.298  15.454  1.1876 -0.3796 -1.7453
 3477TIP3   OH231921   6.317   2.815   4.410  0.0306  0.1882 -0.8829
 3477TIP3    H131922   6.231   2.858   4.407  0.0666  0.2748 -0.6983
 3477TIP3    H231923   6.296   2.722   4.413 -0.1370  0.2487  1.4928
 3478TIP3   OH231924   0.312   2.385  13.789 -0.3031 -0.0460 -0.8560
 3478TIP3    H131925   0.265   2.465  13.764 -2.5486 -0.8544  0.5140
 3478TIP3    H231926   0.271   2.316  13.737 -0.6107 -0.7775  0.3342
 3479TIP3   OH231927   3.742   3.626   4.345 -0.0320  0.1500  0.1976
 3479TIP3    H131928   3.801   3.551   4.354  1.2378  1.1992  0.9124
 3479TIP3    H231929   3.780   3.678   4.273 -0.5306  0.4309  0.1347
 3480TIP3   OH231930   4.483   4.056   0.736 -0.4099 -0.0987 -0.5168
 3480TIP3    H131931   4.522   4.115   0.671  0.9335 -0.5247 -0.1334
 3480TIP3    H231932   4.390   4.055   0.715 -0.0660  0.0811 -2.1967
 3481TIP3   OH231933   2.060   0.079  12.259 -0.6391 -0.2843  0.0959
 3481TIP3    H131934   2.103   0.065  12.174  1.1434  0.1148  0.8851
 3481TIP3    H231935   2.095   0.009  12.314  0.4805  1.1622  1.2787
 3482TIP3   OH231936   1.917   5.154   5.871  0.4385 -0.4643  0.0933
 3482TIP3    H131937   1.952   5.233   5.830 -1.8642 -1.0820 -3.4670
 3482TIP3    H231938   1.828   5.177   5.895 -0.3767 -1.9810 -1.2802
 3483TIP3   OH231939   0.526   2.395   0.299  0.0088  0.0073  0.3123
 3483TIP3    H131940   0.599   2.456   0.301  0.0820 -0.0193 -1.0912
 3483TIP3    H231941   0.544   2.333   0.370  1.3327  0.0125 -0.0059
 3484TIP3   OH231942   4.741   3.177   1.575 -0.6217 -0.3827 -0.2308
 3484TIP3    H131943   4.666   3.139   1.528 -0.7800  0.7015 -0.8820
 3484TIP3    H231944   4.810   3.181   1.509 -1.3448  2.7159 -0.9476
 3485TIP3   OH231945   2.403   4.901  11.644  0.1111 -0.4841  0.0575
 3485TIP3    H131946   2.400   4.897  11.740  1.6926  2.6862  0.4000
 3485TIP3    H231947   2.322   4.946  11.619  0.3511 -0.0206  0.0896
 3486TIP3   OH231948   3.762   5.665   6.457 -0.2512 -1.2615 -0.0409
 3486TIP3    H131949   3.761   5.571   6.438  1.7337 -0.8654 -2.6568
 3486TIP3    H231950   3.695   5.701   6.398  0.3000 -0.8630 -0.4342
 3487TIP3   OH231951   5.495   5.758  17.043 -0.0389 -0.3106  0.0324
 3487TIP3    H131952   5.544   5.706  17.107 -0.0190 -1.1444 -0.6452
 3487TIP3    H231953   5.557   5.824  17.012  0.1128 -0.2451  0.4711
 3488TIP3   OH231954   1.762   1.974   2.704 -0.2249  0.1979  0.0779
 3488TIP3    H131955   1.711   2.027   2.643 -1.1211 -2.5899 -1.8417
 3488TIP3    H231956   1.698   1.913   2.741  1.1198 -1.2272  0.1633
 3489TIP3   OH231957   0.374   5.542  15.542  0.1958 -0.2010 -0.0786
 3489TIP3    H131958   0.284   5.573  15.543  0.5213  0.8205  1.1030
 3489TIP3    H231959   0.368   5.447  15.532 -0.9518 -0.0284 -1.1594
 3490TIP3   OH231960   4.901   3.243   6.377 -0.3824 -0.0057  0.6742
 3490TIP3    H131961   4.867   3.332   6.368  2.2843  0.9644 -1.6140
 3490TIP3    H231962   4.842   3.200   6.438 -1.3576  3.5421  2.4889
 3491TIP3   OH231963   0.370   3.579  15.182 -0.2421  0.1719  0.0165
 3491TIP3    H131964   0.284   3.602  15.146 -0.9575 -0.5613  1.1614
 3491TIP3    H231965   0.408   3.519  15.118 -0.8948 -0.0306 -0.1877
 3492TIP3   OH231966   2.556   5.171   4.035  0.0240  0.2992 -0.0173
 3492TIP3    H131967   2.521   5.260   4.037 -0.3762  0.2039 -1.4388
 3492TIP3    H231968   2.608   5.168   3.954 -1.3306 -1.2433 -0.8877
 3493TIP3   OH231969   1.258   3.346  12.862  0.7713 -0.1054 -0.2617
 3493TIP3    H131970   1.260   3.255  12.832 -0.0883 -0.3144  0.2616
 3493TIP3    H231971   1.242   3.340  12.956 -1.8243  0.5752 -0.5696
 3494TIP3   OH231972   0.164   0.474   3.374 -0.2101  0.3993 -0.7641
 3494TIP3    H131973   0.185   0.547   3.431  1.0321  0.4292 -1.2411
 3494TIP3    H231974   0.184   0.396   3.426 -5.0813  0.1296  1.2225
 3495TIP3   OH231975   3.758   6.060   6.251 -0.0247  0.0181  0.3418
 3495TIP3    H131976   3.722   5.987   6.201 -0.7349  0.4292  0.2374
 3495TIP3    H231977   3.710   6.057   6.334 -0.5277  0.7487  0.0893
 3496TIP3   OH231978   5.052   1.444   4.318  0.2113  0.5115  0.1422
 3496TIP3    H131979   5.126   1.504   4.327  0.8837 -0.2894  0.1056
 3496TIP3    H231980   5.086   1.360   4.350 -1.2268  0.5240  1.8973
 3497TIP3   OH231981   4.459   1.704   5.554  0.3950 -0.0990 -0.3567
 3497TIP3    H131982   4.468   1.610   5.569 -1.4889 -0.5211 -1.6513
 3497TIP3    H231983   4.374   1.726   5.591  0.1773  0.8047 -1.3713
 3498TIP3   OH231984   4.552   3.886   5.649  0.4641  0.0311 -0.2141
 3498TIP3    H131985   4.610   3.864   5.722  0.0886 -0.8974 -0.1840
 3498TIP3    H231986   4.465   3.890   5.688  0.2769 -0.3424 -0.5803
 3499TIP3   OH231987   4.035   1.340  13.687 -0.1352 -0.0450 -0.5862
 3499TIP3    H131988   3.973   1.278  13.648 -0.9072  0.6701 -0.5377
 3499TIP3    H231989   3.984   1.420  13.699  0.6144  0.3420  0.1271
 3500TIP3   OH231990   5.171   0.926   0.620 -0.4595  0.5562  0.2527
 3500TIP3    H131991   5.179   0.847   0.567  0.6820 -0.9325  2.4544
 3500TIP3    H231992   5.106   0.903   0.687  1.7798  0.4319  2.5102
 3501TIP3   OH231993   1.435   5.847  13.266 -0.6699 -0.0859 -0.0443
 3501TIP3    H131994   1.500   5.842  13.336  0.6705 -0.3256 -1.2559
 3501TIP3    H231995   1.426   5.757  13.235 -1.3270  0.0028 -0.1361
 3502TIP3   OH231996   2.176   1.625  15.673 -0.8094  0.0669  0.4720
 3502TIP3    H131997   2.211   1.714  15.676  0.7153 -0.4930  0.1540
 3502TIP3    H231998   2.223   1.584  15.600 -1.2985 -1.0733  0.7915
 3503TIP3   OH231999   1.636   5.998  14.366  0.5238  0.1200  0.3851
 3503TIP3    H132000   1.586   6.050  14.304  1.3982  0.9536  0.3541
 3503TIP3    H232001   1.666   5.922  14.316  0.1887  0.1630  0.1190
 3504TIP3   OH232002   2.951   2.256  13.335  0.1254  0.0903  0.6217
 3504TIP3    H132003   2.900   2.209  13.402 -1.2383  1.6369  0.7420
 3504TIP3    H232004   2.894   2.255  13.258  0.6367  0.4350  0.2406
 3505TIP3   OH232005   6.215   6.760  13.484  0.0961 -0.2161  0.1303
 3505TIP3    H132006   6.165   6.829  13.443 -0.5969 -1.0101 -0.3924
 3505TIP3    H232007   6.245   6.705  13.412  0.0743 -0.8276  0.5693
 3506TIP3   OH232008   4.248   5.045   4.212  0.1291  0.6729 -0.2902
 3506TIP3    H132009   4.329   5.068   4.167 -0.2224  0.0581 -1.2792
 3506TIP3    H232010   4.188   5.020   4.141 -1.1797  1.8640  0.3479
 3507TIP3   OH232011   5.405   6.134   4.059  0.0480 -0.6088  0.2815
 3507TIP3    H132012   5.340   6.186   4.011  0.0946  0.9782  1.8165
 3507TIP3    H232013   5.382   6.147   4.151  1.9025 -0.8544  0.8202
 3508TIP3   OH232014   2.955   6.670  12.911 -0.0382  0.1966  0.0247
 3508TIP3    H132015   2.893   6.724  12.958 -1.4760  1.0915 -2.6689
 3508TIP3    H232016   3.021   6.645  12.976 -1.1254  2.4299  2.1012
 3509TIP3   OH232017   2.308   6.127  16.553  0.0929  0.0206  0.1252
 3509TIP3    H132018   2.325   6.212  16.513 -0.0552  0.6710  1.4139
 3509TIP3    H232019   2.395   6.090  16.567  0.1945  0.3772  0.4442
 3510TIP3   OH232020   4.906   6.199   2.813  0.5541 -0.2903 -0.3818
 3510TIP3    H132021   4.835   6.226   2.755  0.7192  1.3607  0.1270
 3510TIP3    H232022   4.863   6.147   2.882 -0.1444  0.5391 -0.1739
 3511TIP3   OH232023   5.212   2.478   2.826 -0.3717 -0.2779  0.1293
 3511TIP3    H132024   5.268   2.407   2.793  1.8503  0.9263  1.0909
 3511TIP3    H232025   5.191   2.453   2.916 -1.4084 -0.7300 -0.2327
 3512TIP3   OH232026   3.219   2.239   3.963  0.6911 -0.7408  0.0500
 3512TIP3    H132027   3.206   2.232   4.058  0.5368 -1.6206 -0.0277
 3512TIP3    H232028   3.171   2.164   3.927 -0.4838  0.3936 -0.8397
 3513TIP3   OH232029   3.142   2.952  13.701 -0.3228  0.0227 -0.1165
 3513TIP3    H132030   3.112   3.031  13.747  1.3624  1.7445 -1.7743
 3513TIP3    H232031   3.162   2.890  13.771  1.4638  2.2637  1.5381
 3514TIP3   OH232032   4.347   1.855  13.177  0.1256 -0.7396  0.3965
 3514TIP3    H132033   4.344   1.879  13.085 -2.7721  1.4271  0.8997
 3514TIP3    H232034   4.267   1.804  13.192  0.2204 -0.5322  1.8265
 3515TIP3   OH232035   6.711   5.877   4.791 -0.5021  0.0933 -0.0672
 3515TIP3    H132036   6.626   5.910   4.822 -0.0885  0.3295  0.8595
 3515TIP3    H232037   6.769   5.889   4.866  0.7167  1.2880 -1.1700
 3516TIP3   OH232038   1.669   1.091   5.306  0.2348 -0.3368  0.2484
 3516TIP3    H132039   1.665   1.121   5.215 -0.7605  0.0018  0.3913
 3516TIP3    H232040   1.621   1.008   5.305 -0.4306  0.0424  0.6067
 3517TIP3   OH232041   5.562   3.297   4.290 -0.2534  0.4512 -0.0305
 3517TIP3    H132042   5.640   3.322   4.339  0.3346 -0.6332 -0.3931
 3517TIP3    H232043   5.489   3.320   4.348  0.3288  1.3780  0.3536
 3518TIP3   OH232044   1.853   4.234  11.912  0.3881 -0.6614  0.2651
 3518TIP3    H132045   1.795   4.200  11.979  1.9830 -0.1402  1.9859
 3518TIP3    H232046   1.902   4.304  11.955  2.0213 -0.8440 -1.1911
 3519TIP3   OH232047   6.733   4.438   2.440 -0.5782 -0.1035 -0.2072
 3519TIP3    H132048   6.654   4.471   2.397 -1.2101 -1.2048  0.0696
 3519TIP3    H232049   6.708   4.353   2.475  0.4010  0.0397  0.9217
 3520TIP3   OH232050   1.050   0.347   5.818  0.4266 -0.1594  0.2759
 3520TIP3    H132051   1.009   0.265   5.845 -2.9360  1.4275  0.4776
 3520TIP3    H232052   1.055   0.341   5.723 -0.6033 -0.2491  0.2256
 3521TIP3   OH232053   2.133   6.231   4.161 -0.2909  0.2370  0.1343
 3521TIP3    H132054   2.047   6.249   4.200  0.1009 -0.3863  1.3345
 3521TIP3    H232055   2.133   6.282   4.080 -2.0145 -0.2003 -0.1846
 3522TIP3   OH232056   1.400   0.975   3.837 -0.0507  0.3089 -0.3091
 3522TIP3    H132057   1.349   0.898   3.863  0.2699 -0.0365 -0.6834
 3522TIP3    H232058   1.401   0.972   3.741  0.8280  0.2011 -0.3030
 3523TIP3   OH232059   1.135   4.342   6.354  0.2318 -0.6801 -0.2043
 3523TIP3    H132060   1.218   4.372   6.392  0.0644  0.9014 -1.0183
 3523TIP3    H232061   1.145   4.247   6.346  2.0650 -0.4858 -0.5309
 3524TIP3   OH232062   4.760   4.657   4.326  0.6031 -0.1470 -0.5101
 3524TIP3    H132063   4.833   4.596   4.336 -0.1010 -0.5869  4.0770
 3524TIP3    H232064   4.683   4.600   4.315  0.4726  0.1650 -1.2662
 3525TIP3   OH232065   0.863   1.241  16.632  0.2250  0.3113  0.1653
 3525TIP3    H132066   0.796   1.269  16.695 -0.2984 -0.5318 -0.0009
 3525TIP3    H232067   0.886   1.321  16.584 -1.9526  0.3215 -0.9901
 3526TIP3   OH232068   0.851   6.212  13.324 -0.3036  0.5634  0.0683
 3526TIP3    H132069   0.860   6.305  13.342  1.7860  0.4608 -0.2058
 3526TIP3    H232070   0.804   6.208  13.241  0.4850  1.4178 -0.4346
 3527TIP3   OH232071   1.043   0.157   2.991  0.4356 -0.3545 -0.6341
 3527TIP3    H132072   1.027   0.220   2.921  1.2695  0.5901 -0.0043
 3527TIP3    H232073   1.117   0.194   3.040 -0.5317 -0.6582  1.1224
 3528TIP3   OH232074   4.088   5.802   3.787  0.2677  0.0899 -0.0673
 3528TIP3    H132075   4.008   5.781   3.835  1.1427  0.2704  1.4992
 3528TIP3    H232076   4.058   5.857   3.714 -1.0003  0.3117  0.6016
 3529TIP3   OH232077   0.253   0.864  12.966 -0.1177 -0.6277 -0.3982
 3529TIP3    H132078   0.265   0.954  12.997  0.4510 -0.9972  0.5113
 3529TIP3    H232079   0.340   0.837  12.936 -0.4770 -0.5836 -1.5211
 3530TIP3   OH232080   5.612   2.529  11.429  0.7588  0.1442  0.3540
 3530TIP3    H132081   5.637   2.528  11.336 -0.6886 -2.2015 -0.0838
 3530TIP3    H232082   5.613   2.622  11.452  1.3010  0.7890 -1.9737
 3531TIP3   OH232083   5.259   3.865   2.237  0.3702  0.4411  0.3235
 3531TIP3    H132084   5.203   3.788   2.230 -1.1846  1.6515 -2.1877
 3531TIP3    H232085   5.249   3.894   2.328  1.9124 -2.8256  1.6996
 3532TIP3   OH232086   2.979   5.380  16.270 -0.5972  0.1293  0.3526
 3532TIP3    H132087   3.049   5.409  16.328 -1.5314  0.0655  1.5430
 3532TIP3    H232088   3.018   5.383  16.182  0.5975  0.9831  0.8844
 3533TIP3   OH232089   3.225   5.376  12.658  0.1145  0.3981 -0.0524
 3533TIP3    H132090   3.315   5.370  12.627  0.6113 -1.5750  1.5642
 3533TIP3    H232091   3.196   5.285  12.668 -2.7591  0.8990 -2.2766
 3534TIP3   OH232092   2.530   0.334  12.766  0.3122 -0.3547  0.1927
 3534TIP3    H132093   2.603   0.354  12.825  0.0266 -0.9649  0.7656
 3534TIP3    H232094   2.474   0.411  12.772  0.6601 -0.0905  0.1319
 3535TIP3   OH232095   6.795   1.177   0.374 -0.0169  0.1612 -0.1076
 3535TIP3    H132096   6.711   1.133   0.361  0.3063 -0.7949  0.8532
 3535TIP3    H232097   6.834   1.181   0.287 -0.4579 -0.6583 -0.3518
 3536TIP3   OH232098   1.203   0.728   1.303  0.6293  0.3476 -0.2812
 3536TIP3    H132099   1.147   0.748   1.227 -0.0047  2.4639  0.6515
 3536TIP3    H232100   1.153   0.663   1.352  0.9019 -0.8141 -1.4888
 3537TIP3   OH232101   5.747   5.976  12.768 -0.3037 -0.3827 -0.8689
 3537TIP3    H132102   5.666   6.001  12.723 -2.5800  0.4689  3.2081
 3537TIP3    H232103   5.757   6.042  12.837  3.0532 -1.4008 -0.2084
 3538TIP3   OH232104   2.002   1.524  12.421 -0.0562  0.0370 -0.0657
 3538TIP3    H132105   2.028   1.612  12.396  0.9135  0.3658  1.9039
 3538TIP3    H232106   2.064   1.499  12.489 -0.5217 -2.0416 -0.3326
 3539TIP3   OH232107   2.811   6.259   5.577 -0.0544  0.6764  0.1554
 3539TIP3    H132108   2.818   6.184   5.637  0.1462  0.5821  0.0164
 3539TIP3    H232109   2.790   6.221   5.492 -1.6267  0.9051  0.4111
 3540TIP3   OH232110   3.797   4.530   2.687  0.3567  0.3222 -0.2158
 3540TIP3    H132111   3.790   4.446   2.641  0.3303  0.2329 -0.0466
 3540TIP3    H232112   3.770   4.595   2.622 -1.6953  0.0366  0.3031
 3541TIP3   OH232113   2.116   0.231   1.295  0.0915  0.0639  0.2827
 3541TIP3    H132114   2.137   0.246   1.387  0.2415  1.0435  0.1002
 3541TIP3    H232115   2.155   0.146   1.275  1.1157  0.3977  0.7990
 3542TIP3   OH232116   5.119   4.649  11.942 -0.0130  0.0491 -0.0094
 3542TIP3    H132117   5.085   4.588  12.007 -1.5175  1.6394  0.7734
 3542TIP3    H232118   5.202   4.680  11.979  0.3775 -0.9217 -0.0546
 3543TIP3   OH232119   0.214   1.578   1.671 -0.4814 -0.2163 -0.2999
 3543TIP3    H132120   0.232   1.531   1.753 -1.2078  1.6625  1.0118
 3543TIP3    H232121   0.130   1.543   1.642 -0.1346 -1.0260 -0.3474
 3544TIP3   OH232122   3.225   0.546  10.728 -0.5486  0.4992  0.3172
 3544TIP3    H132123   3.262   0.519  10.644 -0.8190  0.4955  0.2000
 3544TIP3    H232124   3.234   0.641  10.728 -0.6499  0.5086  0.2380
 3545TIP3   OH232125   4.922   3.140   4.379  0.4924 -0.0260  0.3906
 3545TIP3    H132126   4.919   3.049   4.351  1.8177  0.2016 -0.6025
 3545TIP3    H232127   4.958   3.137   4.467  2.7824 -0.3680 -0.4877
 3546TIP3   OH232128   3.760   6.699   2.084 -0.1708 -0.9838 -0.0758
 3546TIP3    H132129   3.783   6.652   2.164 -2.2439  0.0723  1.2152
 3546TIP3    H232130   3.669   6.676   2.068 -0.7752  1.3239 -0.2892
 3547TIP3   OH232131   1.336   3.572   2.207  0.2286  0.5814 -0.2607
 3547TIP3    H132132   1.399   3.509   2.171  0.2527 -1.0062  2.2940
 3547TIP3    H232133   1.382   3.612   2.281 -1.0565  0.8408  0.4293
 3548TIP3   OH232134   3.222   6.343  11.014 -0.0820  0.1823  0.3039
 3548TIP3    H132135   3.240   6.431  11.046  0.4153  0.9193 -1.8252
 3548TIP3    H232136   3.302   6.318  10.967 -0.3406 -1.2840  0.5995
 3549TIP3   OH232137   3.718   5.169  15.270  0.2134 -0.3500  0.8067
 3549TIP3    H132138   3.661   5.194  15.197 -0.1196 -0.8227  0.8982
 3549TIP3    H232139   3.805   5.158  15.230  0.1038 -0.2733  0.5434
 3550TIP3   OH232140   6.334   5.028   3.418  0.1867  0.0844  0.3472
 3550TIP3    H132141   6.393   5.084   3.469  0.5743 -0.7898  0.8821
 3550TIP3    H232142   6.280   4.984   3.483  1.4927 -1.9518  0.1523
 3551TIP3   OH232143   4.353   6.080   4.130  0.2325  0.1485 -0.8754
 3551TIP3    H132144   4.328   6.100   4.039 -0.9675  2.5606 -0.0951
 3551TIP3    H232145   4.379   6.165   4.166  1.8841 -0.9691  0.7364
 3552TIP3   OH232146   1.968   5.040  15.386 -0.1881  0.0371 -0.6841
 3552TIP3    H132147   1.903   5.072  15.323 -0.5102  0.6134 -0.0755
 3552TIP3    H232148   2.016   5.118  15.413 -0.3663 -0.1248  0.1325
 3553TIP3   OH232149   1.745   0.696  16.583  0.3387  0.2742  0.2883
 3553TIP3    H132150   1.712   0.746  16.657 -0.7382  0.8355 -0.5563
 3553TIP3    H232151   1.780   0.762  16.522 -0.1867 -0.0502 -0.3845
 3554TIP3   OH232152   3.940   6.523  11.018  0.0697  0.6361 -0.0723
 3554TIP3    H132153   3.996   6.473  10.959 -1.4089 -1.1484 -0.0584
 3554TIP3    H232154   3.925   6.606  10.972  0.3659 -0.0091 -1.3873
 3555TIP3   OH232155   1.439   3.832   1.977  0.0368 -0.0572  0.0817
 3555TIP3    H132156   1.462   3.752   1.930 -0.7312  0.5759 -1.4235
 3555TIP3    H232157   1.519   3.855   2.025  0.5596 -1.2174 -0.1986
 3556TIP3   OH232158   4.698   4.903  13.010  0.6651 -0.2340 -0.4121
 3556TIP3    H132159   4.777   4.893  12.958  0.8169  0.8586 -0.4065
 3556TIP3    H232160   4.634   4.844  12.969  0.6726  0.8472 -2.0586
 3557TIP3   OH232161   6.147   0.256  11.432 -0.3779  0.4847 -0.0834
 3557TIP3    H132162   6.151   0.291  11.521 -4.0714  1.1285 -0.0101
 3557TIP3    H232163   6.157   0.161  11.443 -0.0720  0.6187  0.9212
 3558TIP3   OH232164   5.346   3.532  11.716 -0.3967 -0.5666  0.5057
 3558TIP3    H132165   5.293   3.460  11.749 -0.4057 -1.1228 -0.6944
 3558TIP3    H232166   5.311   3.609  11.762 -0.7007 -1.2409  1.4421
 3559TIP3   OH232167   2.548   3.475   1.922  0.5220  0.1418 -0.2756
 3559TIP3    H132168   2.518   3.505   1.836  2.5412 -0.2767 -1.1816
 3559TIP3    H232169   2.468   3.464   1.973 -0.7029  0.7363 -1.9949
 3560TIP3   OH232170   3.010   4.391   3.265 -0.1963  0.6034  0.5657
 3560TIP3    H132171   3.033   4.482   3.283 -1.3155  0.8528  0.8214
 3560TIP3    H232172   3.047   4.373   3.178  0.7438  1.0359  0.8740
 3561TIP3   OH232173   5.349   3.776  13.541 -0.5600  0.3041 -0.0861
 3561TIP3    H132174   5.391   3.809  13.461  0.7811  0.3436  0.6015
 3561TIP3    H232175   5.332   3.684  13.522 -2.0517  0.7643 -1.1111
 3562TIP3   OH232176   2.014   4.986  16.430  0.1086  0.4976  0.3489
 3562TIP3    H132177   2.089   4.997  16.488 -0.7975 -0.8448  1.8306
 3562TIP3    H232178   1.997   4.892  16.430 -0.1686  0.4809 -1.8431
 3563TIP3   OH232179   1.032   4.266   1.556  0.1671 -0.0527  0.3409
 3563TIP3    H132180   1.055   4.260   1.464  0.4366 -0.4978  0.4293
 3563TIP3    H232181   1.115   4.256   1.602  0.0770  0.4879  0.6248
 3564TIP3   OH232182   0.006   0.502   2.612 -0.1450 -0.8067 -0.6489
 3564TIP3    H132183   0.055   0.579   2.584  0.3878 -1.0973 -0.5160
 3564TIP3    H232184   0.072   0.441   2.644 -0.7206 -0.3078  1.7191
 3565TIP3   OH232185   0.410   5.322   3.811  0.1180 -0.0333 -0.0940
 3565TIP3    H132186   0.348   5.308   3.740  0.4077 -1.3620 -0.1092
 3565TIP3    H232187   0.494   5.335   3.767  0.4032 -1.4254 -0.0198
 3566TIP3   OH232188   6.390   2.133   5.108  0.1138  0.5141 -0.6006
 3566TIP3    H132189   6.382   2.056   5.165 -0.1018  2.3192  1.9300
 3566TIP3    H232190   6.483   2.136   5.086  0.4429  0.4601  0.6961
 3567TIP3   OH232191   4.900   0.400  12.201  0.4280  0.0872  0.4847
 3567TIP3    H132192   4.850   0.463  12.253 -1.4924 -0.3213 -0.7624
 3567TIP3    H232193   4.883   0.426  12.110  0.6900 -1.4075 -0.0139
 3568TIP3   OH232194   2.381   1.576   1.327  0.1023  0.4029 -0.4393
 3568TIP3    H132195   2.296   1.530   1.330  0.0525  0.3545 -1.8034
 3568TIP3    H232196   2.429   1.531   1.258  0.0775  2.3375 -1.7958
 3569TIP3   OH232197   6.049   3.765   1.982  0.2022 -0.2978 -0.1395
 3569TIP3    H132198   6.073   3.737   2.070 -0.1148  2.2181  0.8244
 3569TIP3    H232199   5.957   3.740   1.973 -0.0848  0.4245  0.7004
 3570TIP3   OH232200   6.073   1.509  16.115  0.1038  0.3681 -0.1572
 3570TIP3    H132201   6.066   1.576  16.047 -1.4955 -0.3970 -0.8049
 3570TIP3    H232202   5.990   1.462  16.110  1.5939 -2.4329 -0.5729
 3571TIP3   OH232203   5.097   4.672  16.455  0.0216  0.3976 -0.0009
 3571TIP3    H132204   5.127   4.722  16.530  0.4829  2.2821 -1.3573
 3571TIP3    H232205   5.003   4.689  16.450  0.1202  0.8754 -0.2681
 3572TIP3   OH232206   5.414   4.449  13.287 -0.6638 -0.1625  0.5963
 3572TIP3    H132207   5.371   4.489  13.211 -2.4238 -0.0264  1.6125
 3572TIP3    H232208   5.429   4.358  13.261 -1.2188 -0.1127  0.0711
 3573TIP3   OH232209   5.441   0.247   3.811  0.0010 -0.4957 -0.3664
 3573TIP3    H132210   5.444   0.152   3.821 -0.5309 -0.5376 -0.5975
 3573TIP3    H232211   5.348   0.268   3.799  0.1122  0.0520 -0.3226
 3574TIP3   OH232212   3.806   4.811  11.426 -0.5232  0.5156  0.1454
 3574TIP3    H132213   3.826   4.888  11.479  1.6715 -0.6994  1.2258
 3574TIP3    H232214   3.890   4.785  11.389 -1.2522 -1.2256 -0.3838
 3575TIP3   OH232215   1.909   6.064  13.719  0.3934 -0.4526  0.1702
 3575TIP3    H132216   1.820   6.031  13.732  0.5438 -1.3468 -0.9595
 3575TIP3    H232217   1.919   6.132  13.786 -1.1076 -0.3904  0.3672
 3576TIP3   OH232218   2.328   6.142   3.900 -0.1671 -0.1291 -0.4546
 3576TIP3    H132219   2.309   6.072   3.962  2.6176 -0.6899 -0.0790
 3576TIP3    H232220   2.244   6.163   3.860 -2.0130 -0.0162  3.1712
 3577TIP3   OH232221   2.496   3.391  11.435  0.2840  0.4602 -0.5148
 3577TIP3    H132222   2.545   3.312  11.409  0.9164  0.3245  1.0090
 3577TIP3    H232223   2.405   3.370  11.414  0.5712 -0.2585 -1.0984
 3578TIP3   OH232224   5.465   2.809  17.201  0.0329 -0.1836 -0.2017
 3578TIP3    H132225   5.396   2.873  17.217 -0.9739 -1.1080 -0.7159
 3578TIP3    H232226   5.521   2.849  17.134 -0.4885  0.2169 -0.3977
 3579TIP3   OH232227   3.903   3.267  13.599 -0.1603  0.2816 -0.2927
 3579TIP3    H132228   3.931   3.176  13.604 -1.0001  0.0189 -0.2528
 3579TIP3    H232229   3.889   3.293  13.690  2.7699  1.3513 -0.0179
 3580TIP3   OH232230   4.626   0.076  16.998 -0.3616  0.6854 -0.9382
 3580TIP3    H132231   4.656   0.159  17.035 -0.5917 -0.7460  2.9227
 3580TIP3    H232232   4.531   0.077  17.013 -0.3109 -0.3963 -0.4505
 3581TIP3   OH232233   3.097   2.107  12.996 -0.1339  0.0043  0.0624
 3581TIP3    H132234   3.092   2.156  12.913  0.3939 -1.1732 -0.6974
 3581TIP3    H232235   3.191   2.100  13.013 -0.2225 -0.3862  0.3867
 3582TIP3   OH232236   6.143   6.728   5.812 -0.3202 -0.1113 -0.5500
 3582TIP3    H132237   6.201   6.737   5.888  1.8780 -2.0176 -1.8628
 3582TIP3    H232238   6.064   6.687   5.847  0.6714 -1.0258  0.7193
 3583TIP3   OH232239   4.158   2.467  16.200  0.1076  0.1228  0.1024
 3583TIP3    H132240   4.145   2.415  16.121 -1.4939  0.2779  0.2167
 3583TIP3    H232241   4.116   2.415  16.269  1.1720  0.1604  0.7990
 3584TIP3   OH232242   2.852   1.373  16.873 -0.1564  0.3555  0.3189
 3584TIP3    H132243   2.867   1.290  16.828  0.8546  0.4107  0.5391
 3584TIP3    H232244   2.840   1.437  16.803  1.1512  0.3966  0.1104
 3585TIP3   OH232245   3.353   5.529   3.037  0.5554 -0.5099 -0.9942
 3585TIP3    H132246   3.328   5.552   3.126  0.5851  0.3486 -1.1997
 3585TIP3    H232247   3.314   5.443   3.022  1.0948 -0.9599  0.0716
 3586TIP3   OH232248   1.939   1.694  10.802 -0.0402  0.0733  0.0571
 3586TIP3    H132249   1.902   1.779  10.776  0.1200  0.2774  0.4804
 3586TIP3    H232250   2.017   1.717  10.853  0.9512 -0.3686 -1.2157
 3587TIP3   OH232251   5.517   2.120   2.495 -0.3286 -0.0916  0.6204
 3587TIP3    H132252   5.527   2.148   2.586  0.3900 -0.7892  0.7781
 3587TIP3    H232253   5.474   2.193   2.451 -1.1742  0.0386  1.6336
 3588TIP3   OH232254   1.225   1.961   1.966  0.6227 -0.1289  0.0271
 3588TIP3    H132255   1.244   2.023   1.896 -0.4685  0.0968 -0.0854
 3588TIP3    H232256   1.207   1.878   1.921 -1.1213  0.2655 -0.0609
 3589TIP3   OH232257   5.986   5.170  11.264 -0.0882  0.5901  0.1253
 3589TIP3    H132258   5.920   5.134  11.205  0.3538 -1.2265  0.6728
 3589TIP3    H232259   6.000   5.259  11.233 -2.0278  0.6739 -0.6413
 3590TIP3   OH232260   2.684   2.150  11.567 -0.2940  0.5229  0.1800
 3590TIP3    H132261   2.636   2.068  11.560 -0.9916  0.9779 -0.6191
 3590TIP3    H232262   2.690   2.167  11.661 -2.8621  1.0790  0.3165
 3591TIP3   OH232263   0.634   1.931  11.088  0.8144 -0.0385 -0.4430
 3591TIP3    H132264   0.603   1.948  10.999  0.5813  0.5795 -0.2515
 3591TIP3    H232265   0.644   2.018  11.127 -1.7236 -0.2896  1.0127
 3592TIP3   OH232266   5.171   4.086   3.220  0.6551 -0.2174 -0.6533
 3592TIP3    H132267   5.099   4.143   3.247  1.2049  0.2369 -0.1063
 3592TIP3    H232268   5.146   4.055   3.133 -0.7117 -0.9401 -0.0399
 3593TIP3   OH232269   3.648   6.164  12.494 -0.0570 -0.2576  0.1537
 3593TIP3    H132270   3.557   6.135  12.493  0.0924 -0.7681 -1.4046
 3593TIP3    H232271   3.653   6.230  12.424  0.7365 -0.1168  0.3335
 3594TIP3   OH232272   6.357   1.025  12.198  0.0992  0.1393 -0.2353
 3594TIP3    H132273   6.356   1.116  12.226  0.3534 -0.3219  1.3573
 3594TIP3    H232274   6.265   0.998  12.201  0.2455 -0.2281  1.3005
 3595TIP3   OH232275   6.286   4.316   4.480  0.5945 -0.3357  0.4347
 3595TIP3    H132276   6.333   4.323   4.563 -0.2566 -0.4124  0.9357
 3595TIP3    H232277   6.348   4.273   4.421  1.5335  0.5143  0.7614
 3596TIP3   OH232278   1.333   0.136   1.906  0.1474 -0.1400 -0.1923
 3596TIP3    H132279   1.374   0.223   1.912  3.6679 -1.6059 -0.7525
 3596TIP3    H232280   1.294   0.134   1.819 -1.1343  1.2402  0.2920
 3597TIP3   OH232281   2.763   1.371  12.794 -0.4244 -0.1586  0.1037
 3597TIP3    H132282   2.701   1.440  12.767 -0.5116  0.3604  1.5250
 3597TIP3    H232283   2.787   1.328  12.713 -0.0538  1.8235 -0.9087
 3598TIP3   OH232284   1.046   4.533   3.199  0.0321  0.1255  0.1038
 3598TIP3    H132285   1.102   4.499   3.268 -1.6909 -1.1059  0.9588
 3598TIP3    H232286   1.043   4.628   3.215  0.0020 -0.0893  1.4510
 3599TIP3   OH232287   5.420   4.870   3.124  0.7524 -0.6014 -0.4724
 3599TIP3    H132288   5.343   4.834   3.168  0.5501  0.1407 -0.2113
 3599TIP3    H232289   5.389   4.897   3.038  1.0073 -1.4579 -0.8437
 3600TIP3   OH232290   0.734   0.305   1.733  0.2092  0.3812 -0.3858
 3600TIP3    H132291   0.659   0.304   1.793  0.7601 -1.0244  0.3267
 3600TIP3    H232292   0.707   0.248   1.661 -0.3986  1.9638 -1.4524
 3601TIP3   OH232293   5.973   3.855   5.885 -0.0659  0.1096 -0.0827
 3601TIP3    H132294   5.999   3.910   5.959 -0.6807 -1.6393  1.5398
 3601TIP3    H232295   5.882   3.833   5.903  0.7675 -3.3597  0.7713
 3602TIP3   OH232296   5.472   0.041  16.598  0.1707  0.5409  0.2561
 3602TIP3    H132297   5.475   0.109  16.666 -1.5749  0.2779  0.6649
 3602TIP3    H232298   5.479  -0.042  16.647 -2.4857  0.2886  0.3682
 3603TIP3   OH232299   0.517   5.875   5.527 -0.5954 -0.6230  0.1856
 3603TIP3    H132300   0.432   5.878   5.569 -0.3887  0.6932  0.5415
 3603TIP3    H232301   0.563   5.804   5.572 -0.6237  0.2981  1.7429
 3604TIP3   OH232302   5.709   4.846  12.046 -0.1035  0.1119  0.7608
 3604TIP3    H132303   5.764   4.922  12.027 -0.0255  0.2706  1.5945
 3604TIP3    H232304   5.768   4.771  12.041  0.4668  0.3855  2.7894
 3605TIP3   OH232305   2.646   3.870  15.491  0.0096  0.9484 -0.3321
 3605TIP3    H132306   2.666   3.777  15.493  2.3862  1.1408 -4.1909
 3605TIP3    H232307   2.700   3.908  15.560 -0.6962 -0.4142  1.0220
 3606TIP3   OH232308   2.416   0.550   0.207  0.0387 -0.6708  0.1117
 3606TIP3    H132309   2.419   0.644   0.224 -1.3471 -0.7707  1.1557
 3606TIP3    H232310   2.323   0.532   0.193  0.4505 -1.6562 -1.6094
 3607TIP3   OH232311   4.249   5.745  15.369 -0.3996 -0.1636  0.5608
 3607TIP3    H132312   4.245   5.701  15.454 -2.6391 -0.5212  0.3214
 3607TIP3    H232313   4.164   5.727  15.328 -0.2017  1.8090 -0.8629
 3608TIP3   OH232314   5.226   4.208   5.165 -0.1166  0.4800  0.3685
 3608TIP3    H132315   5.301   4.235   5.113  1.1803  1.1952  2.4706
 3608TIP3    H232316   5.176   4.149   5.108  1.3444  0.9805 -1.5138
 3609TIP3   OH232317   1.739   4.930  16.408 -0.8746 -0.2769 -0.0830
 3609TIP3    H132318   1.722   4.923  16.501 -0.4638  1.9326  0.2222
 3609TIP3    H232319   1.826   4.969  16.402 -1.4970  1.0275 -1.3284
 3610TIP3   OH232320   2.899   4.942  13.517  0.3669  0.2916 -0.5855
 3610TIP3    H132321   2.859   5.026  13.541 -2.1769 -0.9103 -0.3644
 3610TIP3    H232322   2.906   4.945  13.422 -1.2860  0.1334 -0.7359
 3611TIP3   OH232323   3.133   3.113   1.002 -1.0792  0.3287  0.0727
 3611TIP3    H132324   3.142   3.173   0.928  0.2936  1.1608  0.8694
 3611TIP3    H232325   3.061   3.149   1.053  0.3534  1.9634  1.0696
 3612TIP3   OH232326   0.718   1.251   5.832 -0.1288 -0.5279 -0.0191
 3612TIP3    H132327   0.689   1.196   5.905 -1.2665 -0.7343 -0.6047
 3612TIP3    H232328   0.715   1.340   5.867 -0.4924 -0.6384  0.2350
 3613TIP3   OH232329   0.367   6.138  15.866  1.0294 -0.1753  0.1135
 3613TIP3    H132330   0.350   6.083  15.790  3.2023 -0.5574 -0.1582
 3613TIP3    H232331   0.296   6.203  15.864 -0.0132 -1.2839 -1.1468
 3614TIP3   OH232332   3.465   2.836  13.879  0.2423  0.0209 -0.3961
 3614TIP3    H132333   3.492   2.777  13.949 -1.1542 -2.2586 -1.6894
 3614TIP3    H232334   3.516   2.808  13.803  0.1510  1.0382 -0.8482
 3615TIP3   OH232335   5.425   5.809   2.372 -0.5857  0.1706 -0.2737
 3615TIP3    H132336   5.415   5.798   2.277  1.8948  0.0832 -0.5936
 3615TIP3    H232337   5.387   5.730   2.410 -2.4738  0.6259 -1.0824
 3616TIP3   OH232338   4.282   5.095   2.896  0.5809  0.3209  0.2364
 3616TIP3    H132339   4.318   5.180   2.872 -0.9357  0.6496 -1.0453
 3616TIP3    H232340   4.269   5.100   2.991 -0.2246  1.8333  0.0729
 3617TIP3   OH232341   6.524   4.233   0.818 -0.1919  0.0329  0.0222
 3617TIP3    H132342   6.478   4.254   0.899  0.6562 -0.3561  0.6285
 3617TIP3    H232343   6.481   4.154   0.785 -1.1095  0.6877 -0.3900
 3618TIP3   OH232344   6.784   5.527  12.446 -0.2053  0.8946  0.6640
 3618TIP3    H132345   6.715   5.471  12.482  0.8073  0.2960  1.7630
 3618TIP3    H232346   6.760   5.539  12.354 -0.1231 -2.0050  0.1383
 3619TIP3   OH232347   6.499   6.021  15.859 -0.3734  0.0040  0.3439
 3619TIP3    H132348   6.463   6.101  15.821 -1.5255 -0.0213  1.2817
 3619TIP3    H232349   6.438   5.952  15.831 -0.3804 -0.2474  0.9603
 3620TIP3   OH232350   2.129   1.452  12.142  0.6509  1.4666  0.4928
 3620TIP3    H132351   2.113   1.396  12.218  2.8452  2.3479  1.6845
 3620TIP3    H232352   2.062   1.425  12.078  0.8575 -1.6833  1.4309
 3621TIP3   OH232353   5.597   2.078   1.922 -0.3752  0.1681  0.4876
 3621TIP3    H132354   5.515   2.096   1.968 -0.4198 -0.6746  0.7579
 3621TIP3    H232355   5.600   2.143   1.852 -2.2965 -1.0362 -0.8112
 3622TIP3   OH232356   3.483   3.984   0.610 -0.6262 -0.0292 -0.4635
 3622TIP3    H132357   3.559   3.968   0.554  0.8267  2.0845  0.7849
 3622TIP3    H232358   3.429   4.046   0.562 -0.8113 -0.3862 -0.7170
 3623TIP3   OH232359   4.624   2.623   2.393  0.1877 -0.1689  0.2864
 3623TIP3    H132360   4.705   2.582   2.424 -0.4444 -0.8353  1.1332
 3623TIP3    H232361   4.556   2.561   2.419 -0.5599  0.1823 -0.7809
 3624TIP3   OH232362   6.097   5.512   5.688 -0.4713 -0.1212 -0.7152
 3624TIP3    H132363   6.150   5.490   5.765 -2.1881 -0.0989  0.5207
 3624TIP3    H232364   6.112   5.440   5.627 -0.3261 -0.9833  0.3088
 3625TIP3   OH232365   4.489   3.914   0.463 -0.0360 -0.2193 -0.5241
 3625TIP3    H132366   4.572   3.896   0.418  0.6473 -0.2763  0.7117
 3625TIP3    H232367   4.470   4.006   0.443  1.0088  0.1772  0.2128
 3626TIP3   OH232368   2.446   2.936  10.294 -0.1343 -0.5629 -0.1197
 3626TIP3    H132369   2.519   2.996  10.280 -1.0326  0.9756  1.3955
 3626TIP3    H232370   2.370   2.984  10.261 -0.7235 -1.3508  0.0705
 3627TIP3   OH232371   3.367   3.911   3.646  0.3098 -0.4495  0.3001
 3627TIP3    H132372   3.336   3.859   3.720 -0.1819 -0.7241 -0.0908
 3627TIP3    H232373   3.328   3.997   3.659  0.4619 -0.4120  0.5146
 3628TIP3   OH232374   6.051   5.986  13.645  0.5973  0.4148  0.3195
 3628TIP3    H132375   5.964   5.962  13.613 -0.0437  1.9190  0.8765
 3628TIP3    H232376   6.101   6.006  13.566 -0.1229  1.3354  0.0821
 3629TIP3   OH232377   1.103   4.641   3.504  0.2111 -0.1135 -0.0903
 3629TIP3    H132378   1.105   4.643   3.599 -1.5004 -3.3413  0.1772
 3629TIP3    H232379   1.101   4.547   3.482  0.4605  0.5068 -3.2997
 3630TIP3   OH232380   3.845   5.375  13.362 -0.0872  0.4839  0.4611
 3630TIP3    H132381   3.913   5.413  13.418 -0.8046 -0.0201  1.7244
 3630TIP3    H232382   3.808   5.450  13.315 -0.7196  1.2477  2.0693
 3631TIP3   OH232383   0.195   5.881   0.767 -0.3156 -0.4573  0.0561
 3631TIP3    H132384   0.281   5.890   0.726 -1.3876  0.1788 -2.2085
 3631TIP3    H232385   0.213   5.849   0.855  2.2500  0.0784 -0.2156
 3632TIP3   OH232386   1.504   2.256   3.856  0.4548 -0.3986  0.2546
 3632TIP3    H132387   1.528   2.180   3.910  0.3812 -0.4603  0.2010
 3632TIP3    H232388   1.587   2.288   3.821  0.5646 -0.0180  0.8546
 3633TIP3   OH232389   0.728   6.652  14.896 -0.6432  0.2990  0.0899
 3633TIP3    H132390   0.754   6.563  14.874 -0.8708  0.2205  0.1331
 3633TIP3    H232391   0.809   6.695  14.923 -0.0300  0.9009 -2.5156
 3634TIP3   OH232392   6.037   3.104  17.239 -0.1465 -0.5824  0.1280
 3634TIP3    H132393   6.108   3.167  17.248  1.3756 -2.2524  0.4349
 3634TIP3    H232394   6.056   3.058  17.157 -0.6515 -1.3092  0.4070
 3635TIP3   OH232395   3.015   1.597   2.493 -0.4931 -0.4573  0.3082
 3635TIP3    H132396   2.942   1.636   2.540  0.0283  0.6261  0.2512
 3635TIP3    H232397   3.025   1.652   2.415 -0.7608 -1.6795 -0.6199
 3636TIP3   OH232398   3.922   6.130   4.089  0.3173 -0.2496  0.1644
 3636TIP3    H132399   3.979   6.055   4.101 -1.1619 -1.6097 -0.8468
 3636TIP3    H232400   3.854   6.099   4.029 -1.7160  1.1329  1.6023
 3637TIP3   OH232401   0.876   3.495  15.547  0.2401  0.5802  0.3184
 3637TIP3    H132402   0.805   3.437  15.575  1.2498  0.0105  1.8616
 3637TIP3    H232403   0.854   3.520  15.458 -0.2954 -2.1252 -0.3954
 3638TIP3   OH232404   0.714   0.318  16.128  0.0065  0.7224 -0.3497
 3638TIP3    H132405   0.801   0.340  16.095  1.0555 -1.9658  0.3422
 3638TIP3    H232406   0.656   0.383  16.089  2.0586  1.5317 -2.2615
 3639TIP3   OH232407   3.960   0.793   3.273  0.3604 -0.1802 -0.5487
 3639TIP3    H132408   4.019   0.847   3.326 -0.3375 -0.1048  0.1645
 3639TIP3    H232409   4.018   0.746   3.213  1.1436 -0.1371  0.1608
 3640TIP3   OH232410   0.824   0.961   4.403  0.0683 -0.4433 -0.7172
 3640TIP3    H132411   0.744   0.909   4.412  0.4672 -0.7251  1.7035
 3640TIP3    H232412   0.813   1.006   4.319 -0.6061 -3.8217 -2.6215
 3641TIP3   OH232413   5.669   0.963  15.098  0.1090  0.3704  0.4579
 3641TIP3    H132414   5.594   0.917  15.061  0.1082  1.7788 -1.4864
 3641TIP3    H232415   5.737   0.956  15.030  1.2217  0.4094  1.5354
 3642TIP3   OH232416   5.166   6.733   3.876 -0.1609  0.2744 -0.0428
 3642TIP3    H132417   5.073   6.716   3.859  0.1428 -1.5510  0.0031
 3642TIP3    H232418   5.192   6.667   3.940  0.6169  2.2609  1.8381
 3643TIP3   OH232419   3.845   2.058  12.697 -0.1815  0.1119 -1.0464
 3643TIP3    H132420   3.759   2.024  12.673  0.0535 -0.6878 -0.7847
 3643TIP3    H232421   3.848   2.050  12.793 -0.2418  1.1790 -0.9394
 3644TIP3   OH232422   0.979   4.631   3.802 -0.2210  0.7760 -0.5024
 3644TIP3    H132423   0.923   4.560   3.768  1.6756 -1.3027  0.4248
 3644TIP3    H232424   0.944   4.649   3.889  0.4972 -0.5979  0.1199
 3645TIP3   OH232425   0.741   0.883  17.180 -0.7132  0.0777 -0.3170
 3645TIP3    H132426   0.711   0.794  17.166  0.8625 -0.3275 -1.3489
 3645TIP3    H232427   0.833   0.883  17.152 -0.4024  1.7965  0.5174
 3646TIP3   OH232428   1.815   5.914   0.350  0.0853  0.2626 -0.2309
 3646TIP3    H132429   1.840   5.833   0.394 -2.5590 -0.4046  0.2000
 3646TIP3    H232430   1.877   5.979   0.384  1.8576 -1.3806 -0.0947
 3647TIP3   OH232431   3.424   4.605   4.563 -0.2908  0.0045  0.3879
 3647TIP3    H132432   3.400   4.546   4.491  1.0653 -0.1775  0.0581
 3647TIP3    H232433   3.432   4.547   4.639  0.3420 -0.1380  0.2182
 3648TIP3   OH232434   6.023   6.117   4.741  0.2875 -0.1690 -0.3093
 3648TIP3    H132435   5.949   6.116   4.681  0.7024 -2.5479 -0.8774
 3648TIP3    H232436   6.082   6.183   4.705 -1.2132  1.2811 -0.2231
 3649TIP3   OH232437   2.452   2.013  15.382  0.4602 -0.0134 -0.2552
 3649TIP3    H132438   2.498   2.093  15.409 -2.2249  1.3963  0.5340
 3649TIP3    H232439   2.402   2.039  15.306  0.7069 -1.4211 -0.9282
 3650TIP3   OH232440   4.427   0.423  13.808  0.3065  0.4091 -0.2542
 3650TIP3    H132441   4.504   0.391  13.760 -0.2691  0.9264 -1.5882
 3650TIP3    H232442   4.354   0.404  13.750 -0.3310  1.7739  0.0564
 3651TIP3   OH232443   4.167   6.396   5.295  0.1395  0.0683  0.3128
 3651TIP3    H132444   4.133   6.412   5.383 -0.9006 -0.5420  0.0422
 3651TIP3    H232445   4.133   6.310   5.272 -0.8710  0.8504 -1.2734
 3652TIP3   OH232446   1.056   0.894   1.889  0.1053  0.0848 -0.5253
 3652TIP3    H132447   0.986   0.926   1.832 -2.7645  0.0315  2.6439
 3652TIP3    H232448   1.062   0.800   1.870  0.6215  0.4025 -2.0424
 3653TIP3   OH232449   6.133   6.145  14.102 -0.0218 -0.0824  0.0764
 3653TIP3    H132450   6.144   6.054  14.132  1.2589 -0.2772 -0.8687
 3653TIP3    H232451   6.200   6.194  14.150 -0.2388  0.2408  0.0523
 3654TIP3   OH232452   3.489   4.329  15.637 -0.2310  0.3086 -0.3870
 3654TIP3    H132453   3.412   4.370  15.599  0.2834 -0.0261 -1.8708
 3654TIP3    H232454   3.455   4.263  15.697 -1.1384 -0.6360 -1.8910
 3655TIP3   OH232455   1.907   1.056   2.109  0.1397  0.0168  0.1827
 3655TIP3    H132456   1.876   1.143   2.085 -1.4492 -0.1170  1.6410
 3655TIP3    H232457   1.971   1.035   2.040 -0.1203  1.9203 -0.7248
 3656TIP3   OH232458   3.151   4.522  14.414  0.1115  0.0927 -0.1090
 3656TIP3    H132459   3.085   4.456  14.391 -1.9312  1.7058  0.8503
 3656TIP3    H232460   3.137   4.592  14.351  0.8651  0.5204  0.1875
 3657TIP3   OH232461   2.733   4.338   0.993  0.1361  0.2459  0.8220
 3657TIP3    H132462   2.815   4.293   0.974  1.2819  2.7687 -0.5562
 3657TIP3    H232463   2.719   4.397   0.919 -3.9923 -1.3997 -0.0385
 3658TIP3   OH232464   5.170   2.654  11.436  0.1715  0.2557 -0.6394
 3658TIP3    H132465   5.143   2.563  11.421  0.7315 -0.8508  3.7989
 3658TIP3    H232466   5.264   2.649  11.450  0.2258  1.5741 -0.4264
 3659TIP3   OH232467   4.800   6.077   6.111  0.0450  0.3702  0.0229
 3659TIP3    H132468   4.878   6.021   6.108 -1.5916 -2.0778  0.2056
 3659TIP3    H232469   4.831   6.162   6.080  2.1660 -1.2460 -2.8221
 3660TIP3   OH232470   0.303   2.985   5.384  0.3448  0.4578  0.0544
 3660TIP3    H132471   0.339   3.032   5.309 -0.6337  0.2573 -0.5556
 3660TIP3    H232472   0.246   3.049   5.428  0.7282  0.5016  0.4968
 3661TIP3   OH232473   1.681   5.872   2.896 -0.0917 -0.8652  0.6139
 3661TIP3    H132474   1.616   5.830   2.952 -0.4819  0.1535  0.9524
 3661TIP3    H232475   1.765   5.857   2.941 -0.2461 -1.1289  0.8149
 3662TIP3   OH232476   6.180   2.974  12.928  0.0926 -0.0798 -0.5271
 3662TIP3    H132477   6.103   2.926  12.896  1.1574 -0.8927 -2.0138
 3662TIP3    H232478   6.214   2.921  13.000  0.9082 -1.3276 -1.7684
 3663TIP3   OH232479   5.896   2.227   4.514 -0.5503  0.3727 -0.9549
 3663TIP3    H132480   5.886   2.232   4.609  0.3412  0.7016 -0.8752
 3663TIP3    H232481   5.866   2.139   4.492  2.3583 -0.9990  0.0647
 3664TIP3   OH232482   1.068   2.827   5.619  0.6121  0.1882  0.0157
 3664TIP3    H132483   1.053   2.850   5.710 -1.0075 -0.8167  0.0397
 3664TIP3    H232484   1.048   2.907   5.570  0.4426  0.4244  0.4703
 3665TIP3   OH232485   5.379   3.588   6.534 -0.3171 -0.1181  0.1967
 3665TIP3    H132486   5.313   3.520   6.521  0.1229  0.0054 -5.1793
 3665TIP3    H232487   5.460   3.540   6.550 -0.8015 -0.5375  1.4660
 3666TIP3   OH232488   5.573   3.851  12.197 -0.0122 -0.1128  0.1350
 3666TIP3    H132489   5.640   3.914  12.224 -1.6679  1.9873 -0.4575
 3666TIP3    H232490   5.541   3.813  12.279 -0.2780  1.2101  0.6644
 3667TIP3   OH232491   4.520   6.275  14.657  0.3038  0.1856 -0.1016
 3667TIP3    H132492   4.519   6.224  14.738  0.4048 -0.1871 -0.3321
 3667TIP3    H232493   4.586   6.343  14.672 -0.1967  0.5725  0.4000
 3668TIP3   OH232494   6.147   3.608   2.204  0.0034  0.3997  0.3021
 3668TIP3    H132495   6.196   3.680   2.246  1.1166  0.9790 -1.8508
 3668TIP3    H232496   6.214   3.559   2.156 -1.2838  0.2700 -1.4382
 3669TIP3   OH232497   4.975   0.977   3.040  0.5630 -0.1072  0.7600
 3669TIP3    H132498   4.881   0.988   3.027  0.7010 -0.0357 -0.1896
 3669TIP3    H232499   4.982   0.904   3.102 -0.0614 -2.0180 -1.2990
 3670TIP3   OH232500   3.435   5.581   3.351 -0.4225 -0.1672 -0.2131
 3670TIP3    H132501   3.497   5.544   3.415  0.7795  0.7006 -0.8444
 3670TIP3    H232502   3.354   5.532   3.367 -0.2259  0.1188  2.0851
 3671TIP3   OH232503   1.521   4.280  11.600 -0.0014 -0.4770  0.1473
 3671TIP3    H132504   1.544   4.194  11.565  0.5720  0.1092 -0.9423
 3671TIP3    H232505   1.599   4.333  11.586 -1.0223  0.7780 -1.0502
 3672TIP3   OH232506   0.851   5.350  15.111 -0.0100  0.0187 -0.2356
 3672TIP3    H132507   0.808   5.431  15.138 -1.0034  0.2283 -2.2555
 3672TIP3    H232508   0.783   5.302  15.065  0.2658 -2.4866  1.7633
 3673TIP3   OH232509   3.208   5.707   2.527 -0.3586 -0.0255  0.2794
 3673TIP3    H132510   3.119   5.737   2.506 -0.6853 -1.9839 -1.5463
 3673TIP3    H232511   3.195   5.621   2.567  0.7053 -0.0217  0.6576
 3674TIP3   OH232512   1.968   0.578  16.132 -0.2792  0.0164 -0.0749
 3674TIP3    H132513   1.939   0.668  16.118  1.9161  0.5122 -2.1190
 3674TIP3    H232514   1.906   0.525  16.084  0.5577  0.8214 -2.1514
 3675TIP3   OH232515   4.978   4.758  10.540 -0.2037 -0.3600  0.2390
 3675TIP3    H132516   4.891   4.731  10.511 -0.0502 -0.9201  0.2779
 3675TIP3    H232517   5.035   4.686  10.512  0.2254 -0.0532  0.3189
 3676TIP3   OH232518   3.686   5.268  11.819  0.2745  0.0203  0.2550
 3676TIP3    H132519   3.769   5.315  11.816  1.3425 -1.5968  2.1899
 3676TIP3    H232520   3.622   5.333  11.849  0.8119  1.2453 -1.1383
 3677TIP3   OH232521   5.918   5.015  14.570  0.3155  0.3530 -0.4101
 3677TIP3    H132522   5.829   4.982  14.564  0.9027 -1.7612  1.2504
 3677TIP3    H232523   5.926   5.051  14.658  0.6426  2.1803 -1.1292
 3678TIP3   OH232524   3.381   2.492  10.447 -0.8008 -0.8870  0.1738
 3678TIP3    H132525   3.323   2.543  10.390 -0.7523  0.6611  1.4290
 3678TIP3    H232526   3.469   2.518  10.419 -0.7685  0.6342  1.4886
 3679TIP3   OH232527   3.863   5.928  10.853 -0.8791  0.5767 -0.3639
 3679TIP3    H132528   3.777   5.953  10.819 -0.6634 -0.2181 -1.5724
 3679TIP3    H232529   3.888   5.851  10.801 -1.1263 -1.6246  2.5426
 3680TIP3   OH232530   6.358   6.048   3.078 -0.0984  0.1305  0.1364
 3680TIP3    H132531   6.421   6.011   3.139 -0.6954  0.4454  0.9507
 3680TIP3    H232532   6.398   6.034   2.992 -0.0249 -1.8607  0.4485
 3681TIP3   OH232533   1.726   5.966   3.205 -0.1748  0.4439  0.0467
 3681TIP3    H132534   1.768   6.036   3.255  1.2933 -1.0179  0.9564
 3681TIP3    H232535   1.637   5.997   3.191  0.0881  1.9740  1.4434
 3682TIP3   OH232536   3.639   6.269  15.615  0.4499  0.0003  0.6959
 3682TIP3    H132537   3.728   6.264  15.578  0.4157 -1.2230  0.7343
 3682TIP3    H232538   3.585   6.220  15.552 -0.1411  0.4585  0.8433
 3683TIP3   OH232539   5.124   2.002  11.005 -0.0934 -0.0295 -0.2177
 3683TIP3    H132540   5.107   2.082  10.955  0.1831  1.4971  2.0134
 3683TIP3    H232541   5.166   1.944  10.942 -0.6796  1.3915 -2.0343
 3684TIP3   OH232542   3.961   2.371   1.402  0.1525 -0.0601 -0.5337
 3684TIP3    H132543   3.957   2.276   1.400  0.1864 -0.2128  2.4992
 3684TIP3    H232544   4.040   2.392   1.451  0.7721  1.6037 -2.1081
 3685TIP3   OH232545   6.672   4.291  15.454  0.6309 -0.5661 -0.2626
 3685TIP3    H132546   6.657   4.198  15.439  0.3847 -0.4690 -0.6148
 3685TIP3    H232547   6.669   4.300  15.549 -1.0462 -0.6416 -0.2840
 3686TIP3   OH232548   6.162   0.263   1.675  0.5963  0.2950  0.8388
 3686TIP3    H132549   6.151   0.216   1.757 -0.5132 -0.2878  0.3722
 3686TIP3    H232550   6.179   0.354   1.701 -1.8150  0.5708  1.7261
 3687TIP3   OH232551   4.720   1.253  12.330 -0.2477  0.0933  0.4551
 3687TIP3    H132552   4.795   1.238  12.387  0.4865 -1.2108 -0.7884
 3687TIP3    H232553   4.721   1.347  12.313 -0.2182  0.4345  2.1814
 3688TIP3   OH232554   5.722   1.735  16.920 -0.1591 -0.1971 -0.2456
 3688TIP3    H132555   5.721   1.829  16.936 -0.1813 -0.3620  0.7757
 3688TIP3    H232556   5.815   1.711  16.920 -0.0802  0.0015 -1.7123
 3689TIP3   OH232557   6.494   2.674  14.008  0.5122 -0.3673  0.2368
 3689TIP3    H132558   6.486   2.581  13.988 -1.8103 -0.6492  2.1051
 3689TIP3    H232559   6.424   2.692  14.071 -0.1756  2.9905 -1.2373
 3690TIP3   OH232560   1.844   2.926  13.008 -0.1834  0.0661  0.6567
 3690TIP3    H132561   1.792   2.899  13.084  1.1484 -0.9300  1.2419
 3690TIP3    H232562   1.886   3.007  13.036 -0.3998  0.1847  0.6432
 3691TIP3   OH232563   4.291   4.380  11.641 -0.1209  0.2476 -0.1366
 3691TIP3    H132564   4.343   4.307  11.608 -0.9235 -0.4664  0.1246
 3691TIP3    H232565   4.351   4.455  11.639  0.5453 -0.2803 -0.9619
 3692TIP3   OH232566   4.557   4.291   2.907  0.5475 -0.1332 -0.4317
 3692TIP3    H132567   4.496   4.237   2.957  0.3847  0.4251 -0.0175
 3692TIP3    H232568   4.504   4.362   2.873  1.1485  0.9947  0.8782
 3693TIP3   OH232569   1.229   0.995  10.421 -0.2742  0.1749  0.3739
 3693TIP3    H132570   1.213   0.927  10.487 -2.0343 -1.2724 -1.4387
 3693TIP3    H232571   1.184   1.072  10.455 -0.0534 -0.1596  1.4647
 3694TIP3   OH232572   4.236   2.830   6.212  0.3714  0.1837  0.3840
 3694TIP3    H132573   4.239   2.745   6.167 -1.4373  0.3368 -0.1271
 3694TIP3    H232574   4.227   2.807   6.305  1.5460 -0.1611  0.4182
 3695TIP3   OH232575   0.562   4.348  15.451 -0.3814  0.1611  0.4048
 3695TIP3    H132576   0.654   4.372  15.459 -0.2808  0.2066 -0.6826
 3695TIP3    H232577   0.524   4.370  15.536  1.1162 -2.2692  1.8314
 3696TIP3   OH232578   3.696   0.630  16.684  0.0657 -0.5523 -0.7098
 3696TIP3    H132579   3.759   0.558  16.677  1.0586  0.3476 -1.3833
 3696TIP3    H232580   3.740   0.695  16.738 -0.4878 -0.1073 -0.7843
 3697TIP3   OH232581   3.036   6.025   2.298 -0.0119  0.1277 -0.6780
 3697TIP3    H132582   2.989   6.096   2.254 -0.6377  1.0163  1.3015
 3697TIP3    H232583   3.074   6.066   2.376 -0.1626 -1.6544  0.3864
 3698TIP3   OH232584   1.304   6.122  15.268  0.1479  0.5349  0.1467
 3698TIP3    H132585   1.306   6.217  15.258  1.2851  0.6857  1.4790
 3698TIP3    H232586   1.396   6.095  15.262 -0.2735 -0.7118 -1.8699
 3699TIP3   OH232587   3.142   3.782   5.046  0.1935  0.0246 -0.4617
 3699TIP3    H132588   3.046   3.781   5.053  0.1124  0.4684 -1.3280
 3699TIP3    H232589   3.167   3.869   5.077  0.1516  0.5576 -1.8368
 3700TIP3   OH232590   2.657   6.130  13.077 -0.0578  0.0413  0.4664
 3700TIP3    H132591   2.694   6.093  13.157  0.2277 -0.3125  0.1709
 3700TIP3    H232592   2.625   6.054  13.028  0.2233  0.2086  0.0154
 3701TIP3   OH232593   6.377   6.139   1.435  0.9907  0.8199  0.1695
 3701TIP3    H132594   6.333   6.149   1.519 -0.9996 -0.5430 -0.6431
 3701TIP3    H232595   6.465   6.109   1.457  0.3701  0.0764  1.7442
 3702TIP3   OH232596   6.758   1.997  15.877 -0.0387 -0.0108 -0.0974
 3702TIP3    H132597   6.831   1.960  15.927  0.8080 -1.2825 -2.1386
 3702TIP3    H232598   6.800   2.049  15.808 -0.8923 -2.0816 -2.3331
 3703TIP3   OH232599   6.507   5.445  11.871 -0.3128 -0.5231 -0.3144
 3703TIP3    H132600   6.542   5.415  11.955  2.8284 -0.4471 -1.4827
 3703TIP3    H232601   6.472   5.365  11.830  2.8133 -1.7188 -0.9736
 3704TIP3   OH232602   4.900   6.695   3.864  0.4857 -0.0962  0.2289
 3704TIP3    H132603   4.859   6.771   3.822  1.2426  1.6296  2.4029
 3704TIP3    H232604   4.842   6.675   3.938  0.1001 -1.9272 -0.5298
 3705TIP3   OH232605   3.365   0.755  14.827 -0.3114  0.1607 -0.5526
 3705TIP3    H132606   3.339   0.817  14.895  1.0152 -0.7131  0.8251
 3705TIP3    H232607   3.441   0.795  14.786  0.5135 -0.4723  0.3021
 3706TIP3   OH232608   5.783   4.648  15.091 -0.3909  0.4308  0.4527
 3706TIP3    H132609   5.735   4.719  15.049 -0.3266 -0.6114 -1.5304
 3706TIP3    H232610   5.812   4.593  15.018  0.2616 -1.1849  1.8660
 3707TIP3   OH232611   3.406   0.310  16.658 -0.0656 -0.6343 -0.2322
 3707TIP3    H132612   3.387   0.357  16.577 -1.6355 -0.6785  0.0616
 3707TIP3    H232613   3.471   0.244  16.634  1.6460  1.1781 -0.8015
 3708TIP3   OH232614   0.591   0.848  11.924  0.4757  0.0538  0.5564
 3708TIP3    H132615   0.559   0.901  11.997  1.3183  0.6979  0.4807
 3708TIP3    H232616   0.678   0.884  11.905  0.1448  0.1069 -0.9579
 3709TIP3   OH232617   2.656   3.534  10.200  0.3299  0.7399 -0.5551
 3709TIP3    H132618   2.693   3.461  10.250 -0.6413  1.1011  0.7359
 3709TIP3    H232619   2.594   3.492  10.140  0.8535  0.3837 -0.8598
 3710TIP3   OH232620   5.491   0.313  14.836 -0.5476 -0.1935  0.1055
 3710TIP3    H132621   5.497   0.232  14.887  1.1631  0.1051  0.4600
 3710TIP3    H232622   5.417   0.360  14.873 -0.9514 -1.1517  0.5577
 3711TIP3   OH232623   4.003   3.351   2.704 -0.3729 -0.7933 -0.0928
 3711TIP3    H132624   4.069   3.314   2.646 -0.6988  0.9400 -1.6557
 3711TIP3    H232625   3.925   3.298   2.689  0.1728 -1.7885  0.5071
 3712TIP3   OH232626   2.351   6.810   1.501  0.0586  0.0432  0.3931
 3712TIP3    H132627   2.256   6.812   1.485  0.1980 -0.7072 -0.6314
 3712TIP3    H232628   2.377   6.721   1.479  1.0997  0.4066  0.1126
 3713TIP3   OH232629   1.792   2.669   1.022  0.0347 -0.0848 -0.3118
 3713TIP3    H132630   1.764   2.654   1.112  0.1350 -0.2501 -0.3072
 3713TIP3    H232631   1.887   2.671   1.026  0.0128  1.4622 -0.1769
 3714TIP3   OH232632   6.115   2.380   3.846  0.4317  0.0931  0.0281
 3714TIP3    H132633   6.192   2.377   3.790 -0.4176 -1.0588 -1.1178
 3714TIP3    H232634   6.062   2.305   3.820 -0.5733  0.2124  1.5510
 3715TIP3   OH232635   6.407   0.632   3.908  0.1532 -0.2364 -0.0765
 3715TIP3    H132636   6.434   0.545   3.937  2.8732  0.3508 -0.6360
 3715TIP3    H232637   6.315   0.638   3.936  0.1723 -2.8590  0.8816
 3716TIP3   OH232638   3.084   1.746  11.914 -0.4067  0.0475 -0.2140
 3716TIP3    H132639   3.108   1.704  11.832 -2.8850 -0.7701 -0.6064
 3716TIP3    H232640   3.064   1.673  11.974 -2.9750  0.5279 -0.3395
 3717TIP3   OH232641   1.381   6.702  13.855 -0.1255  0.0385  0.3626
 3717TIP3    H132642   1.355   6.613  13.829 -1.4906  0.8189 -1.1174
 3717TIP3    H232643   1.473   6.708  13.832 -1.0870  0.5370 -4.4163
 3718TIP3   OH232644   2.279   0.724  14.903  0.2784  0.4880 -0.1668
 3718TIP3    H132645   2.226   0.700  14.979 -1.2038  2.4980 -0.4851
 3718TIP3    H232646   2.284   0.644  14.851  0.1999 -0.5618  1.3765
 3719TIP3   OH232647   2.800   6.535   5.083  0.2027  0.8776 -0.6175
 3719TIP3    H132648   2.733   6.469   5.065  0.3258  0.3894  0.6522
 3719TIP3    H232649   2.752   6.619   5.082 -0.9541  0.3743  2.5587
 3720TIP3   OH232650   6.194   5.514  12.061  0.1596 -0.1159 -0.2017
 3720TIP3    H132651   6.253   5.529  11.987  1.6948 -1.2236  0.7409
 3720TIP3    H232652   6.153   5.429  12.042  2.6993 -1.8584  1.4553
 3721TIP3   OH232653   1.944   5.669   1.336 -0.4124  0.1006  0.3071
 3721TIP3    H132654   1.944   5.745   1.279 -0.8912  0.4136  0.7154
 3721TIP3    H232655   1.883   5.692   1.407  1.7746  0.6158  2.1320
 3722TIP3   OH232656   3.967   3.118   4.436 -0.1068  0.2324 -0.3916
 3722TIP3    H132657   4.002   3.150   4.353  0.8794 -0.0478 -0.0974
 3722TIP3    H232658   3.982   3.024   4.434  0.1554  0.2602  0.2145
 3723TIP3   OH232659   1.970   3.659   1.628  0.0630 -0.6664  0.5798
 3723TIP3    H132660   2.058   3.696   1.629  1.1861 -3.0376 -0.5989
 3723TIP3    H232661   1.961   3.616   1.713  0.2419 -0.8171  0.5232
 3724TIP3   OH232662   5.582   2.172  10.747  0.4016  0.0271  0.0108
 3724TIP3    H132663   5.624   2.134  10.670  1.3263  1.7148 -0.3582
 3724TIP3    H232664   5.488   2.170  10.727  0.6085  0.0824 -0.9883
 3725TIP3   OH232665   3.754   1.878  13.837  0.3467  0.1778 -0.1386
 3725TIP3    H132666   3.820   1.933  13.880  2.1625  0.2664 -2.8038
 3725TIP3    H232667   3.783   1.788  13.856 -0.7725  0.1231  1.5048
 3726TIP3   OH232668   6.031   5.539   0.441  0.5519  0.1112  0.0691
 3726TIP3    H132669   6.019   5.490   0.360 -0.0808  0.9359 -0.3471
 3726TIP3    H232670   5.966   5.609   0.437  0.1333 -0.1502  1.5367
 3727TIP3   OH232671   5.622   4.518  16.972  0.1444 -0.4400  0.0193
 3727TIP3    H132672   5.528   4.499  16.966  0.3293 -0.9742 -2.8963
 3727TIP3    H232673   5.628   4.612  16.955  0.1960 -0.6985 -1.5266
 3728TIP3   OH232674   4.134   6.693  12.967  0.8866  0.4160  0.1994
 3728TIP3    H132675   4.110   6.607  13.002 -0.7997  0.1038 -1.5422
 3728TIP3    H232676   4.090   6.756  13.026 -3.2587 -0.1205 -1.9347
 3729TIP3   OH232677   6.405   4.933  13.129  0.4419  0.0168 -0.4991
 3729TIP3    H132678   6.413   4.983  13.209  1.4253  0.4674 -0.8652
 3729TIP3    H232679   6.328   4.878  13.142 -0.1562  1.0164  0.2355
 3730TIP3   OH232680   6.425   2.226  11.648  0.6490  0.0937 -0.3261
 3730TIP3    H132681   6.454   2.146  11.604  0.7218  0.3389 -0.7357
 3730TIP3    H232682   6.396   2.198  11.735 -0.9069 -0.6439 -1.0410
 3731TIP3   OH232683   1.874   5.774  13.547  0.1337 -0.7291 -0.6230
 3731TIP3    H132684   1.813   5.788  13.619  0.0304 -1.0315 -0.6491
 3731TIP3    H232685   1.935   5.847  13.552 -0.3660 -0.3041 -0.7397
 3732TIP3   OH232686   3.002   5.904  11.209 -0.1078 -0.2739 -0.1128
 3732TIP3    H132687   2.941   5.961  11.162  0.0204 -0.8074 -0.9496
 3732TIP3    H232688   2.977   5.815  11.184 -0.1423 -0.5915  0.9721
 3733TIP3   OH232689   0.775   3.382   2.020  0.0151 -0.3606  0.1656
 3733TIP3    H132690   0.749   3.448   1.956  0.2661 -1.1279 -0.7637
 3733TIP3    H232691   0.852   3.420   2.063  0.3773 -0.1811 -0.6119
 3734TIP3   OH232692   0.709   3.683  10.568  0.2446 -0.0349  0.3547
 3734TIP3    H132693   0.647   3.634  10.622  0.7603 -0.6933  0.3561
 3734TIP3    H232694   0.724   3.627  10.492 -2.0547  1.7315 -1.5577
 3735TIP3   OH232695   1.292   6.241  16.273  0.5011  0.3511 -0.1104
 3735TIP3    H132696   1.348   6.226  16.349 -2.0908 -1.4547  1.6040
 3735TIP3    H232697   1.315   6.171  16.212  0.2659 -0.2944  0.5229
 3736TIP3   OH232698   6.647   0.287   0.672 -0.1641  0.3798  0.2882
 3736TIP3    H132699   6.636   0.261   0.581 -1.3223  0.7136  0.3250
 3736TIP3    H232700   6.613   0.214   0.723  0.6724  0.1019  0.4792
 3737TIP3   OH232701   1.488   3.581  12.302 -0.0391  0.1437  0.2811
 3737TIP3    H132702   1.502   3.620  12.216 -0.9002 -2.9723 -1.4314
 3737TIP3    H232703   1.575   3.553  12.330  0.0194 -0.4687 -0.4765
 3738TIP3   OH232704   5.820   6.578   4.401  0.5194  0.2910  0.4065
 3738TIP3    H132705   5.804   6.490   4.368  0.6638  0.0517  0.9555
 3738TIP3    H232706   5.861   6.564   4.486 -0.7570  0.8770  1.1505
 3739TIP3   OH232707   4.499   1.214   3.082  0.3471 -0.1404 -0.0190
 3739TIP3    H132708   4.572   1.258   3.040  0.8436 -0.3865  0.5687
 3739TIP3    H232709   4.443   1.285   3.114  0.8985  0.0579  0.5084
 3740TIP3   OH232710   3.242   3.459   2.355 -0.0026  0.0284  0.3829
 3740TIP3    H132711   3.159   3.411   2.349 -0.0652  0.3286 -1.7306
 3740TIP3    H232712   3.298   3.419   2.289  0.7833  1.2543  0.2816
 3741TIP3   OH232713   2.198   2.117   4.898  0.3291 -0.0796  0.0671
 3741TIP3    H132714   2.135   2.184   4.923 -2.6286 -2.0449 -1.4537
 3741TIP3    H232715   2.244   2.153   4.823  0.4361  1.0968  0.6839
 3742TIP3   OH232716   6.817   2.537  14.619 -0.2571 -0.0814  0.0987
 3742TIP3    H132717   6.866   2.605  14.572  0.0350 -0.8139 -0.6904
 3742TIP3    H232718   6.726   2.568  14.618 -0.2304  0.0035 -0.8134
 3743TIP3   OH232719   5.470   0.751   5.822  0.1079  0.4463 -0.5263
 3743TIP3    H132720   5.400   0.806   5.855  0.7814  0.9332  0.1359
 3743TIP3    H232721   5.535   0.749   5.893 -0.2447 -1.8681 -0.2226
 3744TIP3   OH232722   3.365   4.001  12.627 -0.8562  0.0173 -0.0338
 3744TIP3    H132723   3.397   3.964  12.709 -2.1744  0.6523  0.8074
 3744TIP3    H232724   3.430   3.975  12.562  1.8533  2.0068  1.6923
 3745TIP3   OH232725   0.800   1.160   5.251  0.6299 -0.4282 -0.0022
 3745TIP3    H132726   0.844   1.106   5.317  0.3753  0.3787  0.8571
 3745TIP3    H232727   0.707   1.154   5.274  0.5566 -0.0026 -0.1684
 3746TIP3   OH232728   5.241   1.775   2.010 -0.0682  0.0692 -0.4390
 3746TIP3    H132729   5.332   1.799   1.991 -0.4166  1.2405 -0.7302
 3746TIP3    H232730   5.244   1.741   2.100  0.8201 -0.9379 -0.8252
 3747TIP3   OH232731   3.737   1.777  11.296 -0.6362 -0.4968  0.0141
 3747TIP3    H132732   3.716   1.834  11.370 -0.9937 -2.4031  1.4829
 3747TIP3    H232733   3.654   1.766  11.250 -0.1174  1.8832 -1.6457
 3748TIP3   OH232734   2.152   1.410  13.481  0.2245  0.2821  0.1314
 3748TIP3    H132735   2.164   1.469  13.407  0.6076  0.2712  0.1844
 3748TIP3    H232736   2.200   1.331  13.457 -1.5597 -0.6308 -0.6304
 3749TIP3   OH232737   6.464   2.163   4.015  0.0050 -0.4955 -0.0324
 3749TIP3    H132738   6.546   2.128   3.979  0.5490  0.4960  0.2209
 3749TIP3    H232739   6.446   2.241   3.963 -1.2908 -1.1992 -0.6961
 3750TIP3   OH232740   0.462   0.206  16.183 -0.1761  0.2735 -0.2742
 3750TIP3    H132741   0.394   0.265  16.150  0.0963  0.8887  0.2518
 3750TIP3    H232742   0.540   0.229  16.132  0.3307  1.4498  0.9880
 3751TIP3   OH232743   3.294   5.832   6.180  0.6043  0.4532  0.3042
 3751TIP3    H132744   3.233   5.902   6.156  0.1451  0.4030  1.2821
 3751TIP3    H232745   3.286   5.768   6.110  0.6819  1.1553 -0.3666
 3752TIP3   OH232746   1.797   6.318  13.843 -0.0591 -0.0904  0.0204
 3752TIP3    H132747   1.751   6.361  13.914 -1.6540  0.4821 -1.2909
 3752TIP3    H232748   1.728   6.278  13.790  0.9770  0.2351 -1.6559
 3753TIP3   OH232749   2.790   2.047   0.293  0.2318  0.4547 -0.2432
 3753TIP3    H132750   2.697   2.033   0.273  0.0223  2.3872 -0.8867
 3753TIP3    H232751   2.832   2.050   0.208  0.7626  0.3436  0.0149
 3754TIP3   OH232752   6.121   5.488  15.043  0.3121 -0.3513 -0.4033
 3754TIP3    H132753   6.165   5.404  15.030  0.3520 -0.4956  0.6103
 3754TIP3    H232754   6.054   5.470  15.110  1.3145  0.7557  0.9470
 3755TIP3   OH232755   0.783   4.581  16.322  0.3271  0.6401 -0.0233
 3755TIP3    H132756   0.712   4.539  16.370  1.5166 -1.2916  0.1730
 3755TIP3    H232757   0.751   4.589  16.232  0.1462 -1.0254 -0.1362
 3756TIP3   OH232758   5.572   3.968   1.757 -0.1448  0.7223 -0.2282
 3756TIP3    H132759   5.575   3.890   1.813  0.4214  1.4295  0.7546
 3756TIP3    H232760   5.502   3.950   1.694  0.1915 -0.7072 -0.2169
 3757TIP3   OH232761   4.853   4.154  11.937  0.1454 -0.1038  0.4317
 3757TIP3    H132762   4.785   4.148  12.004 -2.2575  0.5536 -1.7666
 3757TIP3    H232763   4.901   4.233  11.959 -1.3808  0.7804  0.7801
 3758TIP3   OH232764   5.299   6.158  16.464 -0.7138  0.4081  0.5502
 3758TIP3    H132765   5.349   6.195  16.537  0.1497  1.8893 -0.7267
 3758TIP3    H232766   5.225   6.217  16.453 -0.8417  0.1867  0.2185
 3759TIP3   OH232767   3.766   5.080   5.472  0.1728  0.4883 -0.4364
 3759TIP3    H132768   3.713   5.131   5.411 -1.4535 -0.5111  0.0928
 3759TIP3    H232769   3.734   5.104   5.559 -0.4901 -1.2355 -0.1669
 3760TIP3   OH232770   1.230   2.959   1.282 -0.5972 -1.1619  0.0111
 3760TIP3    H132771   1.298   2.910   1.235 -0.1413 -0.6998  0.1789
 3760TIP3    H232772   1.235   3.048   1.246 -0.6617 -0.9586  0.4900
 3761TIP3   OH232773   5.678   5.917   0.470  0.4489  0.4620  0.3225
 3761TIP3    H132774   5.609   5.899   0.533 -0.1733  0.5671 -0.3124
 3761TIP3    H232775   5.632   5.947   0.391  1.0691 -1.4575 -0.8326
 3762TIP3   OH232776   3.289   1.731  16.968  0.0152 -0.5964  0.2098
 3762TIP3    H132777   3.197   1.711  16.989 -0.5002 -0.8672 -2.1273
 3762TIP3    H232778   3.338   1.688  17.038 -1.6254  0.2126  1.9832
 3763TIP3   OH232779   3.824   6.185   3.294 -0.1120 -0.2689 -0.5800
 3763TIP3    H132780   3.809   6.235   3.214  0.4232  0.7793 -0.0406
 3763TIP3    H232781   3.751   6.208   3.351  0.0117 -0.2852 -0.4131
 3764TIP3   OH232782   4.756   3.861  16.644  0.1528 -0.3276 -0.0785
 3764TIP3    H132783   4.756   3.783  16.588  0.2185 -0.3204 -0.0895
 3764TIP3    H232784   4.821   3.919  16.604 -1.0939  0.4409 -1.0463
 3765TIP3   OH232785   3.129   6.184  16.579  0.2506 -0.5603 -0.1307
 3765TIP3    H132786   3.062   6.246  16.609 -1.0193 -2.0884  0.3226
 3765TIP3    H232787   3.128   6.194  16.484 -0.7943 -0.7027 -0.1529
 3766TIP3   OH232788   5.051   5.902  16.372 -0.7782 -0.7467  0.6862
 3766TIP3    H132789   5.126   5.918  16.429 -2.1850  1.6641  2.0465
 3766TIP3    H232790   5.080   5.833  16.313  1.9250 -1.0255  2.1657
 3767TIP3   OH232791   4.614   5.025   2.727 -0.7883 -0.1395  0.1298
 3767TIP3    H132792   4.634   4.944   2.680 -2.0386  1.3922 -3.4182
 3767TIP3    H232793   4.649   5.094   2.670 -0.0546  1.8783  2.8654
 3768TIP3   OH232794   5.384   4.476  17.202  0.1775 -0.3287  0.3324
 3768TIP3    H132795   5.333   4.500  17.124  1.1624  2.2423  0.3877
 3768TIP3    H232796   5.393   4.381  17.196 -1.0589 -0.3861 -1.8620
 3769TIP3   OH232797   4.581   6.042   6.393 -0.0300 -0.1739  0.6404
 3769TIP3    H132798   4.640   6.109   6.360  0.3170 -1.1094 -0.7265
 3769TIP3    H232799   4.512   6.036   6.327 -1.1584  0.2341  1.7510
 3770TIP3   OH232800   1.433   6.785  14.143 -0.0664  0.2149  0.2148
 3770TIP3    H132801   1.433   6.727  14.066 -0.5583  0.0421  0.3397
 3770TIP3    H232802   1.365   6.849  14.124  1.4932  1.7031 -0.6101
 3771TIP3   OH232803   5.380   2.121  15.253  0.1476  0.1217  0.2337
 3771TIP3    H132804   5.345   2.178  15.184  0.3661 -0.9451 -0.7814
 3771TIP3    H232805   5.474   2.117  15.236  0.1140 -0.6635  0.1850
 3772TIP3   OH232806   6.696   6.040  13.978 -0.0435 -0.8904 -0.3616
 3772TIP3    H132807   6.768   6.025  13.917  0.3555  0.2571 -0.1860
 3772TIP3    H232808   6.709   6.129  14.010 -0.3366 -1.4208  1.3020
 3773TIP3   OH232809   0.725   2.203  12.463 -0.1826 -0.4806 -0.2386
 3773TIP3    H132810   0.678   2.271  12.413 -0.2405 -0.6699 -0.4419
 3773TIP3    H232811   0.803   2.185  12.411 -0.7970 -1.4816 -0.8459
 3774TIP3   OH232812   2.506   2.813   1.652 -0.3772 -0.5925 -0.0161
 3774TIP3    H132813   2.576   2.872   1.623 -0.1610 -0.7504  0.1815
 3774TIP3    H232814   2.456   2.866   1.715 -1.1557 -0.0774 -1.0498
 3775TIP3   OH232815   1.969   2.965  11.087 -0.2469  0.4707 -0.0263
 3775TIP3    H132816   1.955   2.886  11.035  0.5313  1.0133 -1.1015
 3775TIP3    H232817   2.047   2.946  11.140 -0.2918  0.3728  0.0041
 3776TIP3   OH232818   6.075   5.363   4.622 -0.4168  0.0611 -0.1933
 3776TIP3    H132819   6.110   5.340   4.536 -0.6126 -0.7295 -0.0656
 3776TIP3    H232820   6.030   5.284   4.652  1.1943 -0.3102  1.4359
 3777TIP3   OH232821   0.803   4.774  12.925 -0.1970 -0.3073 -0.1635
 3777TIP3    H132822   0.842   4.703  12.875 -0.5601  1.3478 -3.0361
 3777TIP3    H232823   0.718   4.788  12.884 -0.2347  1.6247  0.4744
 3778TIP3   OH232824   6.363   6.815   1.784 -0.4904  0.3860  0.5839
 3778TIP3    H132825   6.367   6.870   1.706  1.0608  0.2454  0.5388
 3778TIP3    H232826   6.348   6.727   1.750 -0.6149  0.4429  0.4917
 3779TIP3   OH232827   1.020   6.373  12.534 -0.4516  0.5577 -0.6383
 3779TIP3    H132828   0.974   6.290  12.540  2.8976 -1.3831  1.2799
 3779TIP3    H232829   0.958   6.437  12.570 -2.5734 -1.3495 -0.6859
 3780TIP3   OH232830   0.170   2.434   2.413 -0.5280  0.7147 -0.3513
 3780TIP3    H132831   0.167   2.515   2.464 -3.4208  0.4148  0.0819
 3780TIP3    H232832   0.120   2.453   2.334 -0.0077 -0.2289 -0.9239
 3781TIP3   OH232833   4.395   1.112   4.472 -0.2383 -0.5289 -0.3199
 3781TIP3    H132834   4.400   1.115   4.568 -2.3034 -0.1682 -0.1841
 3781TIP3    H232835   4.352   1.029   4.453 -2.4747  0.6501 -0.7387
 3782TIP3   OH232836   2.790   2.065  12.675  0.2598  0.4598  0.3171
 3782TIP3    H132837   2.885   2.072  12.663  0.1776  0.1552 -0.5277
 3782TIP3    H232838   2.754   2.136  12.622 -0.0124  0.2823  0.2646
 3783TIP3   OH232839   3.630   0.008  11.677  0.2279 -0.2081  0.1056
 3783TIP3    H132840   3.570   0.076  11.648 -0.5740 -1.7850 -2.1280
 3783TIP3    H232841   3.714   0.031  11.638  0.2021  0.0514  0.2058
 3784TIP3   OH232842   3.467   0.637   3.139 -0.2533  0.1344 -0.0906
 3784TIP3    H132843   3.389   0.679   3.175 -0.1698 -0.8719  1.3211
 3784TIP3    H232844   3.537   0.658   3.200  0.5082  0.6711 -1.1185
 3785TIP3   OH232845   1.380   0.241   4.140 -0.6038  0.6524  0.0818
 3785TIP3    H132846   1.373   0.280   4.227 -1.8140 -0.7021  0.6272
 3785TIP3    H232847   1.314   0.287   4.088 -0.6579  0.6846  0.1788
 3786TIP3   OH232848   0.998   4.772   6.320  0.5281  0.3466  0.0417
 3786TIP3    H132849   1.067   4.837   6.312  1.0119 -0.0214  0.9724
 3786TIP3    H232850   0.926   4.818   6.364  0.2849  0.6528 -0.6690
 3787TIP3   OH232851   3.664   3.388   2.626 -0.0022  0.1152 -0.3455
 3787TIP3    H132852   3.736   3.324   2.631 -0.3015 -0.1586  2.4655
 3787TIP3    H232853   3.593   3.341   2.583  0.5452 -0.6462 -0.4406
 3788TIP3   OH232854   2.700   0.200   1.286 -0.9346  0.1706  0.7892
 3788TIP3    H132855   2.647   0.205   1.366 -1.3385 -0.8764  0.5984
 3788TIP3    H232856   2.768   0.136   1.306 -0.8736  0.1086  0.3901
 3789TIP3   OH232857   0.309   2.638   4.942  0.0693 -0.3198  0.3003
 3789TIP3    H132858   0.214   2.646   4.946  0.0696  1.2418 -1.4879
 3789TIP3    H232859   0.340   2.682   5.022 -0.6455  2.0789 -0.6639
 3790TIP3   OH232860   3.027   5.791  12.490  0.1793  0.2263 -0.7186
 3790TIP3    H132861   2.953   5.735  12.514 -0.4501  0.8847 -1.0397
 3790TIP3    H232862   3.004   5.877  12.528  0.5296  0.5634 -1.2576
 3791TIP3   OH232863   2.508   1.660   0.873 -0.6388  0.4065 -0.4206
 3791TIP3    H132864   2.529   1.632   0.784 -0.4831 -0.3284 -0.1552
 3791TIP3    H232865   2.577   1.724   0.894  2.6043 -3.1995  1.0771
 3792TIP3   OH232866   2.161   0.805  10.137 -0.0582  0.3833  0.3736
 3792TIP3    H132867   2.077   0.764  10.116  0.4391 -0.5284  0.0969
 3792TIP3    H232868   2.149   0.841  10.225 -0.9394  0.8561  0.0727
 3793TIP3   OH232869   1.904   6.771  12.782  0.3073 -0.2917  0.4904
 3793TIP3    H132870   1.848   6.805  12.852  0.2175 -0.8964  0.7200
 3793TIP3    H232871   1.964   6.843  12.762  1.1998 -0.5430  2.1052
 3794TIP3   OH232872   0.318   2.455  16.151 -0.4122  0.0379 -0.2162
 3794TIP3    H132873   0.327   2.538  16.104 -1.1886  0.6163  0.6078
 3794TIP3    H232874   0.362   2.391  16.096 -0.7692  0.7960 -1.4145
 3795TIP3   OH232875   4.727   1.379   6.244  0.2788  0.3053 -0.1642
 3795TIP3    H132876   4.822   1.382   6.244  0.5468 -3.3330  0.3170
 3795TIP3    H232877   4.704   1.341   6.159 -0.6681  0.2034  0.1263
 3796TIP3   OH232878   4.971   0.025  16.691  0.1693  0.6197  0.2866
 3796TIP3    H132879   5.058   0.064  16.694 -0.5302  2.1435  1.7285
 3796TIP3    H232880   4.973  -0.044  16.757  0.1440  0.9749  0.6615
 3797TIP3   OH232881   6.165   3.763  13.987  0.5708 -0.1794  0.4403
 3797TIP3    H132882   6.094   3.715  14.030  0.5659 -1.0269 -0.4747
 3797TIP3    H232883   6.121   3.821  13.926  0.5729  1.1128  1.6268
 3798TIP3   OH232884   5.131   5.953   6.353  0.5566 -0.0383 -0.4034
 3798TIP3    H132885   5.223   5.966   6.374  0.3163  1.7207 -0.2707
 3798TIP3    H232886   5.092   6.041   6.358 -0.7851 -0.4666 -2.0698
 3799TIP3   OH232887   2.885   6.066   2.753  0.6748 -0.3343 -0.1478
 3799TIP3    H132888   2.973   6.034   2.772  0.7104 -0.4040 -0.4263
 3799TIP3    H232889   2.827   6.002   2.794  0.7375 -1.0003 -1.0498
 3800TIP3   OH232890   1.688   1.993   2.223  0.1440 -0.1265 -0.1681
 3800TIP3    H132891   1.614   1.977   2.165  0.8822  2.1741 -1.9177
 3800TIP3    H232892   1.744   1.917   2.212 -0.5432 -0.5042 -1.2202
 3801TIP3   OH232893   0.966   5.067   4.656  0.0689 -0.0053  0.1020
 3801TIP3    H132894   1.013   5.148   4.676  1.2613 -0.4524 -0.7508
 3801TIP3    H232895   0.888   5.096   4.609  1.1013  0.6237 -1.3067
 3802TIP3   OH232896   5.286   3.716  14.675 -0.4902  0.2113  0.5842
 3802TIP3    H132897   5.200   3.703  14.634 -0.6061  1.9048  0.2329
 3802TIP3    H232898   5.266   3.739  14.766 -0.3627 -0.2130  0.7226
 3803TIP3   OH232899   4.492   4.140  15.304  0.7423 -0.1862 -0.3013
 3803TIP3    H132900   4.427   4.070  15.312 -0.1839  0.7327  0.5484
 3803TIP3    H232901   4.484   4.189  15.386  2.9625 -0.3961  0.0883
 3804TIP3   OH232902   1.280   4.162   2.888 -0.2938 -0.2670  0.4552
 3804TIP3    H132903   1.227   4.103   2.832 -0.6537 -0.5650  1.0992
 3804TIP3    H232904   1.353   4.108   2.917 -1.3085 -0.8216  2.1012
 3805TIP3   OH232905   4.464   5.402   5.761 -0.4800  0.0838 -0.1548
 3805TIP3    H132906   4.497   5.373   5.676 -1.1538 -0.7988 -0.1408
 3805TIP3    H232907   4.428   5.489   5.745 -0.6784 -0.1117 -0.8035
 3806TIP3   OH232908   5.401   2.267   6.698 -0.4343 -0.3959 -0.3046
 3806TIP3    H132909   5.393   2.172   6.713 -1.7580 -0.6652 -2.2266
 3806TIP3    H232910   5.311   2.299   6.704 -0.0690  0.6545 -0.2651
 3807TIP3   OH232911   5.125   4.701  16.035  0.0908  0.5464  0.3044
 3807TIP3    H132912   5.102   4.646  16.110  4.0105  0.2221  1.5047
 3807TIP3    H232913   5.168   4.778  16.073  1.3834  0.8212 -1.5221
 3808TIP3   OH232914   1.208   4.604  17.039  0.1004  0.1246 -0.6405
 3808TIP3    H132915   1.117   4.586  17.064  1.1193 -0.0673  3.6383
 3808TIP3    H232916   1.248   4.517  17.034  0.2747  0.2552 -1.6820
 3809TIP3   OH232917   4.810   4.175  15.793 -0.1640  0.0795 -0.0197
 3809TIP3    H132918   4.743   4.176  15.861  0.2522  1.1568  0.3881
 3809TIP3    H232919   4.817   4.266  15.763  0.8757 -0.0649 -0.2863
 3810TIP3   OH232920   1.666   6.068  15.965  0.4638  0.4908  0.2329
 3810TIP3    H132921   1.674   6.133  15.895  0.1612 -0.0554 -0.3143
 3810TIP3    H232922   1.688   6.116  16.045 -0.9417  1.5964 -0.0064
 3811TIP3   OH232923   2.780   2.619  14.544 -0.1575 -0.4472  0.2819
 3811TIP3    H132924   2.865   2.576  14.554  0.4020  0.2379 -1.1955
 3811TIP3    H232925   2.800   2.712  14.548 -0.4906 -0.2102 -2.0482
 3812TIP3   OH232926   2.948   4.106   5.825 -0.1992  0.5288 -0.5742
 3812TIP3    H132927   3.043   4.122   5.819 -0.2355  0.5625 -1.0835
 3812TIP3    H232928   2.922   4.150   5.906  0.3737 -0.2455  0.0513
 3813TIP3   OH232929   0.172   1.688   2.627 -0.0565 -0.4847  0.1924
 3813TIP3    H132930   0.200   1.645   2.546 -1.2447  0.6216 -0.8520
 3813TIP3    H232931   0.119   1.622   2.672  1.0264 -1.2829  0.3670
 3814TIP3   OH232932   4.305   3.967  15.410 -0.2970 -0.2954  0.5751
 3814TIP3    H132933   4.348   3.888  15.442  2.1993  1.0130  0.7335
 3814TIP3    H232934   4.300   4.024  15.487  0.3445  0.6479 -0.0567
 3815TIP3   OH232935   3.753   3.956   5.781 -0.0857  0.4112 -0.4008
 3815TIP3    H132936   3.827   3.896   5.769  0.6309  0.5934  2.3945
 3815TIP3    H232937   3.676   3.903   5.763  0.5789 -1.0722  0.9044
 3816TIP3   OH232938   0.786   3.836   3.148  0.0644 -0.3374 -0.1756
 3816TIP3    H132939   0.827   3.824   3.062 -0.2142 -2.6820 -0.0544
 3816TIP3    H232940   0.782   3.930   3.159  0.5967  0.0395 -2.5030
 3817TIP3   OH232941   1.020   3.744  12.102  0.3885 -0.7109  0.1970
 3817TIP3    H132942   1.053   3.759  12.191 -0.0932 -1.6734  0.5557
 3817TIP3    H232943   0.932   3.781  12.103  0.1286 -1.3265  0.3307
 3818TIP3   OH232944   0.476   2.111   1.266  0.2415  0.3617  0.1394
 3818TIP3    H132945   0.454   2.021   1.290  0.8947 -0.7679 -3.0085
 3818TIP3    H232946   0.561   2.127   1.306  1.5694 -1.6247 -1.6935
 3819TIP3   OH232947   6.811   5.772  13.197  0.2377 -0.3325 -0.0138
 3819TIP3    H132948   6.881   5.828  13.231 -1.4965  1.0140  1.5328
 3819TIP3    H232949   6.803   5.796  13.105 -0.5412  2.1249  0.6421
 3820TIP3   OH232950   6.109   3.015   4.334 -0.5509  0.6487  0.1187
 3820TIP3    H132951   6.036   3.019   4.273 -1.1893  1.5760  0.9003
 3820TIP3    H232952   6.178   3.067   4.293 -0.4293  0.0059 -0.4933
 3821TIP3   OH232953   5.765   3.144  11.584 -0.3428 -0.0444 -0.0454
 3821TIP3    H132954   5.806   3.182  11.507  0.5092 -2.5789 -0.9694
 3821TIP3    H232955   5.835   3.141  11.649 -0.1284 -0.7989 -0.2954
 3822TIP3   OH232956   0.658   4.711  17.162  0.1526  0.0506 -0.1482
 3822TIP3    H132957   0.640   4.706  17.068 -1.5218 -0.7166  0.1803
 3822TIP3    H232958   0.692   4.799  17.175 -1.5825  0.9200 -1.1661
 3823TIP3   OH232959   3.846   1.187  13.579  0.0663 -0.6027 -0.0505
 3823TIP3    H132960   3.759   1.189  13.620  0.0634 -0.0293 -0.0731
 3823TIP3    H232961   3.860   1.095  13.557 -1.8675 -0.3425 -2.9009
 3824TIP3   OH232962   2.628   0.408  14.147 -0.4442  0.4834  0.0066
 3824TIP3    H132963   2.647   0.492  14.189 -1.9974  1.2678 -0.7472
 3824TIP3    H232964   2.588   0.432  14.063 -0.0508 -1.0262 -0.6401
 3825TIP3   OH232965   4.471   4.452   0.804  0.1835  0.3799  0.1918
 3825TIP3    H132966   4.387   4.416   0.777  1.6432 -3.0689 -0.3451
 3825TIP3    H232967   4.467   4.544   0.779 -2.9002  0.0440 -1.0070
 3826TIP3   OH232968   5.738   5.117  13.563  0.7435 -0.1136 -0.0973
 3826TIP3    H132969   5.786   5.110  13.646  1.2554 -1.7410 -0.5033
 3826TIP3    H232970   5.716   5.027  13.540 -0.0812  0.3802 -1.3524
 3827TIP3   OH232971   3.972   4.721   3.013  0.2902  0.0728  0.0701
 3827TIP3    H132972   4.035   4.669   3.064 -0.1837 -0.6820 -0.1070
 3827TIP3    H232973   4.025   4.762   2.945  0.2843 -2.5033 -1.6124
 3828TIP3   OH232974   4.003   2.685  11.326 -0.1135  0.1103 -0.4387
 3828TIP3    H132975   3.959   2.619  11.380 -1.0491  0.4542 -0.7675
 3828TIP3    H232976   4.096   2.666  11.336 -0.2068  0.5801  1.8446
 3829TIP3   OH232977   0.565   2.666   4.322 -0.1836  0.1516 -0.2163
 3829TIP3    H132978   0.599   2.740   4.271  0.6885  0.0068  0.1462
 3829TIP3    H232979   0.533   2.705   4.403 -0.1459  0.1890 -0.2193
 3830TIP3   OH232980   5.447   3.649  14.258 -0.0399  0.4729 -0.2101
 3830TIP3    H132981   5.450   3.740  14.286 -2.5243  1.0849 -1.6537
 3830TIP3    H232982   5.406   3.602  14.330  4.1465 -0.3023  1.9965
 3831TIP3   OH232983   4.714   6.078   5.137  0.0042  0.7392  0.5380
 3831TIP3    H132984   4.653   6.104   5.206 -0.0457  1.4019  0.2597
 3831TIP3    H232985   4.791   6.047   5.183 -1.1247 -1.7120  0.9344
 3832TIP3   OH232986   2.710   1.243  11.413  0.3973  0.1853  0.2048
 3832TIP3    H132987   2.634   1.197  11.376  0.3368  1.0227 -0.7245
 3832TIP3    H232988   2.734   1.190  11.489 -0.1044 -1.0098 -0.4309
 3833TIP3   OH232989   2.389   3.758   2.097  0.1938 -0.3216 -0.3805
 3833TIP3    H132990   2.400   3.663   2.097 -1.0972 -0.5372  1.7127
 3833TIP3    H232991   2.337   3.777   2.019 -1.2553 -1.6151  0.2311
 3834TIP3   OH232992   5.988   0.866   4.273 -0.3028 -0.0285 -0.4644
 3834TIP3    H132993   5.934   0.922   4.218  0.6450 -0.4308 -1.8529
 3834TIP3    H232994   5.977   0.778   4.236  1.1866 -0.1356 -0.7098
 3835TIP3   OH232995   4.191   4.415  13.467 -0.0112 -0.6215  0.0039
 3835TIP3    H132996   4.236   4.479  13.413 -1.1516 -0.2613 -0.5496
 3835TIP3    H232997   4.103   4.450  13.479 -0.7619 -2.1967 -0.5544
 3836TIP3   OH232998   5.322   4.294   1.660  0.0241 -0.1817 -0.0962
 3836TIP3    H132999   5.288   4.205   1.656  0.0287 -0.1459 -1.7195
 3836TIP3    H233000   5.413   4.287   1.631 -0.3201  0.4690 -1.4523
 3837TIP3   OH233001   2.460   5.848  14.730 -0.2096 -0.6940 -0.5538
 3837TIP3    H133002   2.510   5.793  14.791 -0.9087 -0.5863  0.1274
 3837TIP3    H233003   2.377   5.864  14.774 -0.4754 -0.0639 -1.2594
 3838TIP3   OH233004   2.985   5.913  10.347  0.0178  0.3525  0.2943
 3838TIP3    H133005   2.889   5.909  10.350  0.0168  0.6930  0.7673
 3838TIP3    H233006   3.012   5.822  10.332 -0.3379  0.0105  1.6062
 3839TIP3   OH233007   4.964   2.630  15.339 -0.7919 -0.4648  0.4810
 3839TIP3    H133008   4.889   2.652  15.283  0.2360  1.1883 -0.3289
 3839TIP3    H233009   5.025   2.586  15.280 -0.0118  0.6234  0.4438
 3840TIP3   OH233010   5.220   1.597   0.330 -0.4889 -0.1027 -0.3772
 3840TIP3    H133011   5.145   1.564   0.380 -0.1002 -1.3692 -0.5951
 3840TIP3    H233012   5.284   1.526   0.333  0.3288  0.5836 -1.0097
 3841TIP3   OH233013   2.368   0.929  12.477 -0.6480  0.0670  0.6617
 3841TIP3    H133014   2.332   0.965  12.558 -0.3392  1.7950  0.0759
 3841TIP3    H233015   2.354   0.998  12.412  1.1555 -0.3524 -0.2365
 3842TIP3   OH233016   2.788   2.339  13.120 -0.0977 -0.3660  0.1523
 3842TIP3    H133017   2.768   2.397  13.047 -0.2728 -0.9155 -0.2332
 3842TIP3    H233018   2.789   2.251  13.083 -0.5962 -0.6947  0.8821
 3843TIP3   OH233019   6.588   2.528  15.151  0.4646 -0.4712  0.2734
 3843TIP3    H133020   6.527   2.461  15.120 -0.2707  0.0160  0.6227
 3843TIP3    H233021   6.575   2.602  15.091 -1.0387  0.5140  1.7142
 3844TIP3   OH233022   0.294   4.328   0.176 -0.0234 -0.4994 -0.2781
 3844TIP3    H133023   0.346   4.276   0.114  0.1938  1.0147 -1.4090
 3844TIP3    H233024   0.257   4.263   0.236 -0.5927 -2.0689 -2.2291
 3845TIP3   OH233025   1.264   3.480  16.694 -0.2100 -0.0129  0.3333
 3845TIP3    H133026   1.305   3.448  16.774  0.9119 -1.6996 -0.8792
 3845TIP3    H233027   1.206   3.409  16.666 -0.9043  0.7236 -0.1515
 3846TIP3   OH233028   0.277   1.285  12.637 -0.3736  0.4112 -1.1251
 3846TIP3    H133029   0.286   1.378  12.655  0.9858  0.0452  0.2975
 3846TIP3    H233030   0.350   1.244  12.683 -0.6629 -1.3257 -2.1006
 3847TIP3   OH233031   5.008   3.512  12.069  0.0566  0.1314  0.2084
 3847TIP3    H133032   4.921   3.544  12.093 -0.2390 -0.5012 -0.0040
 3847TIP3    H233033   5.033   3.455  12.141  0.0607 -0.1154  0.0135
 3848TIP3   OH233034   1.145   5.320  16.995 -0.0592  0.2692 -0.1897
 3848TIP3    H133035   1.143   5.235  16.952 -1.9849  0.8443 -1.3757
 3848TIP3    H233036   1.059   5.328  17.036  0.4310  1.2718  0.6855
 3849TIP3   OH233037   1.341   4.842  13.069  0.6829  0.2431 -0.1573
 3849TIP3    H133038   1.254   4.802  13.061  0.4803  0.3674  1.2931
 3849TIP3    H233039   1.327   4.922  13.119  1.8476 -0.6246  1.6676
 3850TIP3   OH233040   2.383   2.333  15.675 -0.1107  0.0827  0.3394
 3850TIP3    H133041   2.368   2.421  15.708  1.3901  0.8775 -0.9653
 3850TIP3    H233042   2.304   2.284  15.699 -1.3010  1.9753  0.4418
 3851TIP3   OH233043   1.517   4.446   4.078 -0.1124  0.3879 -0.2299
 3851TIP3    H133044   1.505   4.528   4.124  1.0976  1.0446 -1.0398
 3851TIP3    H233045   1.591   4.461   4.019 -0.2704 -1.0730 -0.8625
 3852TIP3   OH233046   5.804   6.740  11.460  0.0200  0.7177  0.3205
 3852TIP3    H133047   5.775   6.701  11.543 -0.9293  0.8981  0.0940
 3852TIP3    H233048   5.879   6.688  11.434 -1.4878 -1.3255 -0.2052
 3853TIP3   OH233049   1.905   3.825  14.092  0.7608 -0.0044 -0.4896
 3853TIP3    H133050   1.970   3.886  14.129  0.4338  0.0330  0.0315
 3853TIP3    H233051   1.826   3.878  14.081 -0.5080 -0.9614  2.8101
 3854TIP3   OH233052   6.724   0.578  13.762  0.6514 -0.5310 -0.0006
 3854TIP3    H133053   6.636   0.608  13.739  0.4690 -0.9538  0.1328
 3854TIP3    H233054   6.711   0.491  13.800  1.0418 -0.2485  0.7986
 3855TIP3   OH233055   3.878   1.523   3.018  0.5994  0.0040 -0.1338
 3855TIP3    H133056   3.838   1.496   2.935  1.1281 -0.0694 -0.3683
 3855TIP3    H233057   3.804   1.551   3.072  0.3557  1.2632 -1.0750
 3856TIP3   OH233058   5.127   4.108  11.727 -0.6449 -0.1694 -0.1380
 3856TIP3    H133059   5.169   4.192  11.743 -0.1603  0.0883 -2.4569
 3856TIP3    H233060   5.167   4.049  11.790 -0.2118  1.0725  0.8001
 3857TIP3   OH233061   3.660   3.409  14.612  0.7236 -0.6781  0.0060
 3857TIP3    H133062   3.644   3.317  14.593  1.5093 -0.5928 -1.1079
 3857TIP3    H233063   3.609   3.457  14.546  1.1355 -0.3317 -0.0659
 3858TIP3   OH233064   1.111   5.448  12.404 -0.0091  0.5330 -0.3250
 3858TIP3    H133065   1.118   5.506  12.479 -0.1037  1.2693 -0.8770
 3858TIP3    H233066   1.106   5.360  12.442 -1.0592  0.9585  0.5686
 3859TIP3   OH233067   1.161   1.489   1.604 -0.5685 -0.2930 -0.4179
 3859TIP3    H133068   1.236   1.462   1.551 -0.0317 -2.3087  1.2513
 3859TIP3    H233069   1.186   1.469   1.694 -1.1903  3.5937  0.8012
 3860TIP3   OH233070   6.171   6.735   0.711  0.0732 -0.4632  0.1276
 3860TIP3    H133071   6.148   6.668   0.774 -2.0889 -0.4599 -0.5875
 3860TIP3    H233072   6.095   6.742   0.654  1.2240  0.8464 -1.3444
 3861TIP3   OH233073   4.243   3.497   0.002 -0.1653 -0.0908 -0.7224
 3861TIP3    H133074   4.186   3.549  -0.054  0.0558  0.2258 -0.6591
 3861TIP3    H233075   4.280   3.430  -0.056 -0.9400 -0.5784 -0.6629
 3862TIP3   OH233076   3.375   4.375  14.495 -0.8335  0.1634  0.8279
 3862TIP3    H133077   3.301   4.323  14.527 -2.3271  0.5157 -1.7491
 3862TIP3    H233078   3.336   4.436  14.432  1.6523  0.2300 -0.8066
 3863TIP3   OH233079   4.386   3.968   2.114  0.1642  0.0641 -0.0712
 3863TIP3    H133080   4.356   3.982   2.024  0.3687  0.3316 -0.0981
 3863TIP3    H233081   4.475   4.003   2.116 -0.0762  0.6603  0.4031
 3864TIP3   OH233082   0.274   4.852   5.364 -0.0720 -0.6429  0.0590
 3864TIP3    H133083   0.207   4.846   5.432 -0.4900 -1.3671 -0.4062
 3864TIP3    H233084   0.299   4.945   5.364 -1.5761 -0.2088 -0.2385
 3865TIP3   OH233085   0.332   0.796   0.352  0.3864 -0.1053 -0.1081
 3865TIP3    H133086   0.378   0.819   0.271  0.1771  1.8149  0.2666
 3865TIP3    H233087   0.347   0.871   0.409 -0.7937 -0.7360  1.0672
 3866TIP3   OH233088   3.906   0.992   6.121 -0.0627 -0.6206  0.3238
 3866TIP3    H133089   3.992   1.032   6.138 -0.2492  0.0640 -0.2848
 3866TIP3    H233090   3.845   1.045   6.172 -0.4310  0.5021 -1.2142
 3867TIP3   OH233091   0.408   6.224  16.380  0.2193 -0.5809 -0.1960
 3867TIP3    H133092   0.397   6.129  16.387  1.4347 -0.6749  0.6899
 3867TIP3    H233093   0.323   6.255  16.351  0.0243 -2.0171 -1.2980
 3868TIP3   OH233094   1.056   0.348   5.516  0.1290 -0.0954  0.1607
 3868TIP3    H133095   0.980   0.397   5.485 -0.3803  0.3321  1.9864
 3868TIP3    H233096   1.132   0.401   5.489 -0.0281 -1.2306 -2.9656
 3869TIP3   OH233097   0.106   0.131   2.507 -0.4350 -0.6975 -0.6473
 3869TIP3    H133098   0.196   0.164   2.517 -1.2541  1.6458 -0.3707
 3869TIP3    H233099   0.092   0.130   2.412 -0.2273 -0.7499 -0.6786
 3870TIP3   OH233100   6.376   1.713   3.787 -0.4389  0.3196  0.8004
 3870TIP3    H133101   6.307   1.649   3.771 -1.3398  0.3388  3.9575
 3870TIP3    H233102   6.352   1.788   3.732 -1.6646 -0.5156  0.1452
 3871TIP3   OH233103   5.462   2.616  15.519 -0.1395 -0.3227 -0.2942
 3871TIP3    H133104   5.478   2.680  15.449  0.7109 -0.0027  0.1694
 3871TIP3    H233105   5.494   2.533  15.484 -0.1831 -0.2645 -0.4719
 3872TIP3   OH233106   3.010   5.856  16.803 -0.0045 -0.2722 -0.4036
 3872TIP3    H133107   3.096   5.897  16.799 -0.3600  0.5665  0.2032
 3872TIP3    H233108   3.024   5.777  16.856  0.4837 -0.4097 -0.7269
 3873TIP3   OH233109   2.114   4.850  14.173 -0.1452  0.1103 -0.1424
 3873TIP3    H133110   2.158   4.832  14.090  0.5098 -0.7037  0.3592
 3873TIP3    H233111   2.032   4.800  14.168 -0.5027  0.7317 -0.6260
 3874TIP3   OH233112   2.871   6.412  12.313  0.5137  0.0705  0.6804
 3874TIP3    H133113   2.791   6.462  12.325  0.4915  0.9957 -2.4436
 3874TIP3    H233114   2.844   6.334  12.265  1.2530 -0.4999  1.1674
 3875TIP3   OH233115   3.611   3.087  15.006  0.2324  0.2761  0.5806
 3875TIP3    H133116   3.572   3.172  14.985 -0.9702 -0.2624  0.5863
 3875TIP3    H233117   3.663   3.104  15.085  0.5782  1.1529  0.1743
 3876TIP3   OH233118   0.509   1.531  15.801  0.0323  0.0039 -0.2417
 3876TIP3    H133119   0.522   1.499  15.711  1.5736  0.3666 -0.1849
 3876TIP3    H233120   0.510   1.452  15.855  0.8853 -0.1053 -0.3926
 3877TIP3   OH233121   3.818   6.088  11.738 -0.0833 -0.6144 -0.1973
 3877TIP3    H133122   3.780   6.044  11.814  1.4542 -2.4057 -0.3959
 3877TIP3    H233123   3.805   6.182  11.756 -0.1112 -0.9937  2.0839
 3878TIP3   OH233124   0.410   2.551   2.128 -0.7421 -0.0539 -0.2300
 3878TIP3    H133125   0.385   2.494   2.200 -0.8065 -0.9901 -0.9757
 3878TIP3    H233126   0.420   2.637   2.168  0.7705 -0.8413  1.1964
 3879TIP3   OH233127   5.310   3.823  12.687 -0.3464  0.3260  0.3294
 3879TIP3    H133128   5.333   3.880  12.760 -0.8955  1.1536 -0.1353
 3879TIP3    H233129   5.238   3.867  12.643  0.1408 -0.0301 -0.8726
 3880TIP3   OH233130   1.645   4.608  16.453 -0.5040 -0.2871 -0.0206
 3880TIP3    H133131   1.562   4.590  16.410  0.3100 -2.3434 -0.9071
 3880TIP3    H233132   1.707   4.622  16.381 -0.4843  3.9894  0.5935
 3881TIP3   OH233133   3.257   3.064  12.419  0.1600  0.5359  0.2627
 3881TIP3    H133134   3.301   3.116  12.486 -0.8919 -0.3602  1.6878
 3881TIP3    H233135   3.219   2.990  12.466  2.7755 -2.4208 -1.8135
 3882TIP3   OH233136   5.599   0.652   5.431  0.0595  0.3564  0.4618
 3882TIP3    H133137   5.646   0.642   5.513 -1.0313 -0.5988  1.0057
 3882TIP3    H233138   5.518   0.697   5.455 -0.7932 -0.9393  0.1413
 3883TIP3   OH233139   5.453   2.753  11.505  0.3523 -0.6591 -0.5154
 3883TIP3    H133140   5.541   2.768  11.541  0.1329 -2.3236  0.8487
 3883TIP3    H233141   5.394   2.790  11.571 -0.0359  2.2245 -2.3121
 3884TIP3   OH233142   5.385   5.106  11.556  0.0518  0.2289 -0.1459
 3884TIP3    H133143   5.322   5.104  11.484  1.4466 -1.5034 -1.3895
 3884TIP3    H233144   5.462   5.059  11.523  1.1171  0.2086  2.1483
 3885TIP3   OH233145   6.812   1.711   6.772  0.1248 -0.8326 -0.2676
 3885TIP3    H133146   6.875   1.707   6.844 -0.0317  0.5463 -0.0170
 3885TIP3    H233147   6.775   1.799   6.778 -1.5726 -1.4828 -0.6220
 3886TIP3   OH233148   5.069   1.632  11.706 -0.6896  0.2325 -0.1510
 3886TIP3    H133149   4.993   1.654  11.760 -1.2385  1.2413 -1.2773
 3886TIP3    H233150   5.036   1.565  11.645 -0.9000  1.1556 -1.0838
 3887TIP3   OH233151   2.497   3.349   4.798 -0.1906  0.7206  0.4049
 3887TIP3    H133152   2.510   3.423   4.858 -1.6145  0.6524  0.8599
 3887TIP3    H233153   2.416   3.370   4.752  1.2399  1.1119 -2.0921
 3888TIP3   OH233154   1.877   2.159   2.086 -0.0031 -0.7449 -0.2387
 3888TIP3    H133155   1.803   2.138   2.143 -0.5058 -0.6959 -0.8609
 3888TIP3    H233156   1.878   2.088   2.022 -1.0655  0.5281 -1.7308
 3889TIP3   OH233157   2.208   6.147  10.956  0.1195 -0.8479 -0.4452
 3889TIP3    H133158   2.199   6.214  10.888 -0.0707 -1.0261 -0.5964
 3889TIP3    H233159   2.289   6.100  10.934  1.1909  0.4183  0.6125
 3890TIP3   OH233160   1.604   1.721   2.174 -0.1505  0.1961  0.2143
 3890TIP3    H133161   1.560   1.796   2.134  0.6369  1.1046  0.9859
 3890TIP3    H233162   1.628   1.665   2.101 -1.0512  0.5215 -0.3538
 3891TIP3   OH233163   3.783   6.564  17.125 -0.2043 -0.4006 -0.0678
 3891TIP3    H133164   3.838   6.639  17.106  3.7717 -2.6787  1.2582
 3891TIP3    H233165   3.785   6.511  17.045  1.4228 -1.4508  0.6106
 3892TIP3   OH233166   4.552   2.437  12.015  0.0740  0.0458  0.1819
 3892TIP3    H133167   4.537   2.507  11.951  0.0767  0.0218  0.1549
 3892TIP3    H233168   4.481   2.375  12.000  2.0645 -1.8493 -2.3440
 3893TIP3   OH233169   1.528   3.051   5.759  0.0974  0.4427 -0.3707
 3893TIP3    H133170   1.592   3.048   5.829 -0.5250  1.8324  0.2942
 3893TIP3    H233171   1.459   2.991   5.787  0.0303  0.7035  0.0329
 3894TIP3   OH233172   1.650   3.666   0.052 -0.3013  0.0444 -0.3888
 3894TIP3    H133173   1.609   3.752   0.066 -0.4525  0.4489 -2.7745
 3894TIP3    H233174   1.724   3.684  -0.005  1.7984 -1.0250  1.8341
 3895TIP3   OH233175   5.330   6.782  14.235  0.4849 -0.7069 -1.2597
 3895TIP3    H133176   5.282   6.721  14.291  1.2201  0.9797  1.3753
 3895TIP3    H233177   5.283   6.865  14.245  1.2977 -0.1037 -2.3132
 3896TIP3   OH233178   2.274   0.638   5.786 -0.3466 -0.5929 -0.2183
 3896TIP3    H133179   2.351   0.605   5.832 -1.2529 -1.7722  0.5229
 3896TIP3    H233180   2.208   0.648   5.855 -0.8782  0.3546 -0.8418
 3897TIP3   OH233181   0.643   4.938   3.859  0.2249  0.0129 -0.4177
 3897TIP3    H133182   0.615   4.847   3.868  0.8365 -0.0828  0.6266
 3897TIP3    H233183   0.721   4.945   3.915 -0.6270  1.5193  0.6513
 3898TIP3   OH233184   1.991   6.235   4.547  0.1829  0.4129  0.5244
 3898TIP3    H133185   2.033   6.315   4.578  3.0318 -0.7698 -0.0609
 3898TIP3    H233186   2.054   6.165   4.566 -0.9569 -1.3077 -1.6022
 3899TIP3   OH233187   1.768   6.716  10.994  0.6930  0.6934  0.0100
 3899TIP3    H133188   1.720   6.733  10.914  2.7395  2.2608 -0.9942
 3899TIP3    H233189   1.725   6.771  11.060  0.8249  1.7604 -0.7628
 3900TIP3   OH233190   5.780   1.961   3.476  0.3921 -0.1786 -0.1440
 3900TIP3    H133191   5.774   1.912   3.558 -1.2965 -0.8331 -0.6263
 3900TIP3    H233192   5.741   1.904   3.410  1.3951  0.4847 -1.3667
 3901TIP3   OH233193   0.096   0.745   1.211 -0.0218 -0.3137 -0.4454
 3901TIP3    H133194   0.182   0.730   1.250  0.1424  0.4986 -0.4744
 3901TIP3    H233195   0.115   0.786   1.126 -0.3483 -2.4798 -1.6416
 3902TIP3   OH233196   6.121   4.446  13.505 -0.0850  0.0963 -0.9144
 3902TIP3    H133197   6.059   4.425  13.436 -2.2340  1.0425  0.6208
 3902TIP3    H233198   6.095   4.391  13.579 -0.8227  2.3413  0.5948
 3903TIP3   OH233199   3.646   0.873   2.404  0.5139  0.4640 -0.0944
 3903TIP3    H133200   3.642   0.851   2.497 -0.8420  0.1060 -0.2061
 3903TIP3    H233201   3.566   0.924   2.389  1.7829  2.4014 -0.6174
 3904TIP3   OH233202   0.196   2.932  12.732 -0.7203 -0.5682  0.0650
 3904TIP3    H133203   0.245   3.007  12.698 -0.0970 -0.7229  0.6084
 3904TIP3    H233204   0.139   2.968  12.799 -1.7802 -0.2997 -0.9430
 3905TIP3   OH233205   6.444   4.412   2.025 -0.8767  0.9215  0.3645
 3905TIP3    H133206   6.487   4.445   2.104 -0.0015 -1.5069  0.9637
 3905TIP3    H233207   6.510   4.422   1.956  0.3518 -1.7132  1.0490
 3906TIP3   OH233208   0.835   2.161  15.291 -0.5869 -0.6784 -0.5321
 3906TIP3    H133209   0.793   2.178  15.375  0.7112 -0.5801  0.1200
 3906TIP3    H233210   0.762   2.155  15.229 -1.7631 -3.0755  0.9442
 3907TIP3   OH233211   2.310   0.706  11.668 -0.3212 -0.1317  0.3852
 3907TIP3    H133212   2.399   0.699  11.704  0.3180 -0.8398 -1.2273
 3907TIP3    H233213   2.323   0.737  11.578 -1.8146  0.9396  0.5046
 3908TIP3   OH233214   2.130   3.305  12.867  0.3453  0.0939 -0.3183
 3908TIP3    H133215   2.205   3.250  12.890  0.2323  0.0848  0.0401
 3908TIP3    H233216   2.164   3.394  12.868  0.8106 -0.0402 -2.0438
 3909TIP3   OH233217   2.725   4.248  13.926 -0.1569 -0.3166 -0.5141
 3909TIP3    H133218   2.658   4.184  13.946  0.6741 -0.7371  1.1843
 3909TIP3    H233219   2.699   4.286  13.843 -4.2207  1.7883  1.4403
 3910TIP3   OH233220   0.553   3.561   6.118 -0.1088  0.2965  0.6987
 3910TIP3    H133221   0.459   3.579   6.119  0.1723  2.3065 -1.1154
 3910TIP3    H233222   0.587   3.606   6.196 -0.7092 -1.3262  1.9622
 3911TIP3   OH233223   6.470   6.094   0.731 -0.4649 -0.1056 -0.5432
 3911TIP3    H133224   6.436   6.024   0.786  0.6480 -0.0587  0.2399
 3911TIP3    H233225   6.420   6.171   0.758 -0.3432 -0.2072 -0.0041
 3912TIP3   OH233226   1.592   2.686  14.909  0.6813 -0.1207  0.1435
 3912TIP3    H133227   1.560   2.690  14.999  0.9123  0.1057  0.2163
 3912TIP3    H233228   1.543   2.753  14.862  1.1648  0.3489  0.2943
 3913TIP3   OH233229   1.625   1.015   4.419 -0.1803  0.0783  0.0756
 3913TIP3    H133230   1.665   0.930   4.402  0.2643  0.5935 -1.6329
 3913TIP3    H233231   1.530   0.998   4.415 -0.0938 -0.1244 -1.4785
 3914TIP3   OH233232   0.871   0.439   6.282  0.0862 -0.6198  0.0172
 3914TIP3    H133233   0.924   0.427   6.203  1.9923  0.7749  0.9975
 3914TIP3    H233234   0.935   0.458   6.351 -1.6895  2.3840  1.0215
 3915TIP3   OH233235   0.641   4.201  16.596 -0.8616  0.7523 -0.1869
 3915TIP3    H133236   0.623   4.107  16.600 -1.6578  0.8778 -0.5281
 3915TIP3    H233237   0.672   4.216  16.507 -0.7408  0.8117 -0.1347
 3916TIP3   OH233238   1.771   1.839   6.481 -0.8088 -0.7779  0.0433
 3916TIP3    H133239   1.788   1.887   6.399 -1.3382 -1.1786 -0.3121
 3916TIP3    H233240   1.853   1.795   6.500 -0.1354  0.6728  0.6672
 3917TIP3   OH233241   2.676   4.950   1.513  0.1991  0.2321 -0.1034
 3917TIP3    H133242   2.627   4.881   1.467  0.2157 -0.9341  1.5402
 3917TIP3    H233243   2.766   4.917   1.516  0.1907  0.2572  0.7649
 3918TIP3   OH233244   0.651   4.377  11.642 -0.3651 -0.2302  0.0450
 3918TIP3    H133245   0.702   4.325  11.704  1.7609 -0.9181 -2.1103
 3918TIP3    H233246   0.696   4.462  11.639 -1.1319  0.1960  0.2437
 3919TIP3   OH233247   1.136   3.583  14.031  0.0806 -0.6518  0.4622
 3919TIP3    H133248   1.147   3.630  14.114 -0.8718  1.9966 -0.7933
 3919TIP3    H233249   1.144   3.651  13.964 -0.8234 -2.4257 -1.5497
 3920TIP3   OH233250   2.578   1.597  12.704  0.5198  0.3449 -0.4440
 3920TIP3    H133251   2.487   1.588  12.674  0.1703 -0.3487  0.7537
 3920TIP3    H233252   2.580   1.682  12.748 -0.4725 -0.9653  2.3940
 3921TIP3   OH233253   1.685   2.884  10.507 -0.0362 -0.2533 -0.5413
 3921TIP3    H133254   1.726   2.930  10.434 -0.4667 -0.4086 -0.8840
 3921TIP3    H233255   1.639   2.810  10.467 -0.0844 -0.4736 -0.0917
 3922TIP3   OH233256   0.725   5.048  13.625  0.3522  0.0653  0.5504
 3922TIP3    H133257   0.797   5.090  13.579  0.9615  0.8212  2.1280
 3922TIP3    H233258   0.652   5.050  13.562  1.9315 -1.6830 -1.4790
 3923TIP3   OH233259   4.548   4.001   2.698  0.4479 -0.0418 -0.0115
 3923TIP3    H133260   4.590   4.082   2.669  1.1314 -0.7055 -0.9570
 3923TIP3    H233261   4.598   3.932   2.654  0.9950 -1.0740  2.1269
 3924TIP3   OH233262   2.239   2.784   4.460  0.5964 -0.0638  1.1376
 3924TIP3    H133263   2.155   2.739   4.453 -0.3650  1.7913 -0.2325
 3924TIP3    H233264   2.227   2.848   4.530  1.3582 -0.7088  1.8814
 3925TIP3   OH233265   5.951   0.335   2.908  0.4598 -0.5160  0.3675
 3925TIP3    H133266   5.990   0.417   2.879  0.2318 -0.6091 -0.2089
 3925TIP3    H233267   6.022   0.271   2.901  0.1756 -0.7191 -0.8362
 3926TIP3   OH233268   3.275   4.354  12.165  0.2778  0.2860  0.4156
 3926TIP3    H133269   3.189   4.326  12.195  0.3979  0.2581  0.7309
 3926TIP3    H233270   3.308   4.411  12.234  0.5731  0.1812  0.3632
 3927TIP3   OH233271   0.179   5.670   1.027  0.3648 -0.4476 -0.1110
 3927TIP3    H133272   0.260   5.695   1.072 -0.4146  1.0948  0.4994
 3927TIP3    H233273   0.140   5.604   1.084  0.0058  0.5870  0.8808
 3928TIP3   OH233274   6.165   0.131   1.914  0.6762  0.3192 -0.0559
 3928TIP3    H133275   6.246   0.101   1.873  0.1965  0.7754 -1.3951
 3928TIP3    H233276   6.107   0.054   1.910  0.2412  0.6870 -1.3393
 3929TIP3   OH233277   2.955   3.364  12.575  0.7645  0.0033 -0.1284
 3929TIP3    H133278   3.043   3.375  12.540  0.8031  0.8087  0.1983
 3929TIP3    H233279   2.897   3.385  12.502  0.8302 -1.0904 -0.5117
 3930TIP3   OH233280   3.091   1.443  15.523  0.5505  0.1149 -0.0882
 3930TIP3    H133281   3.017   1.434  15.463 -0.1734  0.0730  0.7971
 3930TIP3    H233282   3.142   1.363  15.511 -0.7830 -0.9346  0.9332
 3931TIP3   OH233283   6.654   5.247   2.753  0.1098 -0.1454  0.3801
 3931TIP3    H133284   6.641   5.157   2.722 -3.6821  0.4702 -0.2999
 3931TIP3    H233285   6.708   5.288   2.686  0.1731 -1.3961 -0.3702
 3932TIP3   OH233286   3.509   4.177  10.734  0.0062 -0.0199  0.1036
 3932TIP3    H133287   3.495   4.224  10.651 -0.1487 -2.2917 -1.2317
 3932TIP3    H233288   3.557   4.098  10.709  0.5964 -0.4227  2.3137
 3933TIP3   OH233289   2.225   2.412   1.150  0.5757  0.4128 -0.3238
 3933TIP3    H133290   2.299   2.426   1.209 -1.1879 -0.0696  2.1915
 3933TIP3    H233291   2.239   2.324   1.114  1.0738  0.1859  0.3986
 3934TIP3   OH233292   3.268   2.363   2.347 -0.6927  0.1690 -0.0067
 3934TIP3    H133293   3.247   2.274   2.321 -0.7256  0.2808 -0.3621
 3934TIP3    H233294   3.207   2.383   2.418 -0.7324 -0.0636  0.0246
 3935TIP3   OH233295   2.982   2.663  15.569 -0.5752 -0.3361  0.0341
 3935TIP3    H133296   2.976   2.587  15.512 -0.9643 -0.8702  0.7706
 3935TIP3    H233297   2.908   2.718  15.543 -1.4709 -1.1405  0.8091
 3936TIP3   OH233298   4.275   5.398  13.034 -0.1267  0.6554  0.3609
 3936TIP3    H133299   4.326   5.412  12.954  0.2189  0.4072  0.5386
 3936TIP3    H233300   4.294   5.474  13.089  0.2554  0.4395  0.5325
 3937TIP3   OH233301   3.410   2.491  11.742 -0.0727  0.1048  0.6042
 3937TIP3    H133302   3.453   2.556  11.798  0.1957  0.3033  0.1698
 3937TIP3    H233303   3.368   2.542  11.674  0.3177 -0.1860  0.1375
 3938TIP3   OH233304   1.551   3.956   2.348 -0.2019  0.0571 -0.6533
 3938TIP3    H133305   1.507   4.018   2.290  0.6312  1.3891  0.0607
 3938TIP3    H233306   1.643   3.963   2.324 -0.0667 -0.7147 -0.3663
 3939TIP3   OH233307   3.778   1.551   5.691  0.4462  0.0841 -0.2936
 3939TIP3    H133308   3.818   1.538   5.776  0.0166  0.0579 -0.0923
 3939TIP3    H233309   3.790   1.644   5.673  0.3786  0.1257 -0.1232
 3940TIP3   OH233310   4.089   3.156  11.224 -0.8952 -0.3280  0.5059
 3940TIP3    H133311   4.143   3.234  11.235 -1.3782 -0.1739  1.9925
 3940TIP3    H233312   4.046   3.168  11.139  0.6658 -0.0284 -0.2726
 3941TIP3   OH233313   4.538   2.898   2.340  0.2909  0.2452  0.0790
 3941TIP3    H133314   4.554   2.911   2.247  1.3717  1.2107  0.3760
 3941TIP3    H233315   4.579   2.814   2.360 -1.7088 -0.9773 -0.6940
 3942TIP3   OH233316   4.170   6.132   4.671 -0.0445  0.2390  0.0052
 3942TIP3    H133317   4.117   6.101   4.598 -0.1243 -0.0743  0.1976
 3942TIP3    H233318   4.184   6.055   4.726 -1.1949  0.7639  1.0857
 3943TIP3   OH233319   3.837   3.212  11.711 -0.9875 -0.0984  0.2252
 3943TIP3    H133320   3.834   3.120  11.683  0.2763  0.5490 -2.2815
 3943TIP3    H233321   3.885   3.210  11.794 -0.1434 -1.6028 -0.2624
 3944TIP3   OH233322   6.323   1.436  15.804  0.7414  0.1597 -0.8415
 3944TIP3    H133323   6.250   1.467  15.751  1.0421 -0.6829 -1.7713
 3944TIP3    H233324   6.283   1.370  15.862  0.6264  0.2676 -0.7964
 3945TIP3   OH233325   2.953   1.880   6.296  0.2267 -0.3227 -0.1111
 3945TIP3    H133326   2.873   1.837   6.263  0.1109 -0.6482  0.5793
 3945TIP3    H233327   3.003   1.809   6.336  1.0110 -0.1704 -0.7918
 3946TIP3   OH233328   5.237   0.166  15.529  0.1455  0.2803 -0.6617
 3946TIP3    H133329   5.164   0.113  15.496  0.8541 -0.9538 -0.3366
 3946TIP3    H233330   5.315   0.122  15.494  0.7274  2.3562 -2.1449
 3947TIP3   OH233331   6.120   3.303  16.449  0.2606 -0.2091 -0.2196
 3947TIP3    H133332   6.195   3.271  16.499  0.6547  1.7678  0.5759
 3947TIP3    H233333   6.045   3.291  16.508 -0.0342 -1.8478 -0.8751
 3948TIP3   OH233334   6.676   3.614   4.396 -0.2721  0.4967 -0.1992
 3948TIP3    H133335   6.621   3.692   4.393  1.0774  1.4757 -0.4851
 3948TIP3    H233336   6.765   3.646   4.378  0.6191 -0.8199  1.5187
 3949TIP3   OH233337   1.638   3.032  10.738  0.0736 -0.3900 -0.5307
 3949TIP3    H133338   1.683   3.117  10.733 -0.1521 -0.2487 -0.2064
 3949TIP3    H233339   1.665   2.986  10.658  1.8806 -0.8501  0.2822
 3950TIP3   OH233340   2.522   1.138  13.490  0.2578  0.7192 -0.2552
 3950TIP3    H133341   2.527   1.202  13.561  0.4493  1.2319 -0.7205
 3950TIP3    H233342   2.571   1.178  13.418  1.5155 -0.5221 -0.1319
 3951TIP3   OH233343   2.285   6.205   5.365 -0.0961 -0.2383 -0.5249
 3951TIP3    H133344   2.203   6.217   5.317  0.5359  0.7889 -1.3932
 3951TIP3    H233345   2.288   6.112   5.385 -1.0888 -0.4254 -1.1912
 3952TIP3   OH233346   1.417   0.340  11.283  0.7299 -0.2317  0.3833
 3952TIP3    H133347   1.336   0.361  11.235  1.2995  0.3966 -0.3311
 3952TIP3    H233348   1.487   0.359  11.220  1.3961 -1.8729  0.5882
 3953TIP3   OH233349   2.219   4.205  12.622  0.5409 -0.0904  0.5686
 3953TIP3    H133350   2.177   4.133  12.576 -0.6329 -0.1628  1.6725
 3953TIP3    H233351   2.186   4.197  12.712  1.0215  1.3351  0.8929
 3954TIP3   OH233352   2.031   1.979   2.688  0.3277 -0.0725 -0.6606
 3954TIP3    H133353   1.949   1.930   2.697  1.1746 -1.5064 -0.4350
 3954TIP3    H233354   2.024   2.049   2.754 -0.4840 -0.4950 -0.2761
 3955TIP3   OH233355   5.849   2.931   4.533 -0.4380 -0.1036 -0.0486
 3955TIP3    H133356   5.843   2.851   4.481 -1.4467 -0.4283  0.5588
 3955TIP3    H233357   5.851   3.001   4.468  0.4067 -0.5945 -0.5855
 3956TIP3   OH233358   5.648   3.533  13.673 -0.2063 -0.0758  0.1508
 3956TIP3    H133359   5.706   3.468  13.633 -0.7369 -0.3162 -0.2436
 3956TIP3    H233360   5.591   3.482  13.730  0.1478  0.1944  0.7481
 3957TIP3   OH233361   1.904   3.866  12.341  0.1761 -0.0692  0.6172
 3957TIP3    H133362   1.815   3.836  12.356  0.8634 -3.8264 -1.3702
 3957TIP3    H233363   1.959   3.799  12.383  1.9998  0.9137 -0.0964
 3958TIP3   OH233364   1.123   2.981  15.267 -0.2594  0.4932  0.2761
 3958TIP3    H133365   1.139   3.042  15.338  0.2193  1.2902 -0.4946
 3958TIP3    H233366   1.044   3.015  15.224 -1.9628 -1.3044  1.7977
 3959TIP3   OH233367   5.885   5.978  17.209 -0.1973  0.0388 -0.3487
 3959TIP3    H133368   5.845   6.058  17.175 -0.4570  0.6681  1.3741
 3959TIP3    H233369   5.920   6.002  17.294  2.6198 -0.8754 -1.1302
 3960TIP3   OH233370   2.969   4.139  10.977  0.5057 -0.2104 -0.3638
 3960TIP3    H133371   2.922   4.163  10.897 -1.0288 -0.3457  0.4731
 3960TIP3    H233372   2.901   4.130  11.044  1.5448 -1.8846  0.5453
 3961TIP3   OH233373   3.249   4.593   2.794 -0.5023 -0.6228 -0.5215
 3961TIP3    H133374   3.249   4.683   2.825 -0.2929 -1.1872  1.2152
 3961TIP3    H233375   3.307   4.594   2.718  0.1111  0.5585 -0.0721
 3962TIP3   OH233376   3.582   1.723  12.381 -0.2007  0.1663 -0.1598
 3962TIP3    H133377   3.542   1.640  12.408 -1.2900  0.5140 -0.6638
 3962TIP3    H233378   3.544   1.742  12.295  0.9375  0.6015 -0.5939
 3963TIP3   OH233379   5.608   3.581  11.780 -0.2114  0.3435 -0.5805
 3963TIP3    H133380   5.531   3.568  11.725  0.8488 -1.6419 -1.6783
 3963TIP3    H233381   5.572   3.598  11.867 -1.8951  0.3439 -1.2371
 3964TIP3   OH233382   1.896   5.402   3.144 -0.6605  0.1065  0.2893
 3964TIP3    H133383   1.895   5.308   3.126  1.2615 -0.0727  0.8886
 3964TIP3    H233384   1.989   5.422   3.158 -1.0542  2.0796  0.2590
 3965TIP3   OH233385   1.282   3.341   4.030  0.2463 -0.0988 -0.0153
 3965TIP3    H133386   1.373   3.371   4.036 -0.6872  3.0641  0.1202
 3965TIP3    H233387   1.235   3.414   3.990 -2.5463 -0.9434  1.4429
 3966TIP3   OH233388   1.289   4.610  15.977  0.1035  0.4206  0.2195
 3966TIP3    H133389   1.304   4.671  16.049  0.6710 -2.4247  2.7170
 3966TIP3    H233390   1.358   4.544  15.986 -1.4614 -1.5645 -1.1688
 3967TIP3   OH233391   3.420   3.661   4.267  0.0528  0.0464 -0.6307
 3967TIP3    H133392   3.458   3.656   4.179 -1.6205  0.2107 -1.4011
 3967TIP3    H233393   3.331   3.629   4.256 -0.2622  0.3031  0.9724
 3968TIP3   OH233394   6.405   4.586  13.598  0.3752  0.1025 -0.4771
 3968TIP3    H133395   6.324   4.569  13.645  0.7981 -0.3590  0.0983
 3968TIP3    H233396   6.474   4.571  13.663  0.9396  0.0227 -1.0841
 3969TIP3   OH233397   2.768   4.053  11.225 -0.0909 -0.4284 -0.6796
 3969TIP3    H133398   2.733   3.965  11.244 -0.7022  0.3451  2.2536
 3969TIP3    H233399   2.836   4.066  11.290  1.0626  0.7406 -2.0663
 3970TIP3   OH233400   1.141   0.545  14.860 -0.6415  0.1873  0.3002
 3970TIP3    H133401   1.218   0.599  14.848  0.0557 -0.7157  0.5600
 3970TIP3    H233402   1.147   0.478  14.792 -1.6514  0.6014 -0.2191
 3971TIP3   OH233403   6.562   2.996   3.231 -0.1092 -0.3449  0.2971
 3971TIP3    H133404   6.471   3.026   3.225  0.3166  0.6721 -1.5529
 3971TIP3    H233405   6.586   2.973   3.142  1.1823 -1.5305  0.9051
 3972TIP3   OH233406   5.220   5.388   3.063  0.3058 -0.2175 -0.4072
 3972TIP3    H133407   5.286   5.455   3.080  2.2463 -2.5222  2.1004
 3972TIP3    H233408   5.138   5.425   3.098  1.0354  1.2895 -0.2237
 3973TIP3   OH233409   5.060   4.218  14.378 -0.2882  0.5230  0.7613
 3973TIP3    H133410   4.994   4.220  14.310  1.3553  3.2932 -0.9524
 3973TIP3    H233411   5.104   4.133  14.368 -1.8301 -0.2354  0.2196
 3974TIP3   OH233412   5.554   1.306  13.650  0.4094 -0.2675  0.1691
 3974TIP3    H133413   5.527   1.231  13.703  0.7416 -1.1532 -0.8623
 3974TIP3    H233414   5.505   1.297  13.568  1.4750 -0.1578 -0.5129
 3975TIP3   OH233415   1.256   2.018   4.584  0.4511 -0.1841  0.1680
 3975TIP3    H133416   1.345   2.053   4.588  0.1885  0.4686  0.4265
 3975TIP3    H233417   1.233   2.022   4.491 -0.2055  1.9970  0.3693
 3976TIP3   OH233418   1.349   5.204   3.360  0.3311 -0.0660 -0.8916
 3976TIP3    H133419   1.261   5.205   3.321 -1.2659 -1.7166  2.2776
 3976TIP3    H233420   1.354   5.286   3.409 -0.7218 -1.1917  1.2390
 3977TIP3   OH233421   6.803   5.658   5.301  0.0008  0.1852  0.0356
 3977TIP3    H133422   6.835   5.601   5.232 -1.1570  0.5629 -0.8539
 3977TIP3    H233423   6.710   5.672   5.280 -0.8242 -0.9301  2.5153
 3978TIP3   OH233424   4.165   6.638   4.759  0.1056 -0.2729  0.3080
 3978TIP3    H133425   4.234   6.588   4.802 -0.3819 -0.5613  0.7601
 3978TIP3    H233426   4.084   6.592   4.781 -0.1921 -0.1843 -0.5704
 3979TIP3   OH233427   0.777   6.242   1.892  0.9149 -0.4791  0.0931
 3979TIP3    H133428   0.691   6.280   1.875  1.0750  0.3002  0.9124
 3979TIP3    H233429   0.809   6.214   1.806 -0.6547 -1.9259 -0.0788
 3980TIP3   OH233430   3.829   0.140  15.663  0.7610  0.1027  0.1731
 3980TIP3    H133431   3.824   0.045  15.653  0.6041  0.2767 -1.8625
 3980TIP3    H233432   3.770   0.175  15.596 -0.6002  1.6512  2.0622
 3981TIP3   OH233433   2.887   2.269  15.779  0.4920  0.0685  0.1137
 3981TIP3    H133434   2.872   2.361  15.798 -0.4865 -0.1687  0.5508
 3981TIP3    H233435   2.926   2.234  15.859  1.1642  0.1624 -0.1647
 3982TIP3   OH233436   0.608   2.980  12.408 -0.5192  0.1205  0.0467
 3982TIP3    H133437   0.523   2.999  12.448 -1.3805 -1.8006 -0.7806
 3982TIP3    H233438   0.663   2.951  12.481 -1.4693 -1.3993  0.2040
 3983TIP3   OH233439   6.172   1.799  12.624 -0.6408 -0.3795  0.0882
 3983TIP3    H133440   6.083   1.796  12.589 -0.5673  1.2678 -0.3054
 3983TIP3    H233441   6.192   1.892  12.631  1.1999 -0.7161 -0.1944
 3984TIP3   OH233442   3.534   4.123   3.902 -0.7346 -0.4939 -0.2881
 3984TIP3    H133443   3.541   4.034   3.936 -1.7824 -0.6082 -0.3506
 3984TIP3    H233444   3.457   4.122   3.846 -1.4134  0.7101  0.5586
 3985TIP3   OH233445   2.963   2.555   2.886 -0.0861  0.0415  0.5090
 3985TIP3    H133446   3.036   2.525   2.831  1.1191 -1.1543  2.5925
 3985TIP3    H233447   2.886   2.548   2.830  0.9271 -2.0091 -0.7779
 3986TIP3   OH233448   2.904   2.943  14.315  0.2955 -0.6658 -0.1407
 3986TIP3    H133449   2.824   2.900  14.286  1.1965 -0.7995 -2.6471
 3986TIP3    H233450   2.874   3.027  14.351 -0.9868 -0.7295 -0.9932
 3987TIP3   OH233451   6.579   1.071  13.965  0.3160  0.4727  0.0468
 3987TIP3    H133452   6.659   1.075  13.914  1.5636  0.0577  1.8535
 3987TIP3    H233453   6.520   1.016  13.914  2.2326 -1.6341 -0.0333
 3988TIP3   OH233454   1.108   1.313  15.872  0.7198 -0.0273 -0.3944
 3988TIP3    H133455   1.040   1.269  15.822 -0.5020  2.1259 -0.7443
 3988TIP3    H233456   1.180   1.323  15.811 -0.4004  1.7219 -1.4918
 3989TIP3   OH233457   2.817   0.985  13.390  0.3256 -0.2501  0.5602
 3989TIP3    H133458   2.806   1.074  13.358 -0.7418  0.0091  1.6019
 3989TIP3    H233459   2.841   0.995  13.482 -2.0173 -1.0217  1.3214
 3990TIP3   OH233460   6.428   4.127  15.191  0.5255  0.3654 -0.3356
 3990TIP3    H133461   6.443   4.201  15.251 -0.4064  0.5050 -0.2529
 3990TIP3    H233462   6.515   4.092  15.173  0.8131  0.1662  1.3053
 3991TIP3   OH233463   3.451   5.139   2.594 -0.3930 -0.2045  0.0154
 3991TIP3    H133464   3.505   5.218   2.584 -1.2374  0.3180 -0.5981
 3991TIP3    H233465   3.510   5.074   2.632  0.4106  0.6248  0.2315
 3992TIP3   OH233466   4.814   5.788  13.518 -0.7051  0.5694 -0.0453
 3992TIP3    H133467   4.761   5.711  13.499 -0.6590 -0.0724  2.2232
 3992TIP3    H233468   4.761   5.841  13.577  0.3770  0.8612  0.7096
 3993TIP3   OH233469   6.717   4.842  10.542  0.5207  0.0456 -0.0027
 3993TIP3    H133470   6.650   4.905  10.568 -0.4500 -0.6002 -0.8203
 3993TIP3    H233471   6.722   4.780  10.614 -0.6114 -0.5414 -0.4035
 3994TIP3   OH233472   4.415   5.408   5.235 -1.1085 -0.0559  0.0152
 3994TIP3    H133473   4.393   5.326   5.190 -1.5733  0.8746 -1.5213
 3994TIP3    H233474   4.508   5.422   5.217 -0.6015 -0.9924  1.6052
 3995TIP3   OH233475   6.608   3.698  15.127  0.0936  0.5964  0.5808
 3995TIP3    H133476   6.578   3.744  15.205  1.4037  0.7234  1.0410
 3995TIP3    H233477   6.704   3.699  15.134  0.2031 -0.3900 -0.4520
 3996TIP3   OH233478   5.545   6.066  12.503  0.2805  0.0574 -0.3971
 3996TIP3    H133479   5.509   6.024  12.581  0.9224 -0.3724 -0.3192
 3996TIP3    H233480   5.469   6.101  12.456 -0.0638  1.0248  0.8201
 3997TIP3   OH233481   3.620   4.706   1.338  0.1301  0.1961 -0.0087
 3997TIP3    H133482   3.571   4.651   1.399  3.5368 -0.6294  2.2241
 3997TIP3    H233483   3.658   4.645   1.275  0.2428  0.5295 -0.2670
 3998TIP3   OH233484   5.908   3.373  16.657  0.2286 -0.1103  0.0850
 3998TIP3    H133485   5.859   3.324  16.723  1.1369  0.1206  0.9523
 3998TIP3    H233486   5.909   3.463  16.690 -0.6245  0.3358 -1.0257
 3999TIP3   OH233487   0.496   4.079  11.744  0.2886  0.4166 -0.2587
 3999TIP3    H133488   0.513   4.093  11.837  2.0120 -0.3794 -0.4068
 3999TIP3    H233489   0.583   4.071  11.704 -0.4197 -0.4393 -1.7435
 4000TIP3   OH233490   1.715   0.698  11.134  0.0139 -0.8475 -0.4205
 4000TIP3    H133491   1.727   0.643  11.056 -0.2184  1.4507 -2.1778
 4000TIP3    H233492   1.750   0.783  11.109 -1.5886  0.4397  1.4315
 4001TIP3   OH233493   2.259   0.607  13.609 -0.2776 -0.2768 -0.0675
 4001TIP3    H133494   2.276   0.689  13.563 -1.0662  0.3211  0.6749
 4001TIP3    H233495   2.264   0.539  13.541  0.0534  0.4154 -0.7445
 4002TIP3   OH233496   1.749   5.772   1.488  0.5138 -0.1416  0.1403
 4002TIP3    H133497   1.766   5.828   1.563 -3.2380  0.6306  0.6115
 4002TIP3    H233498   1.680   5.713   1.518  2.8537 -3.7780 -0.9979
 4003TIP3   OH233499   4.753   6.528  13.843  0.3090  0.1338 -0.1635
 4003TIP3    H133500   4.775   6.517  13.936 -0.5097 -1.5269 -0.1284
 4003TIP3    H233501   4.751   6.622  13.830  2.6092  0.4115  0.9603
 4004TIP3   OH233502   2.110   0.339   3.286 -0.5739  0.4969  0.5662
 4004TIP3    H133503   2.105   0.399   3.212 -0.1580  0.3357  0.4053
 4004TIP3    H233504   2.019   0.318   3.306 -0.6845  0.3963 -0.0176
 4005TIP3   OH233505   4.728   3.063   5.104  0.3527  0.0980 -0.1152
 4005TIP3    H133506   4.730   3.014   5.187  1.1282 -0.9525 -0.7250
 4005TIP3    H233507   4.665   3.016   5.050 -1.2828  1.6526  0.3529
 4006TIP3   OH233508   5.662   0.533   4.865  0.1402  0.0294  0.3104
 4006TIP3    H133509   5.625   0.569   4.784 -2.0425  1.7647  1.9539
 4006TIP3    H233510   5.692   0.609   4.914 -1.0126 -0.6605  2.2246
 4007TIP3   OH233511   6.364   3.563   1.613  0.2204 -0.3928  0.0800
 4007TIP3    H133512   6.389   3.570   1.705  1.8523  2.1494 -0.4593
 4007TIP3    H233513   6.300   3.634   1.600  3.0699  2.1356 -1.5349
 4008TIP3   OH233514   6.472   6.021   2.829  0.2227  0.2456 -0.3251
 4008TIP3    H133515   6.529   6.094   2.851 -0.1839  0.3254  0.4809
 4008TIP3    H233516   6.530   5.957   2.787  1.2171 -0.2948  1.7526
 4009TIP3   OH233517   6.800   3.030   6.872 -0.3961 -0.1432  0.6729
 4009TIP3    H133518   6.741   2.955   6.861 -1.6575  1.1120 -2.5606
 4009TIP3    H233519   6.881   3.003   6.829 -0.5543  0.0038  0.2722
 4010TIP3   OH233520   3.901   0.362   2.830  0.2598  0.6384 -0.9782
 4010TIP3    H133521   3.867   0.430   2.772 -0.9195  1.7646  0.9342
 4010TIP3    H233522   3.823   0.315   2.860  0.9303 -0.5482 -1.0172
 4011TIP3   OH233523   2.320   0.915   4.477 -0.3844 -0.0973 -0.7100
 4011TIP3    H133524   2.274   0.952   4.402  0.1236 -0.0515 -1.0061
 4011TIP3    H233525   2.312   0.820   4.467 -0.1477 -0.0941 -0.9317
 4012TIP3   OH233526   3.627   4.723  15.794 -0.2222  0.2359  0.6801
 4012TIP3    H133527   3.620   4.686  15.882  2.1295 -0.1876  0.7586
 4012TIP3    H233528   3.676   4.657  15.745 -3.4797 -0.6514 -1.7101
 4013TIP3   OH233529   0.088   5.799  10.394 -0.2406  0.2440 -0.1857
 4013TIP3    H133530  -0.006   5.777  10.394 -0.0550 -0.6192 -1.1421
 4013TIP3    H233531   0.129   5.729  10.342  1.1975 -0.3933  1.7235
 4014TIP3   OH233532   5.870   2.462  13.204 -0.0109  0.0650  0.2114
 4014TIP3    H133533   5.952   2.416  13.190 -0.2511 -0.0495 -0.9209
 4014TIP3    H233534   5.877   2.542  13.151 -1.1741 -0.6489 -1.0949
 4015TIP3   OH233535   4.394   6.528  14.821  0.1282 -0.0011 -0.0915
 4015TIP3    H133536   4.333   6.457  14.838 -0.0007  0.3219  0.8383
 4015TIP3    H233537   4.468   6.513  14.880 -0.9323  1.8710  1.8506
 4016TIP3   OH233538   1.448   4.879  11.238 -0.4143 -1.0211 -0.4921
 4016TIP3    H133539   1.511   4.912  11.174 -0.2168 -0.1912  0.1242
 4016TIP3    H233540   1.420   4.794  11.203  0.9101 -1.3160 -0.8548
 4017TIP3   OH233541   3.264   3.999   2.480  0.1212 -0.0654  0.0858
 4017TIP3    H133542   3.233   3.913   2.509 -1.5884  0.6523  0.5154
 4017TIP3    H233543   3.242   4.003   2.387  1.0148 -0.4155 -0.1519
 4018TIP3   OH233544   6.181   2.126  14.375 -0.4587 -0.3215  0.4506
 4018TIP3    H133545   6.172   2.205  14.323 -2.0178 -0.3427  0.6295
 4018TIP3    H233546   6.205   2.157  14.462  1.9956 -0.2778 -0.1767
 4019TIP3   OH233547   4.878   0.860   5.760 -0.6803 -0.2460  0.9836
 4019TIP3    H133548   4.911   0.771   5.772  0.6855  0.1997  0.7059
 4019TIP3    H233549   4.844   0.861   5.671  0.5297 -0.1477  0.4971
 4020TIP3   OH233550   2.515   4.471   3.834 -0.5636 -0.3309 -0.1970
 4020TIP3    H133551   2.553   4.554   3.808 -0.0174 -0.6049 -0.2769
 4020TIP3    H233552   2.500   4.424   3.751 -1.0697 -0.2289 -0.1673
 4021TIP3   OH233553   2.528   5.925  13.900 -0.1213 -0.3562  0.4774
 4021TIP3    H133554   2.620   5.909  13.922 -0.2431 -0.8774  0.6086
 4021TIP3    H233555   2.515   6.017  13.921  0.9422  0.3133 -1.5041
 4022TIP3   OH233556   5.169   4.472  14.369 -0.0122  0.1316 -0.0664
 4022TIP3    H133557   5.080   4.503  14.382  0.0534  0.4883 -0.4260
 4022TIP3    H233558   5.167   4.379  14.393 -0.7690 -0.1749 -1.2244
 4023TIP3   OH233559   0.769   4.447   5.549  0.2003  0.0007 -0.7260
 4023TIP3    H133560   0.826   4.505   5.599 -1.4624 -1.0506  2.6613
 4023TIP3    H233561   0.711   4.506   5.502 -0.2318  1.1515  1.1473
 4024TIP3   OH233562   3.640   5.015   1.827  0.0972 -0.3164  0.3946
 4024TIP3    H133563   3.696   5.088   1.801 -2.4364  1.2747 -1.0495
 4024TIP3    H233564   3.561   5.056   1.862 -2.0055 -2.2354 -1.7292
 4025TIP3   OH233565   6.358   5.768  14.260  0.1698  0.3606  0.9368
 4025TIP3    H133566   6.266   5.779  14.234 -0.1624 -0.9617  1.4619
 4025TIP3    H233567   6.408   5.804  14.187 -0.7578 -0.5500 -0.1823
 4026TIP3   OH233568   1.931   1.640   2.445 -0.5308 -0.9642 -0.2453
 4026TIP3    H133569   1.863   1.600   2.498  0.3291 -2.5981 -0.3349
 4026TIP3    H233570   2.013   1.610   2.483  0.2380  1.6374  0.3969
 4027TIP3   OH233571   3.341   6.342   5.658  0.4548  0.0322  0.6041
 4027TIP3    H133572   3.249   6.367   5.670  0.3841 -0.0170  0.1640
 4027TIP3    H233573   3.341   6.247   5.665  0.3183 -0.0465 -0.3947
 4028TIP3   OH233574   5.584   6.217   2.361 -0.2865 -0.1270  0.1674
 4028TIP3    H133575   5.574   6.308   2.391 -0.8685 -0.7270  1.8692
 4028TIP3    H233576   5.677   6.199   2.374  0.3145  0.8813 -2.2420
 4029TIP3   OH233577   2.030   4.645  11.717 -0.7037 -0.8926 -0.0869
 4029TIP3    H133578   1.936   4.644  11.698 -0.5270 -2.2428 -1.0535
 4029TIP3    H233579   2.072   4.644  11.631  0.2776  2.0046  0.2404
 4030TIP3   OH233580   2.712   3.822   2.174  0.8831  0.0536 -0.4258
 4030TIP3    H133581   2.622   3.794   2.191  1.3923 -1.8261 -0.6197
 4030TIP3    H233582   2.728   3.891   2.238 -0.4160 -0.1712  0.1802
 4031TIP3   OH233583   1.043   5.765  14.098 -0.5024  0.0650 -0.0714
 4031TIP3    H133584   0.995   5.838  14.136  0.5498  0.6766  0.1196
 4031TIP3    H233585   1.093   5.728  14.171  0.2492  0.2045 -0.5002
 4032TIP3   OH233586   5.178   2.561   4.595  0.2322  0.2315  0.0529
 4032TIP3    H133587   5.167   2.625   4.665 -0.7707  0.0532  0.0607
 4032TIP3    H233588   5.137   2.481   4.628 -0.5328  0.2364 -0.8604
 4033TIP3   OH233589   1.269   0.746  12.190  0.0691  0.0505  0.2872
 4033TIP3    H133590   1.295   0.681  12.255 -0.5886 -0.0212  0.4938
 4033TIP3    H233591   1.203   0.799  12.234  1.3099  1.5047  0.4466
 4034TIP3   OH233592   6.049   4.006  16.818  0.0492  0.4140 -0.5541
 4034TIP3    H133593   6.082   4.017  16.729  0.2970  1.9159 -0.3108
 4034TIP3    H233594   6.124   4.027  16.874  0.0764 -1.1445  0.0266
 4035TIP3   OH233595   4.553   4.709  12.904 -0.1762 -0.2734  0.6109
 4035TIP3    H133596   4.562   4.665  12.820  2.2890 -1.3184  1.3391
 4035TIP3    H233597   4.488   4.656  12.951  1.1334 -1.9170  0.6680
 4036TIP3   OH233598   4.607   2.485   2.750  0.1510 -0.0341 -0.4608
 4036TIP3    H133599   4.625   2.391   2.748 -0.3894 -0.1222 -2.0553
 4036TIP3    H233600   4.661   2.521   2.681  0.8579  0.9521  0.5769
 4037TIP3   OH233601   6.446   6.084   1.178  0.1353  0.2603  0.0526
 4037TIP3    H133602   6.426   6.170   1.141  1.5929  0.3781 -0.5094
 4037TIP3    H233603   6.415   6.089   1.268 -3.1392  0.1023 -0.9250
 4038TIP3   OH233604   0.131   0.547  13.366 -0.0436  0.4256 -0.2689
 4038TIP3    H133605   0.140   0.636  13.333  2.7697  1.4254  2.7223
 4038TIP3    H233606   0.104   0.556  13.457 -0.3305 -1.8361 -0.0560
 4039TIP3   OH233607   2.077   1.975   5.355 -0.6374  0.6673 -0.1937
 4039TIP3    H133608   2.087   1.972   5.259  2.3963  2.7250 -0.0554
 4039TIP3    H233609   2.154   1.930   5.388 -1.3033  0.6001  1.3256
 4040TIP3   OH233610   2.663   3.747  14.958  0.1259  0.1159  0.0418
 4040TIP3    H133611   2.586   3.706  14.997 -0.6801  3.2048  2.0910
 4040TIP3    H233612   2.733   3.733  15.022 -0.2894  2.1343  1.0348
 4041TIP3   OH233613   5.585   4.116   0.729 -0.3322 -0.7039  0.4121
 4041TIP3    H133614   5.594   4.106   0.635  0.9040 -1.7283  0.6260
 4041TIP3    H233615   5.543   4.202   0.739  0.4389 -0.1178 -1.0260
 4042TIP3   OH233616   3.870   6.490  10.590 -0.0272 -0.6670 -0.0663
 4042TIP3    H133617   3.799   6.453  10.538  0.4867 -0.0242 -1.2488
 4042TIP3    H233618   3.849   6.583  10.597 -0.1416 -0.7549  0.9791
 4043TIP3   OH233619   2.176   3.995  15.920  0.0252 -0.3083  0.2179
 4043TIP3    H133620   2.217   3.911  15.899  0.1017 -0.0841 -0.5832
 4043TIP3    H233621   2.249   4.057  15.923  0.2005 -0.5673  2.6213
 4044TIP3   OH233622   4.205   2.794  11.080  0.0173  0.0768  0.0095
 4044TIP3    H133623   4.122   2.806  11.034  1.0923  2.8490 -1.4346
 4044TIP3    H233624   4.238   2.710  11.048 -0.7880  0.4107 -1.8041
 4045TIP3   OH233625   0.927   2.582   5.040  0.1120  0.4894 -0.3200
 4045TIP3    H133626   0.894   2.497   5.013  0.1302  0.1843  0.6196
 4045TIP3    H233627   0.849   2.636   5.051 -0.0622 -0.0714  1.3507
 4046TIP3   OH233628   6.298   1.918   5.267 -0.0650  0.6986 -0.5922
 4046TIP3    H133629   6.359   1.908   5.340 -1.3892 -0.9853  0.3610
 4046TIP3    H233630   6.323   1.849   5.205 -0.1173  0.9179 -0.8622
 4047TIP3   OH233631   3.962   2.247   2.628  0.3326 -0.2302 -0.2725
 4047TIP3    H133632   3.877   2.204   2.616 -0.1597  0.3816  0.8402
 4047TIP3    H233633   3.984   2.231   2.720  3.4128 -3.8928 -1.3895
 4048TIP3   OH233634   2.394   3.707   5.671  0.3027 -0.3690 -0.4302
 4048TIP3    H133635   2.452   3.759   5.615  0.0377  0.7112  0.2809
 4048TIP3    H233636   2.314   3.698   5.620  0.0544  0.6270 -0.2247
 4049TIP3   OH233637   0.325   6.667  13.796 -0.4262 -0.1168 -0.1838
 4049TIP3    H133638   0.384   6.593  13.809 -1.5615 -0.7324  1.8049
 4049TIP3    H233639   0.277   6.645  13.716  2.3218  0.6961 -2.2285
 4050TIP3   OH233640   6.798   3.673  16.891 -0.3475 -0.7342  0.2251
 4050TIP3    H133641   6.719   3.634  16.854 -1.7107  1.2619  0.8065
 4050TIP3    H233642   6.819   3.745  16.831  1.3707 -1.5495 -0.1937
 4051TIP3   OH233643   1.324   5.042   3.580  0.2874  0.2184  0.0802
 4051TIP3    H133644   1.405   5.008   3.619  0.1164 -0.9380 -0.5236
 4051TIP3    H233645   1.353   5.098   3.509  0.5644  0.6084  0.4921
 4052TIP3   OH233646   5.561   0.510  15.365  0.3797 -0.9553 -0.2129
 4052TIP3    H133647   5.506   0.563  15.307 -1.7298 -0.9186  1.6734
 4052TIP3    H233648   5.605   0.448  15.306  0.1521  0.5460 -2.0690
 4053TIP3   OH233649   2.643   5.131  14.693  0.2567  0.0209 -0.5832
 4053TIP3    H133650   2.651   5.120  14.788  0.2113  0.6949 -0.4967
 4053TIP3    H233651   2.732   5.154  14.665  0.2806 -0.2285 -0.7126
 4054TIP3   OH233652   4.335   6.800  15.440  0.3612  0.0813  0.2261
 4054TIP3    H133653   4.417   6.810  15.391 -0.0943  0.4685 -0.4768
 4054TIP3    H233654   4.268   6.789  15.372 -0.5875  2.6618  0.6505
 4055TIP3   OH233655   6.155   1.043  15.422 -0.7371 -0.1690 -0.2787
 4055TIP3    H133656   6.179   0.953  15.398 -2.3374 -0.7727  0.2169
 4055TIP3    H233657   6.059   1.041  15.427 -0.7795  1.5095 -0.0071
 4056TIP3   OH233658   0.273   5.169  12.469  0.4367  0.0692 -0.2599
 4056TIP3    H133659   0.224   5.248  12.489 -1.5142 -1.5427  2.0616
 4056TIP3    H233660   0.289   5.173  12.375  0.6883  3.2955 -0.1796
 4057TIP3   OH233661   1.293   4.349  16.953 -0.2913 -0.0136 -0.5901
 4057TIP3    H133662   1.277   4.399  16.872 -0.1483 -1.1075 -1.3180
 4057TIP3    H233663   1.258   4.262  16.934  1.9378 -1.0066 -0.3711
 4058TIP3   OH233664   5.949   0.742   2.353 -0.0101 -0.0989 -0.1533
 4058TIP3    H133665   5.949   0.648   2.368  1.5285 -0.4060 -1.6882
 4058TIP3    H233666   5.933   0.780   2.439  2.0567 -1.7440  1.0590
 4059TIP3   OH233667   4.869   5.127   1.435 -0.3936  0.3506 -0.5436
 4059TIP3    H133668   4.901   5.092   1.518  1.3347 -0.2940 -1.4390
 4059TIP3    H233669   4.847   5.050   1.382  0.4992  0.6679 -1.4139
 4060TIP3   OH233670   6.745   2.930   1.054  0.1924  0.0475  0.0879
 4060TIP3    H133671   6.781   2.998   0.997  0.5762 -0.3052 -0.0905
 4060TIP3    H233672   6.707   2.979   1.128 -2.5369  0.7355 -1.6043
 4061TIP3   OH233673   4.133   6.227   3.800  0.4901 -0.0116  0.1180
 4061TIP3    H133674   4.175   6.313   3.807 -0.3230  0.5741 -1.5653
 4061TIP3    H233675   4.074   6.236   3.725  0.3456 -2.0256 -0.0554
 4062TIP3   OH233676   4.164   1.619  11.396  0.2299 -0.0590  0.0577
 4062TIP3    H133677   4.137   1.703  11.359 -0.3622  0.0576  0.7378
 4062TIP3    H233678   4.186   1.565  11.320  0.4160  0.6409 -0.3931
 4063TIP3   OH233679   2.375   1.144   3.146  0.5389  0.4035 -0.3472
 4063TIP3    H133680   2.321   1.081   3.194 -1.6292  1.1804 -1.5720
 4063TIP3    H233681   2.413   1.200   3.213 -0.6809  0.1501  0.5908
 4064TIP3   OH233682   0.334   2.034  15.527  0.9280  0.0544 -0.5602
 4064TIP3    H133683   0.283   2.019  15.447 -0.7145 -2.7750  0.8516
 4064TIP3    H233684   0.351   1.946  15.561 -0.7196  1.1073  3.5408
 4065TIP3   OH233685   2.723   5.775  14.481 -0.3554 -0.0629 -0.3991
 4065TIP3    H133686   2.629   5.772  14.466 -0.6693 -0.8792  1.4662
 4065TIP3    H233687   2.745   5.690  14.519  0.6512  1.0091  1.5874
 4066TIP3   OH233688   6.273   3.310   5.072  0.1307 -0.0179 -0.0816
 4066TIP3    H133689   6.294   3.265   5.154  0.6014 -0.5318 -0.4824
 4066TIP3    H233690   6.356   3.317   5.026 -0.0000  0.9209 -0.2030
 4067TIP3   OH233691   5.784   3.478  11.494  0.3334 -0.4359  0.5741
 4067TIP3    H133692   5.865   3.485  11.443 -0.3937 -0.1080 -0.5643
 4067TIP3    H233693   5.810   3.504  11.583  1.1038  1.5253 -0.1500
 4068TIP3   OH233694   5.369   2.357  11.337  0.1736 -0.2821  0.2176
 4068TIP3    H133695   5.356   2.317  11.423 -1.0165  0.9271  0.6342
 4068TIP3    H233696   5.415   2.439  11.356  2.5463 -1.3236 -0.6202
 4069TIP3   OH233697   2.253   6.190   4.984 -0.0536  0.0910 -0.4326
 4069TIP3    H133698   2.200   6.124   4.941 -0.8404  1.0531 -0.9712
 4069TIP3    H233699   2.309   6.141   5.044  0.0024 -1.1306 -1.4600
 4070TIP3   OH233700   3.557   3.582  14.433  0.1657 -0.2687 -0.2578
 4070TIP3    H133701   3.634   3.546  14.390  0.1408  1.1071 -1.5695
 4070TIP3    H233702   3.494   3.595  14.362 -0.1553  1.3911  0.2834
 4071TIP3   OH233703   1.603   2.029   5.712 -0.1293 -0.2593  0.0566
 4071TIP3    H133704   1.543   1.993   5.647  1.0113  1.0498 -1.8453
 4071TIP3    H233705   1.690   2.018   5.674  0.7540 -0.7887  2.0743
 4072TIP3   OH233706   0.343   5.358   5.367 -0.1941  0.1062  0.3841
 4072TIP3    H133707   0.327   5.285   5.308  1.8215 -1.0118  1.1347
 4072TIP3    H233708   0.288   5.340   5.443  0.3706 -0.7092  0.6103
 4073TIP3   OH233709   2.509   5.298   2.237 -0.4133  0.1578 -0.2346
 4073TIP3    H133710   2.603   5.305   2.254 -0.3083  0.7770 -1.0433
 4073TIP3    H233711   2.481   5.224   2.292  1.4402 -3.2569 -3.3806
 4074TIP3   OH233712   6.012   5.903   5.091  0.0144 -0.2995  0.1274
 4074TIP3    H133713   5.950   5.950   5.146  0.8116 -0.7015  1.4161
 4074TIP3    H233714   6.052   5.839   5.149  2.3850  0.6120 -0.3809
 4075TIP3   OH233715   4.190   0.072  14.135 -0.3482 -0.6009 -0.8893
 4075TIP3    H133716   4.169   0.109  14.049  1.0741  0.0114 -1.0120
 4075TIP3    H233717   4.151   0.132  14.198  0.4555  0.1743 -1.1073
 4076TIP3   OH233718   6.791   6.565   2.660  0.6053  0.4515  0.3326
 4076TIP3    H133719   6.780   6.562   2.565  0.4453  0.7508  0.3401
 4076TIP3    H233720   6.736   6.638   2.688  0.3177  0.0970  0.7037
 4077TIP3   OH233721   2.697   6.252  12.808 -0.0247 -0.1232  0.2469
 4077TIP3    H133722   2.722   6.165  12.778  1.2384  0.1538  0.4297
 4077TIP3    H233723   2.643   6.288  12.738 -3.2290 -2.1666  1.4244
 4078TIP3   OH233724   6.065   2.499  15.940  0.1264  0.0975  0.4330
 4078TIP3    H133725   6.039   2.407  15.929 -0.6783  0.4738 -1.0590
 4078TIP3    H233726   6.009   2.531  16.011  0.0797 -0.4309  0.6403
 4079TIP3   OH233727   0.241   0.799   6.115  0.1387 -0.7904 -0.3993
 4079TIP3    H133728   0.281   0.719   6.149  1.7731  0.2339  0.1858
 4079TIP3    H233729   0.192   0.835   6.189 -1.0881 -1.5046 -0.8256
 4080TIP3   OH233730   4.832   3.885   0.041  0.0850 -0.1469  0.5649
 4080TIP3    H133731   4.887   3.874  -0.036  0.1412 -0.3864  0.6379
 4080TIP3    H233732   4.811   3.796   0.068  0.7827 -0.0855  1.3449
 4081TIP3   OH233733   6.185   4.601  16.892 -0.6979  0.7010 -0.1026
 4081TIP3    H133734   6.262   4.652  16.866  0.0848 -0.4551 -0.1379
 4081TIP3    H233735   6.110   4.655  16.865  0.0586  2.5890  1.3952
 4082TIP3   OH233736   2.131   5.655   6.595  0.2151  0.6692 -0.1289
 4082TIP3    H133737   2.040   5.633   6.575  0.4317 -0.9225  0.4654
 4082TIP3    H233738   2.176   5.648   6.511  0.0707 -0.1801 -0.1480
 4083TIP3   OH233739   0.100   0.122  13.478  0.4021 -0.2368  0.1715
 4083TIP3    H133740   0.150   0.167  13.410  1.9305 -1.1396  0.6564
 4083TIP3    H233741   0.043   0.190  13.514 -1.3885  0.0306 -2.7667
 4084TIP3   OH233742   5.723   6.257   1.200  0.7265  0.1164 -0.3263
 4084TIP3    H133743   5.743   6.351   1.201  0.4811  0.1662  0.4147
 4084TIP3    H233744   5.772   6.223   1.125  1.3706  0.7174 -0.1943
 4085TIP3   OH233745   2.730   1.450   2.158  0.4650 -0.2091  0.8217
 4085TIP3    H133746   2.667   1.494   2.214  0.5235  0.7087  0.1757
 4085TIP3    H233747   2.680   1.420   2.082  1.0201  1.8351 -0.4225
 4086TIP3   OH233748   4.016   2.539  15.315  0.2936  0.0086  0.6447
 4086TIP3    H133749   3.963   2.559  15.238  0.9304 -0.1087  0.1750
 4086TIP3    H233750   4.013   2.619  15.367 -2.1202 -0.6751  1.6919
 4087TIP3   OH233751   5.191   5.232   4.498  0.2163  0.1292  0.4301
 4087TIP3    H133752   5.275   5.198   4.529 -0.4370  0.1065  2.3028
 4087TIP3    H233753   5.126   5.171   4.533 -0.6117  0.2942 -0.7792
 4088TIP3   OH233754   0.319   4.078   5.261 -0.1898 -0.6138 -0.1337
 4088TIP3    H133755   0.388   4.133   5.224 -0.2870 -0.7789 -0.5593
 4088TIP3    H233756   0.293   4.123   5.341  0.1462 -0.3503 -0.1727
 4089TIP3   OH233757   2.887   6.772   2.910 -0.3579  0.0901  0.3919
 4089TIP3    H133758   2.828   6.799   2.839 -1.4899 -0.9433  0.8954
 4089TIP3    H233759   2.968   6.747   2.865  0.0895  2.4464 -0.2323
 4090TIP3   OH233760   0.087   3.138  12.538  0.1003 -0.1771  0.6990
 4090TIP3    H133761   0.183   3.135  12.538  0.2358  2.0841  1.7799
 4090TIP3    H233762   0.066   3.219  12.586 -2.2943  0.4424 -1.2158
 4091TIP3   OH233763   4.213   2.561  13.961 -0.2003  0.2897 -0.2569
 4091TIP3    H133764   4.193   2.558  14.054 -0.6950 -1.8156 -0.3900
 4091TIP3    H233765   4.175   2.644  13.931  1.1949  1.7054  1.6293
 4092TIP3   OH233766   4.656   4.152   3.284  0.0864  0.0525 -0.6573
 4092TIP3    H133767   4.591   4.148   3.355 -0.1139  1.1676 -0.7646
 4092TIP3    H233768   4.669   4.060   3.259 -0.3413 -0.3083  0.3654
 4093TIP3   OH233769   5.584   6.333   4.619 -0.0647 -0.8676  0.5161
 4093TIP3    H133770   5.502   6.296   4.586  0.4865 -0.8530 -0.9645
 4093TIP3    H233771   5.577   6.427   4.603  0.7091 -1.0024 -0.7875
 4094TIP3   OH233772   1.212   1.552  11.228  0.1082 -0.5605  0.4965
 4094TIP3    H133773   1.276   1.495  11.184  1.3707  2.5541 -2.1317
 4094TIP3    H233774   1.130   1.537  11.179  0.9979  1.3518 -1.7852
 4095TIP3   OH233775   3.655   6.337  13.535 -0.2906  0.3694 -0.3359
 4095TIP3    H133776   3.596   6.388  13.480 -0.8248  1.1078  0.8675
 4095TIP3    H233777   3.628   6.246  13.521 -0.8126  0.5979 -0.8348
 4096TIP3   OH233778   1.524   2.169   1.051  0.2050  0.3027 -0.2489
 4096TIP3    H133779   1.576   2.243   1.019 -0.4775  0.8087 -0.2018
 4096TIP3    H233780   1.440   2.208   1.075 -0.3453 -0.5801 -0.7181
 4097TIP3   OH233781   4.833   5.336   3.932  0.0530  0.4031 -0.0928
 4097TIP3    H133782   4.880   5.351   3.850 -1.3956  3.5416 -0.5148
 4097TIP3    H233783   4.749   5.299   3.905  0.6728 -1.3468  0.2896
 4098TIP3   OH233784   6.358   1.734  10.753  0.0701  0.5334 -0.2119
 4098TIP3    H133785   6.373   1.810  10.808  1.4848  0.0074  0.1674
 4098TIP3    H233786   6.317   1.769  10.674  0.3808  1.6341  0.1004
 4099TIP3   OH233787   2.470   2.736   3.865  0.0657  0.1089  0.2519
 4099TIP3    H133788   2.489   2.730   3.771 -0.6191 -1.9273  0.2100
 4099TIP3    H233789   2.389   2.687   3.877 -1.0721  2.1644  1.6131
 4100TIP3   OH233790   5.076   0.168  12.121  0.4205  0.9727  0.4963
 4100TIP3    H133791   5.067   0.259  12.148 -2.7351  0.3441  1.9701
 4100TIP3    H233792   5.018   0.119  12.179  1.3120 -1.9024 -0.8145
 4101TIP3   OH233793   1.600   4.962   5.033 -0.1246 -0.8165  0.6072
 4101TIP3    H133794   1.518   4.994   4.995  0.9303  0.4152 -0.7399
 4101TIP3    H233795   1.627   4.891   4.974 -0.1089 -1.0832  0.9341
 4102TIP3   OH233796   2.354   3.618  11.554  0.1454 -0.4907  0.8335
 4102TIP3    H133797   2.394   3.678  11.617  0.8498 -1.7495  1.6066
 4102TIP3    H233798   2.372   3.531  11.587  1.2174 -1.2420 -1.5059
 4103TIP3   OH233799   1.965   5.578   5.075  0.0087 -0.0572 -0.0008
 4103TIP3    H133800   1.953   5.528   4.994 -0.0877 -1.9103  1.0944
 4103TIP3    H233801   2.041   5.634   5.057 -0.3354 -0.0368 -1.5348
 4104TIP3   OH233802   6.160   2.376  13.721  0.2511  0.2723 -0.8111
 4104TIP3    H133803   6.236   2.425  13.690  1.1399 -1.1872 -1.0156
 4104TIP3    H233804   6.105   2.367  13.644 -0.6961  2.2303 -0.4402
 4105TIP3   OH233805   5.932   4.076   1.910  0.0699  0.9641 -0.5727
 4105TIP3    H133806   5.952   4.003   1.969  1.6254 -0.0419 -2.2084
 4105TIP3    H233807   5.853   4.115   1.946  0.0826 -0.5419  1.2764
 4106TIP3   OH233808   2.649   3.192   4.590  0.3003 -0.0811  0.0484
 4106TIP3    H133809   2.642   3.284   4.618 -1.4114 -0.2791  0.4346
 4106TIP3    H233810   2.664   3.144   4.671 -2.3435 -0.4342  0.4154
 4107TIP3   OH233811   3.631   4.273   3.103  0.5232 -0.2721  0.6395
 4107TIP3    H133812   3.607   4.191   3.059 -2.0299  1.3256 -1.2076
 4107TIP3    H233813   3.555   4.294   3.157  1.4873  0.4889  1.7270
 4108TIP3   OH233814   6.310   1.881  16.076  0.0528  0.6165 -0.1619
 4108TIP3    H133815   6.400   1.865  16.047 -0.0197  0.2532 -0.1956
 4108TIP3    H233816   6.318   1.935  16.154  0.2460  1.8200 -0.9929
 4109TIP3   OH233817   5.250   4.502   0.711 -0.3648 -0.0845  0.1052
 4109TIP3    H133818   5.272   4.512   0.618 -2.4600 -0.5953 -0.4890
 4109TIP3    H233819   5.309   4.563   0.756  0.2640  0.6319 -1.5999
 4110TIP3   OH233820   3.660   0.319  17.006  0.4970  0.3705 -0.3073
 4110TIP3    H133821   3.719   0.392  17.026  0.4014 -0.0410  1.6768
 4110TIP3    H233822   3.616   0.300  17.089  0.2792 -1.7232 -0.8313
 4111TIP3   OH233823   2.138   5.180  10.710 -0.2626 -0.3961 -0.2269
 4111TIP3    H133824   2.075   5.210  10.775 -0.6467 -0.4034 -0.5911
 4111TIP3    H233825   2.199   5.253  10.700  0.0450 -0.5536  0.4454
 4112TIP3   OH233826   4.666   6.294  16.508  0.0817  0.0125  0.3314
 4112TIP3    H133827   4.605   6.365  16.528 -0.1389 -0.2508  0.5977
 4112TIP3    H233828   4.726   6.331  16.444 -0.7590  0.0801 -0.4392
 4113TIP3   OH233829   0.117   4.077   4.099  0.0619 -0.5765 -0.8870
 4113TIP3    H133830   0.161   4.118   4.024  1.2988  2.1709  1.1805
 4113TIP3    H233831   0.185   4.066   4.164 -1.5157 -0.0663  0.9350
 4114TIP3   OH233832   5.066   5.306   5.568 -0.4228 -0.2413 -0.4514
 4114TIP3    H133833   4.983   5.287   5.611 -1.0772  1.1539 -1.0123
 4114TIP3    H233834   5.072   5.241   5.498  0.0920 -1.7877  0.9700
 4115TIP3   OH233835   2.836   1.172   0.213 -0.1538 -0.0935  0.1298
 4115TIP3    H133836   2.774   1.101   0.201  0.8691 -0.9046 -0.4684
 4115TIP3    H233837   2.783   1.245   0.245 -1.4261 -0.7267 -0.4795
 4116TIP3   OH233838   3.557   2.684   0.966  0.1774  0.1680 -0.1690
 4116TIP3    H133839   3.616   2.753   0.995  0.4926  0.0993 -0.6303
 4116TIP3    H233840   3.473   2.705   1.007  0.4024  0.5358  0.1040
 4117TIP3   OH233841   4.591   4.381  17.112  0.4165 -0.1291 -0.9365
 4117TIP3    H133842   4.641   4.402  17.032  1.7168 -0.7742 -0.3279
 4117TIP3    H233843   4.555   4.294  17.095 -0.6313  0.3814 -1.4203
 4118TIP3   OH233844   2.305   3.661   5.053 -0.0671 -0.0357  0.2204
 4118TIP3    H133845   2.340   3.660   5.142 -0.3013 -0.9667  0.3147
 4118TIP3    H233846   2.377   3.692   4.999  0.8194 -1.5984  0.4598
 4119TIP3   OH233847   0.153   2.520  14.888 -0.2458  0.2365  0.2092
 4119TIP3    H133848   0.091   2.593  14.900 -1.5155 -0.8541  0.5684
 4119TIP3    H233849   0.117   2.470  14.815  0.4470 -0.2072  0.1693
 4120TIP3   OH233850   6.210   0.565   5.465  0.2514  0.0714  0.6498
 4120TIP3    H133851   6.193   0.589   5.556  0.3045  0.3154  0.5943
 4120TIP3    H233852   6.302   0.537   5.464  0.7085  1.4929  0.3798
 4121TIP3   OH233853   1.580   1.683  15.753 -0.2823  0.1570 -0.1029
 4121TIP3    H133854   1.586   1.621  15.680  0.3769  0.4013 -0.2586
 4121TIP3    H233855   1.596   1.769  15.713  0.7715  0.2268  0.4325
 4122TIP3   OH233856   1.480   2.176   3.222 -0.4326  0.1793  0.1501
 4122TIP3    H133857   1.472   2.092   3.266  3.1619  0.4047  1.5806
 4122TIP3    H233858   1.483   2.154   3.129 -0.6126 -1.1330  0.4349
 4123TIP3   OH233859   5.573   5.631   3.316 -0.5900  0.5111  0.2187
 4123TIP3    H133860   5.533   5.698   3.370  0.7745  1.2888  0.3129
 4123TIP3    H233861   5.612   5.678   3.243  0.8315 -0.0916  0.5477
 4124TIP3   OH233862   2.260   3.074  10.148  0.2129 -0.4294  0.0792
 4124TIP3    H133863   2.205   3.152  10.163  0.3969 -0.4498  0.8646
 4124TIP3    H233864   2.217   3.029  10.076  1.7527  1.9742 -2.5870
 4125TIP3   OH233865   5.083   5.954   4.284  0.6580  0.1085  0.4771
 4125TIP3    H133866   5.161   6.005   4.305  3.1229 -2.2379 -2.1142
 4125TIP3    H233867   5.102   5.867   4.317 -1.2925 -0.3250  0.5507
 4126TIP3   OH233868   3.277   1.181  13.050  0.2427 -0.4327  0.2763
 4126TIP3    H133869   3.280   1.264  13.002 -0.7246 -1.2745 -1.3584
 4126TIP3    H233870   3.330   1.121  12.997 -1.0064 -1.4414  0.1004
 4127TIP3   OH233871   2.592   6.592   3.682  0.2864 -0.2830  0.1023
 4127TIP3    H133872   2.524   6.648   3.719 -0.3840 -1.1947  0.2877
 4127TIP3    H233873   2.622   6.538   3.755  0.8916 -0.2163 -0.0865
 4128TIP3   OH233874   2.689   0.290   1.877  0.0680  0.3581 -0.3621
 4128TIP3    H133875   2.715   0.230   1.808  1.4707  0.4480  0.0702
 4128TIP3    H233876   2.746   0.366   1.867  0.8474  0.0457  1.3563
 4129TIP3   OH233877   6.634   6.492  16.247  0.9358 -0.3353 -0.2527
 4129TIP3    H133878   6.623   6.510  16.340 -0.0497  1.4530 -0.6796
 4129TIP3    H233879   6.713   6.540  16.223  0.5077  0.2162 -0.5779
 4130TIP3   OH233880   4.450   0.864  12.470  0.0934 -0.0019  0.2405
 4130TIP3    H133881   4.449   0.955  12.442  1.6014 -0.4724 -1.5895
 4130TIP3    H233882   4.387   0.820  12.413 -0.1585 -0.2090  0.6779
 4131TIP3   OH233883   4.937   1.049  16.431 -0.2618  0.0513 -0.1003
 4131TIP3    H133884   4.891   1.087  16.505  0.7479  0.3464  0.4038
 4131TIP3    H233885   5.011   1.002  16.470 -0.0314 -0.2580 -0.8829
 4132TIP3   OH233886   5.399   2.628  13.189 -0.1736 -0.6276 -0.5435
 4132TIP3    H133887   5.380   2.537  13.210 -0.4629 -0.4985 -0.2259
 4132TIP3    H233888   5.461   2.624  13.116  0.4254 -1.0810 -0.0178
 4133TIP3   OH233889   1.674   0.422   4.247  0.3759 -0.1438  0.2000
 4133TIP3    H133890   1.679   0.480   4.323  0.0947  2.4179 -1.5963
 4133TIP3    H233891   1.764   0.415   4.216  0.2762  0.1901 -0.1728
 4134TIP3   OH233892   1.136   5.413  15.129  0.0519 -0.2445  0.6549
 4134TIP3    H133893   1.160   5.428  15.221 -0.8578  2.0433  0.5945
 4134TIP3    H233894   1.062   5.352  15.134  0.5169 -0.7745  1.3712
 4135TIP3   OH233895   1.754   4.486  14.347  0.4698 -0.4830 -0.1187
 4135TIP3    H133896   1.807   4.560  14.375  0.6107 -0.3512 -0.7095
 4135TIP3    H233897   1.817   4.423  14.311  0.1235  0.4620 -2.5866
 4136TIP3   OH233898   1.678   4.113   5.509  0.2700  0.8864  0.4488
 4136TIP3    H133899   1.592   4.131   5.471  0.4438 -0.1289 -0.4659
 4136TIP3    H233900   1.692   4.185   5.570 -1.6406  0.6063  1.3153
 4137TIP3   OH233901   3.587   2.520  12.649 -0.1264 -0.3035 -0.1094
 4137TIP3    H133902   3.661   2.466  12.674 -0.1605 -0.6791 -0.8110
 4137TIP3    H233903   3.513   2.485  12.700  0.5470  1.3821  2.2041
 4138TIP3   OH233904   3.071   5.720   0.383 -0.2612  0.3117  0.1949
 4138TIP3    H133905   3.103   5.767   0.306 -0.5865 -0.0121 -0.1455
 4138TIP3    H233906   3.143   5.725   0.446  0.2930 -0.0335 -0.3942
 4139TIP3   OH233907   4.795   5.174  13.529  0.7243 -0.4415  0.2811
 4139TIP3    H133908   4.716   5.197  13.480  2.5277 -0.3675 -2.9258
 4139TIP3    H233909   4.788   5.080  13.544 -0.1891 -0.3456  0.4910
 4140TIP3   OH233910   2.810   0.132   3.654 -0.4682 -0.6510 -0.3570
 4140TIP3    H133911   2.746   0.062   3.637  0.2976 -1.8400  1.3137
 4140TIP3    H233912   2.875   0.091   3.711  0.4325  1.2317  0.0448
 4141TIP3   OH233913   1.568   3.662  16.862  0.0561  0.5317 -0.5382
 4141TIP3    H133914   1.528   3.579  16.836 -0.7610  0.7721 -0.0967
 4141TIP3    H233915   1.583   3.709  16.780 -0.5330  0.4183 -0.7105
 4142TIP3   OH233916   4.207   5.261  16.672 -0.9830  0.0001 -0.1108
 4142TIP3    H133917   4.220   5.170  16.646 -0.9532 -0.1229  0.3341
 4142TIP3    H233918   4.249   5.268  16.758  0.7446  0.9256 -0.9812
 4143TIP3   OH233919   4.847   0.701   1.521  0.3017 -0.2522  0.0253
 4143TIP3    H133920   4.927   0.752   1.534  0.0036 -0.3565  2.9563
 4143TIP3    H233921   4.873   0.630   1.463  1.0963  2.2407 -2.9027
 4144TIP3   OH233922   1.301   2.899   1.906 -1.2428  0.0317 -0.5068
 4144TIP3    H133923   1.396   2.894   1.920 -1.2057 -0.3255 -0.8558
 4144TIP3    H233924   1.286   2.988   1.872 -1.2705  0.7240  1.2264
 4145TIP3   OH233925   6.403   0.372  10.798  0.5147  0.0236  0.1025
 4145TIP3    H133926   6.315   0.398  10.770  0.9434  0.7625 -0.6027
 4145TIP3    H233927   6.442   0.453  10.831  1.2077 -0.1270 -0.3389
 4146TIP3   OH233928   5.170   0.744  12.109  0.2181  0.4469 -0.5078
 4146TIP3    H133929   5.092   0.761  12.056 -0.5004 -0.3825  0.2586
 4146TIP3    H233930   5.137   0.705  12.190  1.3744  0.7858  0.1543
 4147TIP3   OH233931   3.792   6.225  17.104 -0.1550  0.1823  0.5350
 4147TIP3    H133932   3.750   6.211  17.019  0.0015  1.7005  0.1749
 4147TIP3    H233933   3.881   6.191  17.092 -0.3384 -0.2226  0.3040
 4148TIP3   OH233934   1.569   3.222   5.220  0.4096 -0.2404 -0.1720
 4148TIP3    H133935   1.587   3.148   5.278  0.7996 -0.4875 -0.6039
 4148TIP3    H233936   1.504   3.274   5.267  0.5785 -0.5405  0.3981
 4149TIP3   OH233937   2.116   1.598   2.780 -0.5984  0.6994  0.0755
 4149TIP3    H133938   2.141   1.568   2.692 -1.1887  2.3213 -0.6870
 4149TIP3    H233939   2.021   1.589   2.783 -0.4174 -1.3045  1.3529
 4150TIP3   OH233940   3.660   1.450   0.559  1.1402 -0.4866  0.5524
 4150TIP3    H133941   3.643   1.369   0.512  2.3852 -0.1564 -0.5302
 4150TIP3    H233942   3.738   1.486   0.518  0.0438  1.8003  0.2952
 4151TIP3   OH233943   2.614   2.169   3.109 -0.0981  0.1996 -0.4305
 4151TIP3    H133944   2.683   2.160   3.174 -0.8850 -1.8060  0.2023
 4151TIP3    H233945   2.650   2.229   3.043  3.1030 -2.3701 -1.2375
 4152TIP3   OH233946   6.540   6.297   2.379  0.0571  0.3561 -0.7165
 4152TIP3    H133947   6.480   6.276   2.451 -1.0190  3.7847 -0.4291
 4152TIP3    H233948   6.627   6.295   2.419 -0.2102 -0.8667 -0.1498
 4153TIP3   OH233949   0.986   3.985  15.755 -0.2328  0.0049 -0.2484
 4153TIP3    H133950   1.052   4.031  15.703 -0.6952  2.1113  0.9031
 4153TIP3    H233951   0.911   3.975  15.697 -0.1975  0.9463 -0.4734
 4154TIP3   OH233952   5.558   6.509   6.479 -0.1891  0.4314 -0.1912
 4154TIP3    H133953   5.464   6.522   6.493 -0.1793 -0.9501  1.4879
 4154TIP3    H233954   5.574   6.418   6.502  1.6257  0.7248 -0.1165
 4155TIP3   OH233955   3.922   1.656  16.423  0.0574  0.3639  0.3037
 4155TIP3    H133956   3.974   1.685  16.347  1.1100  2.4794  1.7202
 4155TIP3    H233957   3.926   1.730  16.484 -1.6339 -0.8552  2.0002
 4156TIP3   OH233958   6.502   6.120   4.565  0.7790  0.2825 -0.2624
 4156TIP3    H133959   6.490   6.179   4.639  1.9578 -0.9188  0.9442
 4156TIP3    H233960   6.465   6.037   4.595  1.4454 -0.2699 -0.9377
 4157TIP3   OH233961   1.202   5.798   5.706 -0.1419  0.1622  0.0638
 4157TIP3    H133962   1.181   5.884   5.744  0.5455 -0.1192  1.1095
 4157TIP3    H233963   1.169   5.735   5.770 -3.8397 -0.5303 -2.2402
 4158TIP3   OH233964   0.942   1.987   0.568  0.2324 -0.2456  0.0616
 4158TIP3    H133965   0.888   1.920   0.526  0.7174 -1.1947  0.8974
 4158TIP3    H233966   1.021   1.941   0.596  2.6457  1.5442 -3.1528
 4159TIP3   OH233967   4.814   6.085  14.512 -0.0561  0.1566  0.1338
 4159TIP3    H133968   4.764   6.085  14.430  1.7966 -1.6621 -1.0841
 4159TIP3    H233969   4.751   6.056  14.579 -1.4591  1.1717 -0.6826
 4160TIP3   OH233970   2.538   1.801  15.540  0.3370  0.1195  0.2824
 4160TIP3    H133971   2.633   1.802  15.550  0.4274 -0.0475 -0.4740
 4160TIP3    H233972   2.516   1.890  15.513 -0.0345  0.8873  2.9289
 4161TIP3   OH233973   6.251   3.135   4.117 -0.3880 -0.1656 -0.2881
 4161TIP3    H133974   6.248   3.120   4.023  0.0341  0.1788 -0.3588
 4161TIP3    H233975   6.323   3.079   4.148 -0.0060  0.3184 -0.2891
 4162TIP3   OH233976   3.933   2.797  15.470 -0.0240 -0.2205 -0.4096
 4162TIP3    H133977   3.864   2.796  15.536 -0.6191 -0.4556 -1.0272
 4162TIP3    H233978   4.008   2.837  15.515 -0.9760  1.3792 -0.1368
 4163TIP3   OH233979   4.806   1.567  14.123 -0.1035  0.2380 -0.5210
 4163TIP3    H133980   4.716   1.591  14.100 -0.4460 -0.7909 -0.3040
 4163TIP3    H233981   4.852   1.570  14.039 -1.1295 -2.5238 -1.3172
 4164TIP3   OH233982   0.856   5.893  15.361 -0.2899  0.5145 -0.2316
 4164TIP3    H133983   0.797   5.952  15.406  0.0389  0.4086  0.3445
 4164TIP3    H233984   0.869   5.820  15.421  0.2074  0.4046 -0.4610
 4165TIP3   OH233985   4.585   5.264   1.797 -0.0752  0.1545 -0.3303
 4165TIP3    H133986   4.521   5.320   1.754 -0.6263 -0.1998  0.0245
 4165TIP3    H233987   4.637   5.227   1.726 -1.7152 -1.3411 -0.8244
 4166TIP3   OH233988   6.567   3.089   4.140  0.7564  0.1857  0.0239
 4166TIP3    H133989   6.661   3.070   4.139  1.6644  3.8179  0.0997
 4166TIP3    H233990   6.556   3.148   4.215 -1.6347 -0.1393  0.0102
 4167TIP3   OH233991   3.070   0.829  13.254 -0.2857  0.0094  0.5856
 4167TIP3    H133992   3.045   0.917  13.225  2.6621  0.8890  0.3831
 4167TIP3    H233993   2.988   0.789  13.283 -1.8119  2.6247  0.1826
 4168TIP3   OH233994   4.979   6.501  14.821  0.6570  0.3416 -0.0089
 4168TIP3    H133995   5.032   6.491  14.742  1.4679  2.1840  0.2621
 4168TIP3    H233996   4.953   6.593  14.821  0.3885  0.2870  1.7124
 4169TIP3   OH233997   3.013   4.150   1.843  0.2878  0.1789  0.8042
 4169TIP3    H133998   3.073   4.079   1.865 -1.4151 -1.8787 -0.6411
 4169TIP3    H233999   2.957   4.113   1.774 -3.4321  1.4239  2.8307
 4170TIP3   OH234000   5.498   3.257  11.016 -0.1803  0.7143  0.5185
 4170TIP3    H134001   5.542   3.252  11.101  0.9120 -0.6159 -0.0978
 4170TIP3    H234002   5.569   3.260  10.952 -0.9769 -0.3478 -0.4504
 4171TIP3   OH234003   3.363   4.244  11.935 -0.3094  0.2052  0.8637
 4171TIP3    H134004   3.345   4.323  11.883 -0.0325 -0.7219 -0.6900
 4171TIP3    H234005   3.377   4.277  12.024 -0.5176  1.8759  0.3106
 4172TIP3   OH234006   5.981   5.706  14.999  0.0298  0.1773 -0.2997
 4172TIP3    H134007   6.032   5.626  14.990 -1.4371 -0.6377 -2.0644
 4172TIP3    H234008   5.895   5.676  15.030 -0.4549  1.0785 -0.7322
 4173TIP3   OH234009   4.553   3.378  12.353 -0.9852 -0.3295 -0.3841
 4173TIP3    H134010   4.514   3.417  12.432 -2.5824 -0.1129 -1.2478
 4173TIP3    H234011   4.640   3.349  12.382 -1.0833  0.7648  1.1603
 4174TIP3   OH234012   2.717   2.251   2.720 -0.2925 -0.2588  0.5111
 4174TIP3    H134013   2.630   2.234   2.685 -0.3759 -0.1882  0.6805
 4174TIP3    H234014   2.703   2.318   2.787  0.0107  0.3961 -0.0629
 4175TIP3   OH234015   5.254   6.653   1.656  0.3496 -0.4636  0.5152
 4175TIP3    H134016   5.221   6.728   1.606  3.1416  1.2074  0.9489
 4175TIP3    H234017   5.183   6.633   1.718 -1.1826  0.6327 -0.8019
 4176TIP3   OH234018   0.015   4.323  11.946  0.2335  0.6505  0.4645
 4176TIP3    H134019  -0.037   4.243  11.943  1.1183  0.0405  0.7840
 4176TIP3    H234020   0.041   4.338  11.855 -0.6808  1.1017  0.2636
 4177TIP3   OH234021   4.291   0.482  12.028 -0.4460  0.0924 -0.4947
 4177TIP3    H134022   4.348   0.519  12.096 -1.9257  0.3282  0.6634
 4177TIP3    H234023   4.292   0.388  12.045  0.0899  0.0190 -0.8910
 4178TIP3   OH234024   3.960   3.456  16.094 -0.2608  0.1885  0.6929
 4178TIP3    H134025   3.899   3.526  16.116 -3.9057 -1.5760 -2.6992
 4178TIP3    H234026   3.926   3.379  16.138  0.3972 -0.5645 -0.0870
 4179TIP3   OH234027   4.802   5.139   3.720 -0.1521 -0.5442  0.2341
 4179TIP3    H134028   4.723   5.151   3.774 -0.3044  0.0025 -0.1029
 4179TIP3    H234029   4.869   5.111   3.782 -0.5913 -0.9594  0.5373
 4180TIP3   OH234030   6.627   4.525  12.061 -0.5315 -0.3559  0.0446
 4180TIP3    H134031   6.716   4.526  12.025 -0.4219  4.5243 -0.1827
 4180TIP3    H234032   6.640   4.535  12.155 -0.8709 -0.2398  0.0791
 4181TIP3   OH234033   6.090   0.951   3.152  0.3966 -0.0226 -0.1021
 4181TIP3    H134034   6.081   0.857   3.136 -0.3780 -0.0145  0.2417
 4181TIP3    H234035   6.112   0.958   3.245 -2.8608  0.2281  0.7948
 4182TIP3   OH234036   2.446   5.523  13.583 -0.2397 -0.2952 -0.2385
 4182TIP3    H134037   2.435   5.525  13.488 -1.8672  0.5844 -0.0546
 4182TIP3    H234038   2.366   5.563  13.617  0.2797 -0.7032  1.5091
 4183TIP3   OH234039   0.938   5.689  13.778 -0.4655 -0.3176 -0.1581
 4183TIP3    H134040   1.034   5.687  13.786 -0.5387  1.5165  3.1470
 4183TIP3    H234041   0.919   5.637  13.700  3.2594  0.0685 -1.5357
 4184TIP3   OH234042   6.681   3.899  14.613  0.4753  0.5537 -0.3390
 4184TIP3    H134043   6.595   3.869  14.639 -0.7162  2.9462 -1.1808
 4184TIP3    H234044   6.730   3.908  14.695 -0.9885  1.6888  0.4611
 4185TIP3   OH234045   5.167   5.862   0.411  0.2088 -0.8068 -0.0474
 4185TIP3    H134046   5.167   5.775   0.371 -3.5754 -0.9694 -0.0810
 4185TIP3    H234047   5.124   5.918   0.346 -2.0857 -0.1019  1.9456
 4186TIP3   OH234048   6.100   3.753  11.996  0.6081  0.1911  0.3389
 4186TIP3    H134049   6.132   3.709  12.074 -0.0125  1.0731  1.1081
 4186TIP3    H234050   6.009   3.774  12.015  0.6129  0.9508 -0.3738
 4187TIP3   OH234051   2.726   3.523  15.818  0.1837  0.2552  0.1394
 4187TIP3    H134052   2.729   3.619  15.811  3.1566  0.2829  0.4883
 4187TIP3    H234053   2.799   3.493  15.764  0.2064 -1.7433  1.1879
 4188TIP3   OH234054   1.467   0.734   2.124  0.3611  0.1356  0.3429
 4188TIP3    H134055   1.472   0.816   2.077  0.7438 -0.4441 -0.6522
 4188TIP3    H234056   1.375   0.709   2.120  0.4446 -0.0798 -0.4211
 4189TIP3   OH234057   6.439   0.208  11.423 -0.1738  0.4067 -0.9940
 4189TIP3    H134058   6.486   0.124  11.419  1.1419  1.0541  0.1026
 4189TIP3    H234059   6.457   0.242  11.511 -1.2896  1.5089 -1.1629
 4190TIP3   OH234060   4.439   2.965  15.982  0.6218  0.5655  0.2605
 4190TIP3    H134061   4.380   3.024  15.935  1.4736  0.4775 -0.9753
 4190TIP3    H234062   4.496   3.023  16.032  0.0081  0.6805  0.8443
 4191TIP3   OH234063   0.046   1.212   4.520 -0.1800  0.2447  0.1507
 4191TIP3    H134064  -0.028   1.225   4.579  0.9557 -0.4465  1.8299
 4191TIP3    H234065   0.076   1.300   4.500  0.4561  0.5265  2.0822
 4192TIP3   OH234066   0.211   2.908   4.515 -0.3305  0.2829 -0.2347
 4192TIP3    H134067   0.120   2.929   4.538 -0.0534 -0.8353  2.0270
 4192TIP3    H234068   0.263   2.967   4.569  0.3205 -0.5012 -0.0061
 4193TIP3   OH234069   4.596   3.674   5.103  0.1732 -0.0954  0.2172
 4193TIP3    H134070   4.531   3.728   5.058  0.6473  0.9746  0.7968
 4193TIP3    H234071   4.614   3.720   5.185  0.4074 -1.2607  0.8466
 4194TIP3   OH234072   6.415   5.802   4.286 -0.7751 -0.2720  0.5532
 4194TIP3    H134073   6.352   5.830   4.353 -0.2886 -1.9273  1.7854
 4194TIP3    H234074   6.438   5.713   4.312  2.1440  0.2948  0.2164
 4195TIP3   OH234075   4.687   2.383  10.936  0.0935 -0.0383  0.0942
 4195TIP3    H134076   4.726   2.443  10.873 -2.0130  2.6699  1.1273
 4195TIP3    H234077   4.691   2.431  11.019  0.0300 -2.1951  1.4096
 4196TIP3   OH234078   2.724   4.536  17.180 -0.2032 -0.1657  0.3929
 4196TIP3    H134079   2.788   4.506  17.246  0.6901  1.0478  0.1183
 4196TIP3    H234080   2.675   4.605  17.225  0.9608  1.2409 -0.4300
 4197TIP3   OH234081   4.104   6.684  14.691 -0.1417  0.2775  0.7544
 4197TIP3    H134082   4.104   6.590  14.710  0.5583  0.0106 -0.4259
 4197TIP3    H234083   4.197   6.705  14.677 -0.3092  1.1149  0.8672
 4198TIP3   OH234084   0.062   4.144  15.136  0.0413 -0.7333 -0.4334
 4198TIP3    H134085  -0.008   4.140  15.201 -0.0359  1.2978 -0.3237
 4198TIP3    H234086   0.016   4.136  15.052 -0.1067 -1.1975 -0.3115
 4199TIP3   OH234087   6.596   3.932  11.642  0.1610 -0.0562  0.2157
 4199TIP3    H134088   6.626   3.859  11.588 -1.2806  0.3829 -1.2756
 4199TIP3    H234089   6.504   3.944  11.617 -0.2686  0.8709  2.0333
 4200TIP3   OH234090   4.796   2.290   4.270  0.2389  0.0196 -0.4363
 4200TIP3    H134091   4.815   2.306   4.363 -0.2521 -2.8336  0.2320
 4200TIP3    H234092   4.881   2.274   4.231  0.3884  0.6386 -0.3841
 4201TIP3   OH234093   2.637   1.553   2.934  0.4886 -0.1818 -0.4726
 4201TIP3    H134094   2.629   1.475   2.879  1.4508 -1.0201  0.5123
 4201TIP3    H234095   2.728   1.550   2.966 -0.4161 -0.6144  2.3645
 4202TIP3   OH234096   3.564   6.244   0.034 -0.1520 -0.0246 -0.4890
 4202TIP3    H134097   3.608   6.263   0.117 -0.3533  0.7776 -0.5589
 4202TIP3    H234098   3.635   6.240  -0.030 -0.1971  2.3562 -0.8015
 4203TIP3   OH234099   0.200   1.725   3.121 -0.6011 -0.2411 -0.7431
 4203TIP3    H134100   0.171   1.764   3.203 -0.5936 -3.2182  0.7879
 4203TIP3    H234101   0.119   1.705   3.074 -0.6408  0.5455 -1.0165
 4204TIP3   OH234102   6.396   2.886   2.917  0.0523 -0.7768 -0.3678
 4204TIP3    H134103   6.437   2.973   2.919 -0.2650 -0.6371  0.1483
 4204TIP3    H234104   6.430   2.846   2.837  1.1473 -0.6325  0.0000
 4205TIP3   OH234105   1.656   1.604  11.785 -1.0465  0.3593 -0.7639
 4205TIP3    H134106   1.681   1.689  11.823 -0.2270 -0.3103  0.2466
 4205TIP3    H234107   1.628   1.626  11.696  0.9593  1.4989 -1.1992
 4206TIP3   OH234108   0.898   0.870  15.801 -0.8038 -0.2598  0.1933
 4206TIP3    H134109   0.863   0.925  15.730 -2.3817 -0.9644  0.3852
 4206TIP3    H234110   0.946   0.932  15.856  0.0371  0.3874 -1.1993
 4207TIP3   OH234111   5.081   1.762   0.719  0.4291  0.0108  0.3349
 4207TIP3    H134112   5.121   1.790   0.636  0.1695 -1.5322 -0.3583
 4207TIP3    H234113   4.993   1.799   0.717  0.2527 -0.4285 -0.3267
 4208TIP3   OH234114   3.448   4.225  14.255  0.0307  0.3347  0.1793
 4208TIP3    H134115   3.510   4.159  14.287  0.1228  0.1399 -0.3819
 4208TIP3    H234116   3.409   4.262  14.334  0.6963  0.2977  0.5371
 4209TIP3   OH234117   0.398   2.770   6.344  0.2899 -0.2556  0.4479
 4209TIP3    H134118   0.466   2.707   6.368  0.5841  0.6750  2.2621
 4209TIP3    H234119   0.428   2.853   6.383 -1.4159  0.3711  0.4984
 4210TIP3   OH234120   1.779   4.600  11.963 -0.0310 -0.0502 -0.0287
 4210TIP3    H134121   1.771   4.611  11.869 -2.4565  1.3776  0.2611
 4210TIP3    H234122   1.689   4.597  11.995  0.7075 -1.5839  2.1684
 4211TIP3   OH234123   6.234   2.258   5.840 -0.4421  0.1832  0.0871
 4211TIP3    H134124   6.317   2.306   5.840  1.1294 -2.2900 -1.1728
 4211TIP3    H234125   6.232   2.214   5.925  0.6896 -1.4369 -0.6698
 4212TIP3   OH234126   2.404   4.797  14.688  0.4632  0.3995  0.3795
 4212TIP3    H134127   2.411   4.876  14.635  0.0100  0.6344  0.6657
 4212TIP3    H234128   2.343   4.820  14.758  1.2459  0.1695  1.1546
 4213TIP3   OH234129   0.609   5.060  16.248 -0.3701 -0.6141 -0.6483
 4213TIP3    H134130   0.586   5.077  16.157  1.7147 -1.1642 -1.3303
 4213TIP3    H234131   0.583   5.139  16.295 -3.7828 -1.2560 -1.1961
 4214TIP3   OH234132   4.644   1.118   0.228 -0.4853  0.3102 -0.1448
 4214TIP3    H134133   4.663   1.055   0.298 -3.1652  0.5781  0.9063
 4214TIP3    H234134   4.666   1.070   0.147 -1.4519 -1.6224  0.6668
 4215TIP3   OH234135   5.162   0.004   1.047  0.1258  0.7890 -0.3484
 4215TIP3    H134136   5.176   0.003   0.953  0.6461 -0.2576 -0.2714
 4215TIP3    H234137   5.098  -0.065   1.064  1.5603 -0.4674  0.2518
 4216TIP3   OH234138   4.968   1.564  15.687  0.2856  0.3844  0.4479
 4216TIP3    H134139   4.950   1.656  15.670 -0.7804  0.1268  0.1498
 4216TIP3    H234140   4.944   1.519  15.607 -0.3880 -0.2977  1.0209
 4217TIP3   OH234141   6.264   1.939  13.821  0.2837 -0.0701 -0.3079
 4217TIP3    H134142   6.171   1.959  13.819  0.6183  1.5745 -1.4338
 4217TIP3    H234143   6.304   2.015  13.864  1.0888 -0.9778  0.6196
 4218TIP3   OH234144   6.554   3.363  14.984 -0.9692 -0.1746  0.0821
 4218TIP3    H134145   6.525   3.437  15.037  0.9854  0.1118  0.8493
 4218TIP3    H234146   6.614   3.401  14.920 -0.0125 -1.0572  0.4206
 4219TIP3   OH234147   5.774   6.596  14.714  0.2485  0.2760 -0.1036
 4219TIP3    H134148   5.848   6.537  14.702 -0.3082 -0.1765 -1.4868
 4219TIP3    H234149   5.696   6.541  14.702 -0.3514  0.7178  1.4059
 4220TIP3   OH234150   5.630   1.845   2.701  0.1082  0.0170 -0.3423
 4220TIP3    H134151   5.718   1.868   2.669 -0.9310  1.2476 -2.5738
 4220TIP3    H234152   5.590   1.929   2.723  0.2116 -0.6839  2.9985
 4221TIP3   OH234153   4.549   3.081  16.743 -0.0873 -0.1219  0.3048
 4221TIP3    H134154   4.509   3.046  16.822 -1.0612 -0.6054 -0.3836
 4221TIP3    H234155   4.627   3.026  16.729 -0.6503 -0.9085  0.1939
 4222TIP3   OH234156   3.317   2.674  13.456 -0.2284 -0.0360  0.2243
 4222TIP3    H134157   3.294   2.628  13.537  0.3980 -2.1423 -0.7332
 4222TIP3    H234158   3.408   2.648  13.439  0.4859  2.3418  0.1034
 4223TIP3   OH234159   1.912   1.656  15.702 -0.1380  0.0963 -0.1366
 4223TIP3    H134160   2.007   1.648  15.695 -0.3114 -2.2392 -0.4044
 4223TIP3    H234161   1.884   1.677  15.613  0.0983  0.9218 -0.0326
 4224TIP3   OH234162   0.887   4.041  12.809  0.1036  0.5399 -0.2471
 4224TIP3    H134163   0.807   3.994  12.835  1.0810 -0.8110  0.4538
 4224TIP3    H234164   0.860   4.095  12.735 -1.5113  0.2947  0.1225
 4225TIP3   OH234165   4.490   5.799   1.277 -0.1157  0.6217  0.1023
 4225TIP3    H134166   4.518   5.716   1.314  2.2177  1.2365 -0.0953
 4225TIP3    H234167   4.452   5.776   1.192 -1.0931 -0.3667  0.7932
 4226TIP3   OH234168   2.294   0.974  12.105 -0.2345 -0.4959  0.2545
 4226TIP3    H134169   2.238   0.912  12.152  0.5004 -1.4160 -0.0380
 4226TIP3    H234170   2.275   0.957  12.012  0.3576 -0.6678  0.1577
 4227TIP3   OH234171   0.046   2.637   4.837 -0.2037 -0.3258  0.2244
 4227TIP3    H134172   0.086   2.607   4.756  0.9875  0.5052  0.4772
 4227TIP3    H234173   0.039   2.558   4.891  1.0324 -0.5093  0.1404
 4228TIP3   OH234174   5.055   5.620   6.111  0.5679  0.2883  0.4779
 4228TIP3    H134175   5.102   5.674   6.046 -0.5744 -0.3961 -0.9703
 4228TIP3    H234176   5.115   5.615   6.185  1.9729  1.0406 -0.5529
 4229TIP3   OH234177   5.116   2.068  16.981 -0.6695 -0.3694  0.1408
 4229TIP3    H134178   5.028   2.100  16.964 -0.3935  0.4066  0.1125
 4229TIP3    H234179   5.150   2.044  16.894  0.0398  1.7451 -0.2208
 4230TIP3   OH234180   4.881   6.448  11.315 -0.2541  0.0335  0.0816
 4230TIP3    H134181   4.871   6.531  11.361 -1.2883 -0.2830  0.4481
 4230TIP3    H234182   4.810   6.448  11.250 -1.2717 -1.2470  1.1506
 4231TIP3   OH234183   5.757   1.400  15.877  1.0418  0.0627 -0.2400
 4231TIP3    H134184   5.786   1.389  15.968 -0.9621  0.6060  0.5120
 4231TIP3    H234185   5.687   1.336  15.866 -1.2422  2.3984 -0.1731
 4232TIP3   OH234186   2.894   3.419   6.180  0.3740  0.3679  0.2407
 4232TIP3    H134187   2.839   3.354   6.224  0.3363  0.1564 -0.1165
 4232TIP3    H234188   2.880   3.499   6.230  0.5252  0.0728  0.7668
 4233TIP3   OH234189   0.163   5.003   1.834  0.2764  0.2394  0.1795
 4233TIP3    H134190   0.250   4.992   1.872  1.0871 -0.2786 -1.7129
 4233TIP3    H234191   0.102   4.989   1.907  1.7364 -0.8948  1.2245
 4234TIP3   OH234192   1.310   0.230   4.737 -0.4828 -0.3244  0.3869
 4234TIP3    H134193   1.361   0.203   4.660 -1.6458  1.3116 -1.0490
 4234TIP3    H234194   1.358   0.304   4.772  0.0209 -1.0430  1.2478
 4235TIP3   OH234195   5.801   5.394  15.629  0.4882  0.9117 -0.4403
 4235TIP3    H134196   5.710   5.384  15.600  0.4464 -2.9360  0.3852
 4235TIP3    H234197   5.851   5.401  15.548 -0.3023 -1.3748 -1.2248
 4236TIP3   OH234198   1.208   6.465  16.571  0.6227 -0.0500 -0.2420
 4236TIP3    H134199   1.232   6.531  16.636  1.7853  0.3253 -1.0107
 4236TIP3    H234200   1.169   6.515  16.499  0.8801 -0.2608 -0.5328
 4237TIP3   OH234201   3.245   2.181   5.327 -0.3253 -0.2519  0.0447
 4237TIP3    H134202   3.283   2.203   5.412 -1.0786 -0.0099  0.3305
 4237TIP3    H234203   3.163   2.231   5.324  0.5925  1.2472 -1.6415
 4238TIP3   OH234204   4.393   6.417  13.820  0.6357 -0.0988 -0.4271
 4238TIP3    H134205   4.332   6.462  13.879 -0.1331  0.5443 -1.6639
 4238TIP3    H234206   4.423   6.341  13.870  0.0601  0.4504  0.8044
 4239TIP3   OH234207   5.073   6.646  13.698 -0.5645 -0.0379  0.4967
 4239TIP3    H134208   5.054   6.738  13.681 -0.2682  0.1826  1.2898
 4239TIP3    H234209   5.105   6.645  13.789  1.2572 -0.6547 -0.1063
 4240TIP3   OH234210   5.146   4.556   4.053 -0.5288  0.2501  0.8918
 4240TIP3    H134211   5.235   4.578   4.082 -0.4424  0.3572  0.5502
 4240TIP3    H234212   5.143   4.461   4.055  0.9159 -0.0417 -2.8384
 4241TIP3   OH234213   3.524   1.673  14.941 -0.8176  0.5854 -0.3009
 4241TIP3    H134214   3.608   1.647  14.904 -1.4370  0.9708 -2.0857
 4241TIP3    H234215   3.466   1.598  14.926 -0.1532 -1.0554  3.7771
 4242TIP3   OH234216   0.173   5.338   1.642 -0.1337 -0.1308  0.3295
 4242TIP3    H134217   0.206   5.336   1.552  0.8308  2.9010  0.4872
 4242TIP3    H234218   0.079   5.346   1.633 -0.1252 -0.7384 -0.3749
 4243TIP3   OH234219   5.523   4.199  13.231 -0.1116 -0.0938 -0.3689
 4243TIP3    H134220   5.573   4.196  13.150  0.1338  1.0910 -0.2808
 4243TIP3    H234221   5.588   4.185  13.300 -0.0429  0.5149 -0.3032
 4244TIP3   OH234222   4.877   3.187   3.750 -0.3109 -0.0778  0.2704
 4244TIP3    H134223   4.794   3.141   3.757  0.5391 -1.4835  1.4127
 4244TIP3    H234224   4.854   3.271   3.709 -1.9627 -1.2705 -1.3978
 4245TIP3   OH234225   1.188   4.722  14.755 -0.2032  0.3253 -0.1595
 4245TIP3    H134226   1.105   4.754  14.718  0.2426  0.3260 -1.1981
 4245TIP3    H234227   1.246   4.798  14.752  0.7288 -0.3864 -2.2353
 4246TIP3   OH234228   4.739   0.154   3.840  0.2694  0.6798  0.2750
 4246TIP3    H134229   4.730   0.240   3.799  2.0550  0.2932 -1.0635
 4246TIP3    H234230   4.677   0.098   3.794 -1.9259  1.4908  2.0908
 4247TIP3   OH234231   5.036   3.009  11.866  0.9122 -0.6340  0.1777
 4247TIP3    H134232   5.112   2.951  11.864  0.3198 -1.5266 -3.0331
 4247TIP3    H234233   5.066   3.090  11.824  0.8495  0.2285  1.6997
 4248TIP3   OH234234   6.434   3.815  14.952  0.2603 -0.0356  0.3277
 4248TIP3    H134235   6.462   3.754  15.020  0.3949 -0.9428 -0.5124
 4248TIP3    H234236   6.514   3.860  14.926  0.5949 -1.1070 -0.5868
 4249TIP3   OH234237   5.248   3.942   4.864  0.5741 -0.3148  0.6485
 4249TIP3    H134238   5.198   3.899   4.795 -1.3742  2.0467  0.4324
 4249TIP3    H234239   5.189   3.945   4.939  0.5325  1.9206  0.6134
 4250TIP3   OH234240   6.263   4.768   0.185  0.1477 -0.0672  0.2526
 4250TIP3    H134241   6.239   4.677   0.203 -1.1949 -0.0416 -1.1766
 4250TIP3    H234242   6.285   4.769   0.091 -0.8192  1.2453  0.0094
 4251TIP3   OH234243   2.081   1.281  16.759 -0.1709 -0.1504  0.4564
 4251TIP3    H134244   2.070   1.350  16.825 -1.1643 -0.5118  0.6801
 4251TIP3    H234245   2.025   1.308  16.687 -0.6653 -0.7771  0.5960
 4252TIP3   OH234246   0.080   5.243   2.594 -0.3397  0.2746 -0.0372
 4252TIP3    H134247   0.087   5.301   2.519 -0.4722  1.1770  0.6296
 4252TIP3    H234248   0.155   5.184   2.586  0.2690  1.0656 -0.2959
 4253TIP3   OH234249   3.813   5.548  12.399 -0.3979  0.3284  0.2018
 4253TIP3    H134250   3.904   5.563  12.422 -0.6410  0.7805  0.9054
 4253TIP3    H234251   3.772   5.519  12.481 -0.0257 -4.1717 -0.9406
 4254TIP3   OH234252   3.376   6.780  12.290 -0.3687  0.3676  0.0416
 4254TIP3    H134253   3.426   6.698  12.297  0.0697  0.7652  4.1432
 4254TIP3    H234254   3.438   6.847  12.318 -1.5164  1.7392 -0.6329
 4255TIP3   OH234255   6.309   5.867   0.798  0.0355  0.0433  0.4135
 4255TIP3    H134256   6.350   5.851   0.883 -0.2301 -0.0603  0.5220
 4255TIP3    H234257   6.269   5.783   0.775 -0.4292  0.2456  0.4787
 4256TIP3   OH234258   5.019   3.566  13.700  0.1073  0.0500 -0.8470
 4256TIP3    H134259   4.973   3.556  13.617  0.3591 -1.4062 -0.8288
 4256TIP3    H234260   5.078   3.491  13.705  1.5546  1.1575 -0.2516
 4257TIP3   OH234261   1.681   3.260   2.320 -0.1404 -0.5680 -0.2147
 4257TIP3    H134262   1.636   3.192   2.371 -1.1391  0.3432  0.1605
 4257TIP3    H234263   1.745   3.297   2.380 -2.9210  2.1735  1.3906
 4258TIP3   OH234264   3.325   0.191  15.474 -0.3590 -0.0793 -0.2535
 4258TIP3    H134265   3.251   0.150  15.428  0.2220 -1.6356  0.1466
 4258TIP3    H234266   3.357   0.123  15.533  1.7057  0.3951 -0.7626
 4259TIP3   OH234267   6.252   3.877  14.532 -0.1482  0.5867  0.5906
 4259TIP3    H134268   6.182   3.907  14.590 -0.8277  1.2161 -0.5243
 4259TIP3    H234269   6.235   3.922  14.449  0.2151 -1.0356 -0.4094
 4260TIP3   OH234270   5.864   5.757   0.384 -0.0245 -0.1113  0.6696
 4260TIP3    H134271   5.782   5.806   0.384  0.8853  1.5454 -0.5518
 4260TIP3    H234272   5.921   5.807   0.442  0.7472 -0.0117 -0.1509
 4261TIP3   OH234273   5.809   1.527   2.484  0.4051  0.5508 -0.1859
 4261TIP3    H134274   5.797   1.517   2.390 -1.2557  5.1491 -0.7169
 4261TIP3    H234275   5.901   1.551   2.494  0.4684  0.5461 -0.7060
 4262TIP3   OH234276   5.128   3.621  11.525 -0.3249  0.7565  0.1218
 4262TIP3    H134277   5.105   3.706  11.561  0.8939  1.1811 -0.0660
 4262TIP3    H234278   5.219   3.607  11.551 -0.7095 -0.7963  0.7254
 4263TIP3   OH234279   1.750   3.690   6.296  0.2329 -0.5784 -0.9328
 4263TIP3    H134280   1.782   3.775   6.268  3.3223 -1.2146  0.3712
 4263TIP3    H234281   1.655   3.695   6.281 -0.1557  3.9517  1.3966
 4264TIP3   OH234282   3.813   3.835  14.788 -0.0879  0.1328  1.0653
 4264TIP3    H134283   3.803   3.912  14.732 -0.5733 -1.1460 -0.7193
 4264TIP3    H234284   3.725   3.819  14.823 -0.1592 -0.0083  0.8322
 4265TIP3   OH234285   1.109   4.610   2.020  0.1291 -0.8108 -0.0835
 4265TIP3    H134286   1.181   4.647   2.070  0.6561  0.1982 -1.5241
 4265TIP3    H234287   1.144   4.527   1.986  0.3441 -0.7054 -0.1240
 4266TIP3   OH234288   5.536   2.471   5.879  0.1681 -0.1529 -0.2003
 4266TIP3    H134289   5.554   2.461   5.786  1.8043  0.3701  0.0233
 4266TIP3    H234290   5.552   2.564   5.896  0.9789 -0.4586  0.8021
 4267TIP3   OH234291   0.740   2.370  16.000 -0.1004  0.0366  0.3366
 4267TIP3    H134292   0.668   2.312  16.023 -0.6490  0.7124  0.3519
 4267TIP3    H234293   0.699   2.440  15.950  0.5306  0.4863  0.4383
 4268TIP3   OH234294   2.970   3.570   3.041  0.1295  0.8677 -0.3362
 4268TIP3    H134295   2.903   3.615   3.092 -0.0682  0.6184 -0.3749
 4268TIP3    H234296   2.966   3.611   2.954 -0.9051 -0.0559 -0.7473
 4269TIP3   OH234297   2.861   2.044   5.549  0.0300 -0.2648 -0.4706
 4269TIP3    H134298   2.871   2.016   5.640 -0.1016 -1.4114 -0.7834
 4269TIP3    H234299   2.776   2.086   5.546  1.3779  2.8318  0.6223
 4270TIP3   OH234300   0.998   3.048  12.914  0.7143  0.4414 -0.2586
 4270TIP3    H134301   1.041   3.049  12.828  0.0800 -0.4404 -0.5979
 4270TIP3    H234302   1.052   2.990  12.967  0.6730  0.3679 -0.2967
 4271TIP3   OH234303   5.582   0.317   2.634 -0.5254 -0.2574 -0.2298
 4271TIP3    H134304   5.602   0.285   2.722 -3.7027 -3.9031 -0.5942
 4271TIP3    H234305   5.520   0.389   2.649  1.4378  1.4185  0.4338
 4272TIP3   OH234306   6.711   4.760   4.647 -0.2348  0.0072  0.1560
 4272TIP3    H134307   6.759   4.689   4.690 -0.3164 -0.9042 -1.1693
 4272TIP3    H234308   6.647   4.715   4.592 -0.4784  1.1233 -0.4967
 4273TIP3   OH234309   3.026   5.301  11.162 -0.7005  0.3130 -0.0668
 4273TIP3    H134310   2.994   5.216  11.193  0.0557  0.3753  0.9344
 4273TIP3    H234311   2.957   5.332  11.103 -2.4862  0.3898  1.9187
 4274TIP3   OH234312   0.175   0.876  13.823 -0.1337  0.1330 -1.0080
 4274TIP3    H134313   0.105   0.941  13.813 -0.6509 -0.3289 -0.5182
 4274TIP3    H234314   0.221   0.902  13.903 -1.2453 -0.8743  0.0285
 4275TIP3   OH234315   4.844   0.056  13.378 -0.0720  0.3287 -0.7015
 4275TIP3    H134316   4.761   0.014  13.355 -0.8643  1.5946 -0.2595
 4275TIP3    H234317   4.875   0.095  13.296  0.2343 -0.3909 -0.9294
 4276TIP3   OH234318   3.593   6.463  16.035 -0.0941  0.3702 -0.2789
 4276TIP3    H134319   3.533   6.438  16.105  1.3057 -1.2745  0.4139
 4276TIP3    H234320   3.680   6.461  16.077  0.7054  0.0238 -1.8802
 4277TIP3   OH234321   4.812   1.208  16.650 -0.1589  0.0937  0.1077
 4277TIP3    H134322   4.727   1.251  16.637  0.0838 -0.0919 -2.8697
 4277TIP3    H234323   4.874   1.280  16.664 -0.6044  0.2912  1.1642
 4278TIP3   OH234324   1.226   3.507   0.287 -0.1161  0.0043  0.5041
 4278TIP3    H134325   1.288   3.460   0.343 -0.2315 -0.6995  0.0622
 4278TIP3    H234326   1.240   3.600   0.307  0.1865 -0.2139  1.3239
 4279TIP3   OH234327   2.230   2.004  15.205 -0.0964  0.3214 -0.3282
 4279TIP3    H134328   2.258   2.048  15.124 -1.2961  0.7319 -0.5411
 4279TIP3    H234329   2.151   1.957  15.180 -0.9116  1.0614  0.7626
 4280TIP3   OH234330   4.773   4.065   6.255  0.6647  0.0964  0.6203
 4280TIP3    H134331   4.715   4.007   6.304 -1.1262 -0.6489 -2.1418
 4280TIP3    H234332   4.714   4.129   6.215  1.5077 -1.1128 -2.8724
 4281TIP3   OH234333   0.952   5.399  14.578  0.3868 -0.0015  0.4637
 4281TIP3    H134334   0.943   5.336  14.650  0.4382  0.6523  1.0579
 4281TIP3    H234335   1.038   5.440  14.593  0.2490  0.3801  0.2222
 4282TIP3   OH234336   1.602   6.813  15.752  0.1936 -0.6770  0.3222
 4282TIP3    H134337   1.561   6.882  15.804 -0.1232 -0.0173 -0.7653
 4282TIP3    H234338   1.587   6.840  15.662  0.2003 -2.1062 -0.1207
 4283TIP3   OH234339   1.099   5.206   0.750 -1.4338 -0.3384  0.1040
 4283TIP3    H134340   1.105   5.299   0.772  1.0404 -0.2645 -0.5539
 4283TIP3    H234341   1.054   5.203   0.666 -1.2745  0.3044 -0.0079
 4284TIP3   OH234342   1.504   0.304   6.288  0.3626  0.1555 -0.0245
 4284TIP3    H134343   1.576   0.247   6.261  0.5014  0.3381 -0.0382
 4284TIP3    H234344   1.538   0.353   6.362 -0.3363 -1.0399  1.1310
 4285TIP3   OH234345   0.111   4.715  16.166 -0.3460 -0.2893 -0.3323
 4285TIP3    H134346   0.061   4.774  16.223  0.1289 -0.0821 -0.1242
 4285TIP3    H234347   0.141   4.645  16.224  0.8601  0.3663 -0.1323
 4286TIP3   OH234348   5.584   2.939  15.724 -0.6542  0.0245 -0.3224
 4286TIP3    H134349   5.503   2.957  15.677 -0.5456 -0.2114 -0.6076
 4286TIP3    H234350   5.653   2.973  15.666 -0.5945  1.0384  0.3244
 4287TIP3   OH234351   2.472   6.529  15.730  0.1844  0.0531  0.0454
 4287TIP3    H134352   2.395   6.476  15.709 -0.3154  0.3506  1.0491
 4287TIP3    H234353   2.436   6.607  15.773  1.0289  0.3563  0.2242
 4288TIP3   OH234354   5.075   4.530  12.897 -0.0448  0.2659 -0.3060
 4288TIP3    H134355   5.017   4.576  12.837 -0.1671  0.6478  0.0978
 4288TIP3    H234356   5.024   4.454  12.925 -1.0207  1.4427  1.2936
 4289TIP3   OH234357   6.026   1.099  10.799  0.0755 -0.1822  0.1775
 4289TIP3    H134358   5.962   1.028  10.804  0.4117 -0.4189  1.9792
 4289TIP3    H234359   5.977   1.174  10.765  0.2617 -1.7786 -4.2558
 4290TIP3   OH234360   2.374   0.254  10.630  0.3605 -0.4486 -0.0415
 4290TIP3    H134361   2.409   0.203  10.558 -0.2896 -0.0950 -0.6276
 4290TIP3    H234362   2.438   0.245  10.700  0.1111 -2.3025 -0.0188
 4291TIP3   OH234363   1.614   1.200   3.159 -0.4573 -0.3747  0.0907
 4291TIP3    H134364   1.531   1.247   3.151 -1.2723 -1.6532  0.8600
 4291TIP3    H234365   1.623   1.152   3.076  0.3451  1.0108 -0.6703
 4292TIP3   OH234366   0.564   1.412   0.129  0.5470  0.4767 -0.0889
 4292TIP3    H134367   0.620   1.440   0.057  0.1094  0.0864 -0.5852
 4292TIP3    H234368   0.625   1.376   0.194  1.0404  1.7408  0.1958
 4293TIP3   OH234369   5.785   2.711  14.760  0.2290 -0.3223  0.5250
 4293TIP3    H134370   5.789   2.806  14.750  0.1479 -0.2858  0.8207
 4293TIP3    H234371   5.802   2.676  14.672 -2.4229 -0.0029 -0.1795
 4294TIP3   OH234372   2.672   0.128  17.102  0.0117 -0.4715  0.3339
 4294TIP3    H134373   2.630   0.179  17.171 -2.1088 -1.2693 -0.2560
 4294TIP3    H234374   2.718   0.058  17.149 -1.1894 -0.8575  0.9997
 4295TIP3   OH234375   5.948   2.681  15.747 -0.7283  0.0306  0.3821
 4295TIP3    H134376   5.919   2.613  15.686 -1.4115  0.8369 -0.2125
 4295TIP3    H234377   6.009   2.636  15.806 -0.9438 -1.0238 -0.1785
 4296TIP3   OH234378   1.858   5.333  11.370 -0.2362 -0.3824 -0.1110
 4296TIP3    H134379   1.804   5.258  11.394 -0.2013 -0.5325 -0.4975
 4296TIP3    H234380   1.811   5.375  11.298  0.3330 -0.7230 -0.6937
 4297TIP3   OH234381   1.303   3.461  13.640  0.0723 -0.2780 -0.3776
 4297TIP3    H134382   1.272   3.374  13.613 -4.0780  1.0132 -0.3437
 4297TIP3    H234383   1.319   3.507  13.557  1.2653 -0.6841 -0.3950
 4298TIP3   OH234384   1.899   6.604   5.079 -0.1566 -0.1309  0.2803
 4298TIP3    H134385   1.899   6.607   5.175 -0.1512 -2.4835  0.4244
 4298TIP3    H234386   1.991   6.613   5.054  0.0688 -1.2377  0.6409
 4299TIP3   OH234387   0.147   4.122  16.470 -0.0603  0.3713 -0.3767
 4299TIP3    H134388   0.195   4.196  16.434  0.2953  0.4099  0.1724
 4299TIP3    H234389   0.184   4.108  16.557 -1.0311  0.3902  0.0554
 4300TIP3   OH234390   6.475   0.448   5.482  0.0965  0.3262 -0.2610
 4300TIP3    H134391   6.539   0.408   5.423  0.3756 -1.9722  1.5025
 4300TIP3    H234392   6.459   0.382   5.549 -3.0009  1.4263  0.2216
 4301TIP3   OH234393   1.113   5.619   4.205  0.3046  0.0497  0.0453
 4301TIP3    H134394   1.174   5.599   4.133  0.2811 -1.0029  0.3076
 4301TIP3    H234395   1.046   5.673   4.165  1.8320  1.9769 -0.0813
 4302TIP3   OH234396   6.681   2.419   0.055  0.2573 -0.2641  0.1897
 4302TIP3    H134397   6.673   2.478  -0.020 -2.0682  0.6091  1.0517
 4302TIP3    H234398   6.711   2.474   0.127 -1.6147 -0.1110  0.9184
 4303TIP3   OH234399   6.065   0.890  14.017 -0.2666  0.4334 -0.0782
 4303TIP3    H134400   5.985   0.940  14.033 -0.6887 -0.2099 -0.1878
 4303TIP3    H234401   6.135   0.947  14.051 -0.8659  0.4486  1.1937
 4304TIP3   OH234402   5.823   1.706  12.778  0.4601  0.8121  0.6435
 4304TIP3    H134403   5.834   1.725  12.685 -1.4875 -0.3717  0.1089
 4304TIP3    H234404   5.870   1.624  12.792 -0.5485  0.1413  0.2825
 4305TIP3   OH234405   1.016   5.453  11.400 -1.2702  0.0571 -0.4134
 4305TIP3    H134406   1.010   5.374  11.346  2.3674 -1.3869  0.9765
 4305TIP3    H234407   0.951   5.439  11.469 -1.9569 -0.8238 -1.1988
 4306TIP3   OH234408   0.961   4.894   2.713 -0.4064 -0.3935 -0.4050
 4306TIP3    H134409   0.938   4.833   2.784 -0.6874  0.9695  0.7200
 4306TIP3    H234410   1.021   4.956   2.754 -1.1393  0.8368 -1.1661
 4307TIP3   OH234411   0.660   4.435   1.052 -0.2540 -0.6901 -0.4182
 4307TIP3    H134412   0.658   4.522   1.093 -2.7854 -0.9580  0.1831
 4307TIP3    H234413   0.731   4.442   0.987 -1.4170  2.4163 -1.5817
 4308TIP3   OH234414   0.683   3.807   0.175  0.3218  0.2336 -0.0311
 4308TIP3    H134415   0.773   3.784   0.198  0.2727  0.5050  0.4338
 4308TIP3    H234416   0.642   3.723   0.156  0.0797 -0.1433  1.9054
 4309TIP3   OH234417   1.958   0.101  13.983 -0.2214 -0.2834  0.4955
 4309TIP3    H134418   1.893   0.086  14.051 -0.0437 -1.6456  0.3983
 4309TIP3    H234419   2.042   0.084  14.027 -0.1886 -3.3259 -0.5096
 4310TIP3   OH234420   0.543   4.177  16.029  0.1995  0.0679 -0.5227
 4310TIP3    H134421   0.632   4.183  15.996 -0.4999  0.1168 -2.4800
 4310TIP3    H234422   0.494   4.134  15.960 -0.9936 -1.4667  1.1730
 4311TIP3   OH234423   4.194   3.962  16.996  0.2538  0.6183  0.4577
 4311TIP3    H134424   4.175   4.033  16.934 -0.3295  0.2610  0.2216
 4311TIP3    H234425   4.290   3.958  16.999  0.2983  1.3721  0.4267
 4312TIP3   OH234426   1.081   1.521   4.545 -0.4972 -0.6214 -0.3568
 4312TIP3    H134427   1.156   1.530   4.487 -0.1050 -0.4266  0.1748
 4312TIP3    H234428   1.110   1.460   4.613 -0.9359 -0.8186 -0.3431
 4313TIP3   OH234429   0.835   5.788  14.652 -0.2569 -0.1728  0.0559
 4313TIP3    H134430   0.887   5.843  14.711  0.9990  1.3328 -2.3413
 4313TIP3    H234431   0.754   5.836  14.640  0.8406  1.3092 -2.0389
 4314TIP3   OH234432   2.285   2.481   5.092  0.3792  0.0297 -0.2634
 4314TIP3    H134433   2.272   2.486   4.997  0.8226  2.2834 -0.2789
 4314TIP3    H234434   2.356   2.542   5.109 -1.4856  1.8149  1.7801
 4315TIP3   OH234435   1.941   6.237  13.010  0.0591  0.0658 -0.4036
 4315TIP3    H134436   1.898   6.248  12.925  1.3505  1.6248 -0.9055
 4315TIP3    H234437   1.879   6.274  13.072  0.7132  2.6973 -1.1672
 4316TIP3   OH234438   0.334   2.008   1.634  0.2909 -0.1701  0.9507
 4316TIP3    H134439   0.292   1.948   1.572  0.2095  0.7971  0.0253
 4316TIP3    H234440   0.264   2.068   1.660  0.9069  1.1177 -0.1827
 4317TIP3   OH234441   2.603   6.212   0.228 -0.1086 -0.0732  0.3014
 4317TIP3    H134442   2.694   6.185   0.216  0.1652  0.5117  1.0332
 4317TIP3    H234443   2.554   6.159   0.165  0.5655 -1.3584  0.8313
 4318TIP3   OH234444   6.736   6.559   4.382  0.0323 -0.2370 -0.4963
 4318TIP3    H134445   6.736   6.533   4.474  1.8167  1.0033 -0.0849
 4318TIP3    H234446   6.672   6.629   4.377 -0.7900 -0.9664 -0.4327
 4319TIP3   OH234447   3.788   2.311  15.510  0.5250 -0.2191 -0.5269
 4319TIP3    H134448   3.725   2.295  15.581  0.4728  0.8040 -0.3263
 4319TIP3    H234449   3.845   2.380  15.544  0.0395  0.8322 -1.7418
 4320TIP3   OH234450   3.625   1.330   3.808  0.2930  0.1104 -0.0466
 4320TIP3    H134451   3.599   1.240   3.789 -1.3572  0.8778 -1.7206
 4320TIP3    H234452   3.688   1.322   3.879 -0.1970 -2.3232  0.2019
 4321TIP3   OH234453   1.690   2.526  16.782  0.5338  0.5563 -0.1128
 4321TIP3    H134454   1.691   2.620  16.761 -1.4542  0.2087 -2.1570
 4321TIP3    H234455   1.705   2.483  16.698  3.3762 -1.0347  1.0846
 4322TIP3   OH234456   5.402   4.435   1.910  0.1311 -0.3958 -0.3711
 4322TIP3    H134457   5.324   4.422   1.857 -0.4090  1.3925 -0.0666
 4322TIP3    H234458   5.422   4.528   1.903  2.3368 -0.8161 -0.5528
 4323TIP3   OH234459   6.799   0.291   1.462 -0.3750  0.4826  0.5596
 4323TIP3    H134460   6.854   0.345   1.405 -1.0468 -1.6280 -2.3144
 4323TIP3    H234461   6.710   0.311   1.437 -0.7649 -4.3017 -3.5771
 4324TIP3   OH234462   4.045   2.528   0.787 -0.0325  0.1117  0.0940
 4324TIP3    H134463   4.135   2.562   0.792  0.5006 -1.4398  2.1542
 4324TIP3    H234464   4.042   2.458   0.852 -2.4921 -0.5035 -0.5925
 4325TIP3   OH234465   2.951   3.847  10.818 -0.0741 -0.1392  0.3974
 4325TIP3    H134466   2.943   3.918  10.882 -0.6983  1.2650 -1.1663
 4325TIP3    H234467   3.042   3.849  10.791  0.1619 -0.6528  1.1322
 4326TIP3   OH234468   5.474   1.868   2.395 -0.4386  0.2240  0.0845
 4326TIP3    H134469   5.495   1.808   2.467 -1.3034  0.1172  0.2539
 4326TIP3    H234470   5.501   1.954   2.428 -1.1949  0.2350  0.7070
 4327TIP3   OH234471   5.631   3.709  11.512 -0.7645  0.3231  0.4808
 4327TIP3    H134472   5.672   3.772  11.572 -1.0965  1.5315 -0.5199
 4327TIP3    H234473   5.682   3.629  11.522  1.3615  1.5369 -0.1462
 4328TIP3   OH234474   2.020   3.912   1.392 -0.1617  0.8281 -0.1689
 4328TIP3    H134475   2.096   3.869   1.432  0.0540  1.4367  0.0932
 4328TIP3    H234476   1.944   3.874   1.436  0.0608  1.3101  0.6470
 4329TIP3   OH234477   3.136   5.909  14.318 -0.2757 -0.1152 -0.5494
 4329TIP3    H134478   3.056   5.960  14.333  0.7818  2.3755 -2.6576
 4329TIP3    H234479   3.109   5.837  14.261 -1.1803  0.0297 -0.3251
 4330TIP3   OH234480   2.580   6.648   0.900  0.6460 -0.6599 -0.0750
 4330TIP3    H134481   2.505   6.611   0.853 -2.9018  1.4528  3.3900
 4330TIP3    H234482   2.599   6.584   0.969 -0.3549  0.3612  1.1781
 4331TIP3   OH234483   1.334   6.406  13.872 -0.9080  0.1139 -0.5013
 4331TIP3    H134484   1.294   6.335  13.823  0.2379 -1.2152  0.4117
 4331TIP3    H234485   1.420   6.419  13.831 -1.6616  2.0412 -1.6162
 4332TIP3   OH234486   2.663   6.328   2.934 -0.0182  0.4326  0.5119
 4332TIP3    H134487   2.714   6.250   2.916  0.8070  0.9478  0.5729
 4332TIP3    H234488   2.715   6.378   2.997 -0.9067  0.6558  1.0980
 4333TIP3   OH234489   1.048   0.851   0.953  0.1167  0.7530  0.0025
 4333TIP3    H134490   0.960   0.844   0.991  0.6885 -1.2589  1.1046
 4333TIP3    H234491   1.037   0.905   0.875 -2.3660 -0.5781 -0.6669
 4334TIP3   OH234492   3.360   1.132   1.687  0.2743  0.4671  0.1210
 4334TIP3    H134493   3.358   1.213   1.637 -0.6673  0.7211  0.5378
 4334TIP3    H234494   3.366   1.063   1.621 -0.6329  0.8140 -0.3375
 4335TIP3   OH234495   1.072   2.211  15.513 -0.2700 -0.6748 -0.1740
 4335TIP3    H134496   0.981   2.229  15.537 -0.3985 -0.0667 -1.0502
 4335TIP3    H234497   1.070   2.122  15.477 -0.2946 -1.1136  0.8845
 4336TIP3   OH234498   4.397   6.412   0.092  0.0519 -0.2636  0.3032
 4336TIP3    H134499   4.402   6.468   0.015 -1.7594  0.0226  0.3553
 4336TIP3    H234500   4.312   6.369   0.085  0.2387 -0.9171  1.6785
 4337TIP3   OH234501   3.697   6.185   0.948 -0.0343  0.1127 -0.1243
 4337TIP3    H134502   3.709   6.244   0.873  1.0198 -0.7812 -0.6924
 4337TIP3    H234503   3.619   6.218   0.993 -0.3307  1.0269 -1.2712
 4338TIP3   OH234504   3.934   1.484   1.851  0.6729 -0.3965 -0.1079
 4338TIP3    H134505   3.869   1.417   1.830 -0.1384 -0.1791  1.4878
 4338TIP3    H234506   3.887   1.567   1.837  1.2995 -0.1665 -0.9540
 4339TIP3   OH234507   5.082   0.892  12.636 -0.2394 -0.4444  0.5923
 4339TIP3    H134508   5.128   0.874  12.554  0.6875  1.2357  0.7009
 4339TIP3    H234509   5.006   0.833  12.635  0.7165 -1.7107 -0.6199
 4340TIP3   OH234510   2.690   5.809  11.685  0.1709 -0.2426 -0.0612
 4340TIP3    H134511   2.746   5.765  11.621 -1.1531 -0.2278 -1.2832
 4340TIP3    H234512   2.604   5.769  11.673 -0.9190  2.1189 -0.7019
 4341TIP3   OH234513   0.728   1.118  16.290 -0.0886 -0.2812 -1.3738
 4341TIP3    H134514   0.666   1.112  16.363 -0.7572 -1.5988 -2.0138
 4341TIP3    H234515   0.757   1.210  16.291 -0.5906 -0.1101  0.1166
 4342TIP3   OH234516   5.045   2.711   5.225  0.2033 -0.0783  0.0090
 4342TIP3    H134517   5.132   2.750   5.238  0.3250 -0.0762 -0.7493
 4342TIP3    H234518   4.985   2.771   5.270  0.5442  0.1949  0.1072
 4343TIP3   OH234519   4.510   4.182  14.648  0.2805  0.0685  0.7632
 4343TIP3    H134520   4.466   4.110  14.692 -0.5052 -0.2864 -0.5427
 4343TIP3    H234521   4.587   4.141  14.607  1.2167  0.4661  2.0683
 4344TIP3   OH234522   6.542   3.578  15.672 -0.0335 -0.0482  0.4719
 4344TIP3    H134523   6.537   3.588  15.767  0.5742  1.1653  0.3920
 4344TIP3    H234524   6.533   3.667  15.638  0.1991 -0.4171 -0.5976
 4345TIP3   OH234525   1.140   6.022  13.763  0.1264 -0.0607  0.1158
 4345TIP3    H134526   1.051   6.042  13.737  0.0642  2.4048  1.9274
 4345TIP3    H234527   1.182   5.989  13.683 -1.4246  2.1402 -1.7212
 4346TIP3   OH234528   3.630   0.636  17.058 -0.2151  0.4613 -0.1196
 4346TIP3    H134529   3.705   0.597  17.102  0.4632  0.2926 -1.3941
 4346TIP3    H234530   3.554   0.592  17.096  0.2142  1.3962  1.9915
 4347TIP3   OH234531   4.895   4.917  16.632  0.6008 -0.1749 -0.6152
 4347TIP3    H134532   4.978   4.885  16.596  1.2367  0.5948  0.1091
 4347TIP3    H234533   4.921   4.986  16.693 -0.2270 -2.8020  3.0269
 4348TIP3   OH234534   2.458   0.084  13.664 -0.2262  0.0437  0.1531
 4348TIP3    H134535   2.530   0.075  13.727  0.0786  0.1444 -0.1806
 4348TIP3    H234536   2.458   0.002  13.615 -1.1965 -0.5104  1.0406
 4349TIP3   OH234537   5.475   5.134  14.093  0.2776  0.3640 -0.3543
 4349TIP3    H134538   5.410   5.188  14.048  0.6984  1.9054  0.8020
 4349TIP3    H234539   5.556   5.151  14.045  1.2212  3.7377  2.0748
 4350TIP3   OH234540   0.273   4.610  14.951  0.2581 -0.5231  0.0441
 4350TIP3    H134541   0.240   4.625  14.862  0.0364  0.7051  0.3233
 4350TIP3    H234542   0.306   4.520  14.949 -0.0209 -0.6153 -1.1940
 4351TIP3   OH234543   5.782   3.211   3.619 -0.5795  0.4678  0.2903
 4351TIP3    H134544   5.874   3.183   3.616 -0.8169 -0.8678  2.7605
 4351TIP3    H234545   5.784   3.302   3.590  1.3491  0.1581 -0.7506
 4352TIP3   OH234546   4.485   6.623   4.215  0.0705  0.5377  0.7376
 4352TIP3    H134547   4.458   6.547   4.266 -0.9183  0.7897  0.6049
 4352TIP3    H234548   4.514   6.686   4.281 -0.3380  0.5254  0.9318
 4353TIP3   OH234549   1.381   6.558  15.435  0.1311 -0.4743  0.0726
 4353TIP3    H134550   1.339   6.599  15.511  0.0561  0.5167 -0.4924
 4353TIP3    H234551   1.474   6.578  15.445  0.1744 -0.6795  0.0984
 4354TIP3   OH234552   5.004   0.078   2.000  0.0583 -0.0758 -0.0288
 4354TIP3    H134553   4.968   0.102   1.915 -3.1070 -0.9450  0.9280
 4354TIP3    H234554   5.032   0.161   2.038 -3.2604  1.1869  0.0194
 4355TIP3   OH234555   4.569   2.496  13.691  0.1118 -0.1389  0.1707
 4355TIP3    H134556   4.582   2.405  13.666 -0.3885 -0.0684 -0.3830
 4355TIP3    H234557   4.572   2.496  13.787 -0.4207 -0.8274  0.1926
 4356TIP3   OH234558   0.813   6.016   1.152 -0.9118  0.0183  0.6261
 4356TIP3    H134559   0.759   6.092   1.131 -2.6912 -1.4608 -0.4938
 4356TIP3    H234560   0.763   5.969   1.219 -0.5445 -0.8623  0.2994
 4357TIP3   OH234561   3.176   1.102   5.431 -0.4503 -0.1461 -0.5333
 4357TIP3    H134562   3.129   1.121   5.349  0.6202  3.3541 -0.5149
 4357TIP3    H234563   3.115   1.131   5.500  0.3130  1.0959 -0.3534
 4358TIP3   OH234564   0.326   4.182   0.922  0.3059 -0.7536 -0.3468
 4358TIP3    H134565   0.361   4.093   0.921  0.3647 -0.7279 -0.5515
 4358TIP3    H234566   0.352   4.219   0.838 -0.2582 -0.7524 -0.5259
 4359TIP3   OH234567   0.750   0.496  16.332  0.0861  0.0591  0.0552
 4359TIP3    H134568   0.721   0.420  16.280  0.4155  0.9955 -1.5671
 4359TIP3    H234569   0.837   0.516  16.298  0.4668  0.4745  1.2590
 4360TIP3   OH234570   5.076   6.227   5.957  0.2029 -0.3295  0.5120
 4360TIP3    H134571   5.093   6.266   6.043 -1.0025 -1.4181  1.2843
 4360TIP3    H234572   5.065   6.134   5.975  0.5932 -0.6791 -0.9400
 4361TIP3   OH234573   3.452   4.162   2.177  0.7573 -0.3652 -0.4668
 4361TIP3    H134574   3.383   4.101   2.205  0.8559  0.6371  2.2127
 4361TIP3    H234575   3.503   4.112   2.113 -1.4296 -1.7114 -1.2872
 4362TIP3   OH234576   0.244   5.882   5.568 -0.4732  0.1475  0.4251
 4362TIP3    H134577   0.237   5.964   5.519 -3.7017 -0.2435  0.0261
 4362TIP3    H234578   0.198   5.899   5.650  2.0053 -0.2324  1.9988
 4363TIP3   OH234579   5.257   6.126  12.644  0.6555  0.2838  0.4941
 4363TIP3    H134580   5.275   6.172  12.562  0.0968  0.1310  0.2792
 4363TIP3    H234581   5.163   6.108  12.640  0.9290 -1.2448  0.3812
 4364TIP3   OH234582   1.134   2.226   3.252 -0.4987  0.2174  0.1657
 4364TIP3    H134583   1.040   2.240   3.261 -0.8283 -0.4149 -1.7868
 4364TIP3    H234584   1.171   2.314   3.249 -1.1588  0.4918 -0.0761
 4365TIP3   OH234585   1.609   2.920   1.052  0.3251 -0.2762 -0.4445
 4365TIP3    H134586   1.573   2.866   1.121  1.6565 -0.6696 -0.0214
 4365TIP3    H234587   1.695   2.947   1.085  0.6718  0.1482 -1.6294
 4366TIP3   OH234588   5.035   1.451   5.233 -0.6164 -0.4919  0.4891
 4366TIP3    H134589   5.065   1.539   5.253  0.2031  0.0671 -2.6271
 4366TIP3    H234590   4.940   1.458   5.227 -0.5124  0.3911 -0.4019
 4367TIP3   OH234591   6.024   0.874  14.634 -0.2738  0.5455  0.1346
 4367TIP3    H134592   5.994   0.869  14.725  0.5654 -0.3807  0.3767
 4367TIP3    H234593   5.971   0.808  14.588  1.9029 -1.7929  0.7503
 4368TIP3   OH234594   1.240   4.010   1.371 -0.3472 -0.3963 -0.1511
 4368TIP3    H134595   1.335   4.002   1.381 -0.3376  1.3205  1.8830
 4368TIP3    H234596   1.227   4.086   1.315 -0.4802  0.4483  0.9831
 4369TIP3   OH234597   6.098   3.762   1.008 -0.1431  0.0179  0.2884
 4369TIP3    H134598   6.163   3.816   1.053 -0.4267 -0.0691  0.8150
 4369TIP3    H234599   6.055   3.714   1.078 -0.8748  0.1810 -0.0400
 4370TIP3   OH234600   0.504   5.679   3.077  0.3335 -0.3064 -0.2554
 4370TIP3    H134601   0.583   5.627   3.091  1.2984  1.5185  1.6609
 4370TIP3    H234602   0.470   5.695   3.165 -1.7097 -0.3051 -0.9894
 4371TIP3   OH234603   6.394   2.430   2.280  0.2328 -0.5334 -0.1068
 4371TIP3    H134604   6.473   2.480   2.300  0.6671 -1.1697 -0.2179
 4371TIP3    H234605   6.340   2.490   2.229  1.5151 -0.7734 -1.7986
 4372TIP3   OH234606   1.633   5.418  14.528 -0.5711 -0.2162 -0.0451
 4372TIP3    H134607   1.698   5.389  14.465 -0.1770  0.2288  0.1452
 4372TIP3    H234608   1.665   5.504  14.558  0.9104 -1.6787  3.0428
 4373TIP3   OH234609   0.884   0.868  12.130  0.1166  0.0535 -0.0164
 4373TIP3    H134610   0.875   0.931  12.059  1.7822 -0.7001 -0.9504
 4373TIP3    H234611   0.950   0.906  12.188  1.4258 -0.9500 -0.7898
 4374TIP3   OH234612   6.175   6.666   2.797  0.4883 -0.0857  0.0414
 4374TIP3    H134613   6.249   6.727   2.790  0.7382 -0.3769  0.1030
 4374TIP3    H234614   6.112   6.710   2.854  1.4352 -0.6324  1.5797
 4375TIP3   OH234615   0.895   1.498   4.927 -0.4491  0.6149  0.0803
 4375TIP3    H134616   0.801   1.486   4.914 -0.4991  1.0044  0.0615
 4375TIP3    H234617   0.921   1.424   4.982 -0.2650 -0.9868 -2.0212
 4376TIP3   OH234618   2.245   5.029  16.566  0.3070  0.1218  0.1870
 4376TIP3    H134619   2.225   5.079  16.646  0.2924  0.8366 -0.2553
 4376TIP3    H234620   2.326   4.983  16.586 -0.5108 -0.9722  1.1790
 4377TIP3   OH234621   5.551   0.996   4.658 -0.0511  0.2248 -0.2555
 4377TIP3    H134622   5.634   0.963   4.691 -0.3176  0.2946  0.5097
 4377TIP3    H234623   5.569   1.088   4.636  0.0747  0.2408 -0.0879
 4378TIP3   OH234624   0.023   5.864  12.939  0.0611 -0.4170  0.0871
 4378TIP3    H134625   0.080   5.933  12.971  0.1934 -0.0951 -0.7954
 4378TIP3    H234626   0.069   5.829  12.862 -0.8779 -0.1999 -0.5959
 4379TIP3   OH234627   6.390   4.305   0.576 -0.0222 -0.7031  0.3183
 4379TIP3    H134628   6.454   4.297   0.646 -0.0814 -0.8897  0.3542
 4379TIP3    H234629   6.340   4.383   0.597  0.4393 -0.3421  0.0836
 4380TIP3   OH234630   4.600   1.163  12.046 -0.0840  0.2081  0.2880
 4380TIP3    H134631   4.566   1.183  11.959  2.2805 -0.1426 -0.7909
 4380TIP3    H234632   4.522   1.151  12.100 -1.8101  5.5627 -0.4451
 4381TIP3   OH234633   0.203   3.394   1.059  0.6424  0.0741 -0.0588
 4381TIP3    H134634   0.188   3.427   0.970 -0.4164  1.7229  0.6823
 4381TIP3    H234635   0.218   3.300   1.047 -1.1260 -0.0505 -1.8286
 4382TIP3   OH234636   1.977   4.992  16.755 -1.1202 -0.3506 -0.2898
 4382TIP3    H134637   1.921   4.928  16.799  0.0571  0.1910  2.2259
 4382TIP3    H234638   2.052   4.942  16.724  0.0356 -0.2324  2.1051
 4383TIP3   OH234639   1.325   0.076  12.848 -0.2806  0.3642  0.8326
 4383TIP3    H134640   1.400   0.056  12.904 -1.7799  0.4580  3.0083
 4383TIP3    H234641   1.282   0.150  12.891 -0.3760  1.8316 -1.6341
 4384TIP3   OH234642   3.093   5.397   1.760 -0.3283  0.0406 -0.5280
 4384TIP3    H134643   3.170   5.442   1.725  0.1132 -0.2798  0.0085
 4384TIP3    H234644   3.026   5.465   1.765  0.7905  1.1132  1.8290
 4385TIP3   OH234645   5.555   5.991   6.683 -0.4576  0.3478  0.0491
 4385TIP3    H134646   5.618   6.059   6.707  0.8088  0.2428 -2.6164
 4385TIP3    H234647   5.599   5.941   6.614 -3.6871  0.7241 -2.4846
 4386TIP3   OH234648   4.654   0.454   0.111  0.5458  0.2093  0.2044
 4386TIP3    H134649   4.672   0.420   0.023  0.2882  2.4887 -0.8119
 4386TIP3    H234650   4.710   0.532   0.118 -0.0500  0.5355  1.7519
 4387TIP3   OH234651   6.511   5.033   1.792  0.5867 -0.1290  0.1393
 4387TIP3    H134652   6.471   5.039   1.706  1.5765 -1.3207 -0.4414
 4387TIP3    H234653   6.596   5.076   1.782 -0.3009  2.0846  1.2659
 4388TIP3   OH234654   4.137   0.982  16.574 -0.8009  0.4850  0.7004
 4388TIP3    H134655   4.193   1.059  16.582  0.7984 -0.4707 -0.4311
 4388TIP3    H234656   4.051   1.016  16.550 -0.0146  1.9095 -0.2759
 4389TIP3   OH234657   5.753   0.832  11.428 -0.1468  0.0259 -0.4578
 4389TIP3    H134658   5.834   0.790  11.398 -1.0675 -0.6725 -2.0783
 4389TIP3    H234659   5.686   0.764  11.419 -1.0462  0.7977  0.2224
 4390TIP3   OH234660   1.576   6.510  13.738  0.2546  1.1344 -0.2565
 4390TIP3    H134661   1.618   6.591  13.764  1.2981 -0.0700  2.0862
 4390TIP3    H234662   1.643   6.463  13.688  0.7994  0.3722  1.1554
 4391TIP3   OH234663   4.109   1.542   2.814 -0.2850 -0.3173  0.2672
 4391TIP3    H134664   4.059   1.558   2.894 -0.6596  1.0565 -0.2161
 4391TIP3    H234665   4.067   1.465   2.775 -2.1071  0.8109 -0.1434
 4392TIP3   OH234666   0.958   4.953  12.100  0.2710 -0.5566  0.0767
 4392TIP3    H134667   0.956   4.866  12.141 -0.6947 -0.5096  0.1480
 4392TIP3    H234668   1.013   5.005  12.158  0.5456 -1.0209  0.2417
 4393TIP3   OH234669   1.913   0.377   0.536  0.0844 -0.0826 -0.0654
 4393TIP3    H134670   2.007   0.389   0.529  0.0853 -0.5223 -0.8861
 4393TIP3    H234671   1.880   0.390   0.447 -0.4602 -1.3496 -0.0589
 4394TIP3   OH234672   3.167   6.492  13.996 -0.0163 -0.1769 -0.4451
 4394TIP3    H134673   3.253   6.480  13.955 -0.2052  0.2216 -0.9776
 4394TIP3    H234674   3.149   6.586  13.986 -0.5841 -0.2878 -0.4827
 4395TIP3   OH234675   4.985   5.411   3.714 -0.4527 -0.1304 -0.1426
 4395TIP3    H134676   5.069   5.379   3.747 -0.3290 -0.2777 -0.5937
 4395TIP3    H234677   4.964   5.352   3.641 -1.2476 -0.4758  0.3580
 4396TIP3   OH234678   0.434   4.722   2.009 -0.0469  0.1775  0.8044
 4396TIP3    H134679   0.363   4.729   1.946  0.0636  1.2295  0.7835
 4396TIP3    H234680   0.484   4.645   1.980 -0.8050 -0.1871  0.4533
 4397TIP3   OH234681   1.156   6.209  16.941  0.2732 -0.4647 -0.4061
 4397TIP3    H134682   1.118   6.121  16.947  0.2056 -0.5803 -2.1972
 4397TIP3    H234683   1.243   6.195  16.904  0.6589  0.1441  0.2505
 4398TIP3   OH234684   3.297   0.660  16.622 -0.2741 -0.2925 -0.2183
 4398TIP3    H134685   3.342   0.613  16.692 -0.2635  1.9833  1.4221
 4398TIP3    H234686   3.366   0.710  16.578 -0.8721  2.5298  1.7533
 4399TIP3   OH234687   6.100   2.081   4.890  0.2222 -0.0454 -0.2463
 4399TIP3    H134688   6.016   2.127   4.884 -0.6598 -1.7520 -1.9714
 4399TIP3    H234689   6.149   2.111   4.814  1.0538  0.6297  0.5316
 4400TIP3   OH234690   0.622   5.732   5.763 -0.1542 -0.1267  0.2656
 4400TIP3    H134691   0.684   5.664   5.789  0.0278 -0.6524 -1.4289
 4400TIP3    H234692   0.667   5.814   5.784  0.4812 -0.5127  0.4528
 4401TIP3   OH234693   6.798   0.052   5.125 -0.2320 -0.8420  0.0451
 4401TIP3    H134694   6.868   0.108   5.092 -1.8935  0.4405 -1.5650
 4401TIP3    H234695   6.828   0.023   5.211  2.2281 -0.3521 -0.5830
 4402TIP3   OH234696   0.602   5.057   5.351 -0.2396  0.2408  0.3803
 4402TIP3    H134697   0.671   5.108   5.308  0.2469  1.0345  2.0479
 4402TIP3    H234698   0.609   4.969   5.312  1.1934  0.5189 -0.0331
 4403TIP3   OH234699   2.950   0.899   5.387  0.3744  0.4108  0.8555
 4403TIP3    H134700   2.884   0.939   5.331  0.3954 -0.0300  0.5135
 4403TIP3    H234701   3.017   0.867   5.326  0.1657 -0.5056  1.0913
 4404TIP3   OH234702   6.096   6.141   4.331 -0.4180  0.0968  0.4219
 4404TIP3    H134703   6.069   6.217   4.383 -1.3176  0.0350  0.0470
 4404TIP3    H234704   6.053   6.152   4.247 -0.6357 -0.8746  0.3915
 4405TIP3   OH234705   4.658   4.748   0.855  0.3439 -0.2824 -0.3432
 4405TIP3    H134706   4.689   4.679   0.796 -0.1015  0.2321 -1.1834
 4405TIP3    H234707   4.572   4.772   0.822  0.1946  0.1901  0.3699
 4406TIP3   OH234708   1.246   4.720  13.524 -0.6675 -0.2642  0.4409
 4406TIP3    H134709   1.265   4.735  13.617  0.0701 -1.2919  0.4687
 4406TIP3    H234710   1.154   4.695  13.522 -0.3080 -1.7682  1.1058
 4407TIP3   OH234711   2.165   4.068  13.676  0.4627  0.0630  0.4725
 4407TIP3    H134712   2.234   4.019  13.630  1.5046  0.1385  1.8677
 4407TIP3    H234713   2.094   4.006  13.686  1.2313 -0.7605  1.0055
 4408TIP3   OH234714   3.314   5.859  15.002 -0.4749 -0.1827 -0.0261
 4408TIP3    H134715   3.252   5.929  15.022  1.7310  1.8167  0.1980
 4408TIP3    H234716   3.362   5.846  15.083 -0.2136 -1.3162 -0.3498
 4409TIP3   OH234717   4.552   5.901   2.222  0.0748  0.2012  0.1382
 4409TIP3    H134718   4.522   5.816   2.256  0.0209  0.8168  1.7216
 4409TIP3    H234719   4.521   5.903   2.132 -0.6166 -1.1278  0.3167
 4410TIP3   OH234720   3.119   0.052  15.339 -0.0036  0.0595 -0.0039
 4410TIP3    H134721   3.079  -0.027  15.377 -0.4434 -0.1309 -0.8397
 4410TIP3    H234722   3.046   0.096  15.295  0.5003  0.2551 -0.6468
 4411TIP3   OH234723   4.466   4.227  14.291 -0.4110 -0.0685 -0.0023
 4411TIP3    H134724   4.395   4.246  14.352 -1.5182 -2.1991 -0.5467
 4411TIP3    H234725   4.422   4.200  14.210  1.0233 -0.6301 -0.6260
 4412TIP3   OH234726   5.948   4.528  11.224 -0.1156 -0.6382 -0.7069
 4412TIP3    H134727   5.976   4.540  11.134 -2.1415 -1.2301 -1.4911
 4412TIP3    H234728   5.870   4.472  11.217 -0.5128 -0.4270  1.3748
 4413TIP3   OH234729   4.824   4.858  13.509 -0.3759  0.0666 -0.1596
 4413TIP3    H134730   4.894   4.907  13.466 -0.2258 -1.0966 -1.3107
 4413TIP3    H234731   4.866   4.777  13.538 -0.8537  0.1388  0.7712
 4414TIP3   OH234732   5.900   2.768   2.192  0.0052 -0.7017 -0.3959
 4414TIP3    H134733   5.983   2.809   2.167 -0.2311  0.1488  0.1696
 4414TIP3    H234734   5.900   2.769   2.287 -0.6698 -0.6460 -0.3893
 4415TIP3   OH234735   1.635   1.417   0.768  0.1401 -0.1415  0.6202
 4415TIP3    H134736   1.668   1.338   0.725 -0.3565 -0.1931  0.3280
 4415TIP3    H234737   1.706   1.481   0.758  0.3470 -0.3958  0.4291
 4416TIP3   OH234738   5.402   6.210  17.030  0.0607  0.2162 -0.2758
 4416TIP3    H134739   5.371   6.185  16.943  0.6492 -2.2556  0.1370
 4416TIP3    H234740   5.322   6.232  17.079 -0.4037  0.2078 -1.0165
 4417TIP3   OH234741   1.472   0.990   1.513 -0.1072 -0.5732 -0.7755
 4417TIP3    H134742   1.517   0.927   1.570  0.0969  2.0749  2.2989
 4417TIP3    H234743   1.380   0.962   1.516  0.0464 -1.0430  0.0840
 4418TIP3   OH234744   5.930   4.303  13.023 -0.3296  0.2530  0.5144
 4418TIP3    H134745   5.916   4.284  12.930 -1.0983  1.1594  0.4313
 4418TIP3    H234746   6.016   4.266  13.042  1.0018  2.2860 -1.1934
 4419TIP3   OH234747   5.251   5.006   2.937  0.9362  0.0828  0.2316
 4419TIP3    H134748   5.318   5.063   2.901 -0.2806 -0.4758 -3.3624
 4419TIP3    H234749   5.178   5.064   2.959  0.9017  0.2450 -0.3045
 4420TIP3   OH234750   0.008   3.800  13.269 -0.2119  0.2991 -0.4005
 4420TIP3    H134751   0.055   3.721  13.295  0.7720  1.2390  0.7921
 4420TIP3    H234752   0.076   3.863  13.248 -0.9861  0.4051 -2.8310
 4421TIP3   OH234753   0.049   6.728  12.904  0.0731  0.0394 -0.1970
 4421TIP3    H134754  -0.043   6.754  12.897 -0.2735 -1.1043 -0.0829
 4421TIP3    H234755   0.068   6.732  12.998  0.4178  1.1410 -0.2978
 4422TIP3   OH234756   1.287   0.978  11.969  0.0068 -1.0026 -0.1725
 4422TIP3    H134757   1.361   1.026  11.932 -0.0914 -1.9480 -1.6680
 4422TIP3    H234758   1.328   0.904  12.014 -0.0015 -1.4990 -0.9586
 4423TIP3   OH234759   1.242   3.737   2.653  0.0145 -0.0354 -0.3253
 4423TIP3    H134760   1.327   3.739   2.610 -1.1353  2.1558 -2.7278
 4423TIP3    H234761   1.261   3.703   2.741  3.2797  0.0356 -0.8758
 4424TIP3   OH234762   0.422   4.094  14.576 -0.5732  0.2787  0.0149
 4424TIP3    H134763   0.376   4.119  14.496 -0.8980  0.8281  0.3674
 4424TIP3    H234764   0.480   4.023  14.548  0.5647  1.5733 -1.0780
 4425TIP3   OH234765   4.819   5.293   2.685 -0.6581 -0.1013 -0.0780
 4425TIP3    H134766   4.850   5.383   2.672 -1.4119  0.0770 -0.7373
 4425TIP3    H234767   4.765   5.275   2.608 -1.4200 -0.7204  0.5797
 4426TIP3   OH234768   0.892   5.210   5.611 -0.2531  0.1804 -0.3207
 4426TIP3    H134769   0.878   5.262   5.690  0.1307  1.5661 -1.1357
 4426TIP3    H234770   0.927   5.127   5.644  0.2939  0.8744  0.9395
 4427TIP3   OH234771   3.425   3.639  10.145 -0.7693  0.3562 -0.1122
 4427TIP3    H134772   3.366   3.577  10.187 -1.0746  1.0028  0.4208
 4427TIP3    H234773   3.504   3.639  10.200 -0.6275  0.1848 -0.3106
 4428TIP3   OH234774   4.468   2.424  14.288 -0.4474 -0.2566 -0.4068
 4428TIP3    H134775   4.469   2.339  14.331 -0.4106  0.4070  0.9526
 4428TIP3    H234776   4.536   2.418  14.221 -0.6213 -1.3717 -0.5013
 4429TIP3   OH234777   5.805   2.953  12.597  0.2291 -0.3465 -0.0305
 4429TIP3    H134778   5.766   2.886  12.540  0.2326 -0.1692 -0.2448
 4429TIP3    H234779   5.890   2.971  12.558 -0.7861  1.6633 -1.5410
 4430TIP3   OH234780   3.358   3.733  13.444 -0.2908 -0.1969 -0.6082
 4430TIP3    H134781   3.431   3.722  13.505  0.0036 -2.1795 -1.2385
 4430TIP3    H234782   3.280   3.714  13.496 -0.2138  0.0676 -0.3909
 4431TIP3   OH234783   1.043   4.538   5.203 -0.5965 -0.0571 -0.6324
 4431TIP3    H134784   1.082   4.615   5.244 -1.7898  0.1675  0.1359
 4431TIP3    H234785   1.029   4.564   5.112  2.7648 -0.8154 -1.4985
 4432TIP3   OH234786   5.166   1.195   0.649  0.1052  0.0483 -0.7630
 4432TIP3    H134787   5.129   1.208   0.736 -1.0641  0.7212 -1.3368
 4432TIP3    H234788   5.168   1.100   0.637 -1.6746 -0.0207 -0.7933
 4433TIP3   OH234789   3.137   0.886  14.133 -0.0010  0.4582  0.3604
 4433TIP3    H134790   3.072   0.820  14.111  0.1415  0.3602  0.2359
 4433TIP3    H234791   3.164   0.864  14.222  0.5665 -0.0775  0.0592
 4434TIP3   OH234792   3.239   2.490  11.968  0.2041  0.1059 -0.2211
 4434TIP3    H134793   3.281   2.492  11.882  1.6166 -0.2666  0.4279
 4434TIP3    H234794   3.297   2.541  12.025 -0.7811  0.4704  0.4904
 4435TIP3   OH234795   1.163   1.282  11.643 -0.3262 -0.0941  0.3467
 4435TIP3    H134796   1.173   1.198  11.599 -0.2649  0.3216 -0.4486
 4435TIP3    H234797   1.113   1.262  11.722 -2.7058 -0.4826 -1.1689
 4436TIP3   OH234798   5.844   0.286  15.525 -0.0523  0.0146 -0.0613
 4436TIP3    H134799   5.793   0.283  15.444  0.0699 -0.5734 -0.1191
 4436TIP3    H234800   5.904   0.212  15.519  0.5399  0.4663  0.1887
 4437TIP3   OH234801   2.220   0.646   6.659  0.3872 -0.0108 -0.5414
 4437TIP3    H134802   2.149   0.672   6.600 -0.3227 -2.4250 -0.8453
 4437TIP3    H234803   2.183   0.655   6.747  0.7440  1.5531 -0.5144
 4438TIP3   OH234804   2.923   1.690  16.776 -0.3758 -0.1063  0.2519
 4438TIP3    H134805   2.977   1.768  16.791 -0.4007 -0.2500  1.1684
 4438TIP3    H234806   2.835   1.718  16.802 -1.1818  0.6972 -2.9267
 4439TIP3   OH234807   5.623   4.956   1.033  0.7265 -0.1281 -0.7393
 4439TIP3    H134808   5.580   5.041   1.018  2.4756  1.0334  0.4847
 4439TIP3    H234809   5.711   4.979   1.064  0.3727 -2.3530  2.3453
 4440TIP3   OH234810   5.254   5.195  15.087  0.0909  0.4513  0.4187
 4440TIP3    H134811   5.207   5.276  15.068  0.2312  0.9343  2.0065
 4440TIP3    H234812   5.345   5.213  15.061 -0.1576  0.2547 -0.6421
 4441TIP3   OH234813   0.943   1.207   4.527  0.0804  0.4665  0.2046
 4441TIP3    H134814   0.946   1.112   4.534  0.0903  0.4486 -0.0258
 4441TIP3    H234815   0.853   1.231   4.549  0.0445  0.3927  0.1377
 4442TIP3   OH234816   3.271   0.059   1.445 -0.1226  0.5985 -0.2320
 4442TIP3    H134817   3.234   0.127   1.389 -1.0812 -0.6940 -1.2309
 4442TIP3    H234818   3.200   0.033   1.502  0.6015  1.2757  1.0243
 4443TIP3   OH234819   3.308   4.711  10.613  0.5654 -0.2042  0.3646
 4443TIP3    H134820   3.363   4.784  10.583 -0.9975  0.2133 -1.6402
 4443TIP3    H234821   3.225   4.722  10.567 -0.1022 -2.6650  0.8303
 4444TIP3   OH234822   3.043   5.154   0.780  0.6341  0.2459 -0.2112
 4444TIP3    H134823   3.127   5.161   0.826  0.5444  1.4778 -0.2256
 4444TIP3    H234824   2.994   5.231   0.807 -1.3453 -1.4756  1.4794
 4445TIP3   OH234825   5.462   4.042   1.425  0.4149 -0.0717  0.4090
 4445TIP3    H134826   5.370   4.022   1.443  0.5434 -1.7930 -0.5876
 4445TIP3    H234827   5.459   4.094   1.345  0.3574 -1.5669 -0.5936
 4446TIP3   OH234828   4.149   0.980  13.295  0.9213  0.4541  0.0760
 4446TIP3    H134829   4.193   0.974  13.210  1.2956  1.7444  0.1516
 4446TIP3    H234830   4.218   1.003  13.357  0.5194  0.2949  0.5985
 4447TIP3   OH234831   3.594   4.721   0.279  0.1125 -0.1762 -0.3402
 4447TIP3    H134832   3.678   4.755   0.311 -0.9997  1.9875  0.4648
 4447TIP3    H234833   3.603   4.720   0.184  0.2486  2.4640 -0.4294
 4448TIP3   OH234834   0.696   3.915  15.926  0.3827  0.0786  0.6782
 4448TIP3    H134835   0.715   4.000  15.888 -1.2656  0.6096  0.9752
 4448TIP3    H234836   0.699   3.854  15.852  0.6863  0.5403  0.3109
 4449TIP3   OH234837   5.130   6.443  12.921  0.7759  0.0137  0.4898
 4449TIP3    H134838   5.058   6.401  12.875  0.0168 -0.2318  1.8431
 4449TIP3    H234839   5.145   6.388  12.998  0.1231  1.8588  2.0151
 4450TIP3   OH234840   2.745   6.758   0.054  0.3034 -0.2487  0.7856
 4450TIP3    H134841   2.671   6.716   0.098  0.2982 -0.9304  0.1455
 4450TIP3    H234842   2.822   6.721   0.097  0.2812  0.5901  1.5702
 4451TIP3   OH234843   4.536   0.815  13.780 -0.0595 -0.3080 -0.2479
 4451TIP3    H134844   4.531   0.910  13.766 -1.4959 -0.1547  1.0683
 4451TIP3    H234845   4.520   0.777  13.693  1.4753  0.6282 -0.9826
 4452TIP3   OH234846   1.610   4.320  15.693  0.3952 -0.6543 -0.1975
 4452TIP3    H134847   1.616   4.257  15.621 -1.5863  0.1052 -1.1085
 4452TIP3    H234848   1.527   4.299  15.736  0.5531  0.2236  0.5731
 4453TIP3   OH234849   2.085   2.736  16.465 -0.3407 -0.3416  0.5756
 4453TIP3    H134850   2.136   2.693  16.533 -2.2539 -0.6189  1.9133
 4453TIP3    H234851   2.077   2.671  16.395  0.2806 -0.6469  0.7881
 4454TIP3   OH234852   3.224   3.411   0.826  0.4020 -0.3849 -0.3154
 4454TIP3    H134853   3.152   3.419   0.763  0.0965 -0.6359 -0.0063
 4454TIP3    H234854   3.206   3.478   0.891  0.8918  0.0839 -0.6615
 4455TIP3   OH234855   2.321   5.033  11.886 -0.4966  0.6538 -0.4002
 4455TIP3    H134856   2.323   5.052  11.980 -2.8989  2.1645 -0.5711
 4455TIP3    H234857   2.350   5.115  11.845 -1.4209  0.7074 -0.9810
 4456TIP3   OH234858   1.332   2.496   1.572 -0.0356  0.1579  0.1977
 4456TIP3    H134859   1.278   2.546   1.633  1.1902  1.4294  0.2888
 4456TIP3    H234860   1.387   2.441   1.628  1.1052  1.3411  0.2805
 4457TIP3   OH234861   3.031   3.121  12.749  0.1886 -0.6162 -0.5499
 4457TIP3    H134862   2.991   3.052  12.696  1.7346 -1.1378 -1.0997
 4457TIP3    H234863   3.006   3.203  12.706 -1.8077 -0.7617  0.2043
 4458TIP3   OH234864   2.613   2.916  14.554 -0.5900  0.0534  0.5510
 4458TIP3    H134865   2.549   2.869  14.608 -0.9869 -0.9239 -0.7339
 4458TIP3    H234866   2.694   2.913  14.606 -1.3498  0.5849  1.8183
 4459TIP3   OH234867   0.136   4.301  10.536 -0.8262 -0.5970  0.4881
 4459TIP3    H134868   0.130   4.262  10.449 -0.4915 -0.1513  0.2618
 4459TIP3    H234869   0.223   4.341  10.540 -0.8691 -0.5373  0.9944
 4460TIP3   OH234870   2.712   0.742   1.632 -0.1079  0.1278  0.1564
 4460TIP3    H134871   2.796   0.773   1.598 -0.4494 -0.1684 -1.0234
 4460TIP3    H234872   2.682   0.680   1.566  0.1393 -2.0788  2.0049
 4461TIP3   OH234873   4.048   1.860  11.591 -0.3877 -0.0571 -0.5505
 4461TIP3    H134874   3.988   1.926  11.624 -1.8404 -0.6801 -1.7910
 4461TIP3    H234875   4.054   1.795  11.661 -2.5172 -0.7994 -0.9765
 4462TIP3   OH234876   0.250   4.389   5.207 -0.1199 -0.3094 -0.1995
 4462TIP3    H134877   0.178   4.352   5.156 -0.7464 -0.4191  0.7356
 4462TIP3    H234878   0.238   4.483   5.201  0.3790 -0.2923 -1.0435
 4463TIP3   OH234879   2.534   2.205   1.195 -0.1885 -0.1421 -0.1116
 4463TIP3    H134880   2.526   2.276   1.258 -1.1940 -0.8214  0.5596
 4463TIP3    H234881   2.445   2.193   1.161  0.2769  0.0027 -1.4344
 4464TIP3   OH234882   3.944   0.835  15.252  0.7279  1.2440 -0.3213
 4464TIP3    H134883   3.926   0.836  15.346 -0.4515  0.5138 -0.5095
 4464TIP3    H234884   3.869   0.788  15.215  2.5116 -0.9203 -1.3514
 4465TIP3   OH234885   4.356   6.384  16.279 -0.5312 -0.2827  0.3421
 4465TIP3    H134886   4.281   6.371  16.220  0.0476 -1.1838 -0.2170
 4465TIP3    H234887   4.423   6.425  16.224 -0.0854 -0.8768  0.4395
 4466TIP3   OH234888   2.875   2.037   1.779 -0.0565 -0.6987 -0.0718
 4466TIP3    H134889   2.971   2.039   1.783 -0.0765  0.4296  0.4017
 4466TIP3    H234890   2.853   1.944   1.772  1.0833 -0.9466 -0.6672
 4467TIP3   OH234891   0.807   1.127  13.672  0.1252  0.2495 -0.0841
 4467TIP3    H134892   0.845   1.090  13.752  0.1555  0.8171  0.1711
 4467TIP3    H234893   0.852   1.082  13.601  1.0800  0.6959  0.2185
 4468TIP3   OH234894   1.043   5.000  14.538 -0.7185  0.1022  0.0808
 4468TIP3    H134895   1.001   5.067  14.592 -1.8586  1.0145 -1.8186
 4468TIP3    H234896   0.970   4.953  14.499  0.0783 -0.8426 -0.2903
 4469TIP3   OH234897   1.522   1.747  15.013  0.3002  0.3543  0.0107
 4469TIP3    H134898   1.584   1.745  15.085  0.9076 -1.2742 -0.5058
 4469TIP3    H234899   1.544   1.671  14.960 -1.1357  0.6248 -1.0544
 4470TIP3   OH234900   0.620   3.487   1.234 -0.0416 -0.4214  0.3018
 4470TIP3    H134901   0.570   3.512   1.157 -0.5605 -1.6489  0.2167
 4470TIP3    H234902   0.704   3.531   1.224 -0.9025  1.2689  0.1949
 4471TIP3   OH234903   3.616   2.954   3.874 -0.1854 -0.5457 -0.1506
 4471TIP3    H134904   3.578   2.884   3.928 -1.7248  0.3797  0.0275
 4471TIP3    H234905   3.564   2.951   3.793  0.8139 -0.6503 -0.8005
 4472TIP3   OH234906   0.030   3.365  10.799  0.5480  0.2365 -0.2444
 4472TIP3    H134907   0.091   3.331  10.864  1.5379  0.4365 -1.0363
 4472TIP3    H234908  -0.010   3.287  10.760 -1.5517  0.1170  1.8991
 4473TIP3   OH234909   6.201   4.503  14.468  0.2577  0.3672  0.6669
 4473TIP3    H134910   6.169   4.490  14.379  1.0867  2.0494  0.0939
 4473TIP3    H234911   6.174   4.591  14.491 -0.1841 -0.1370  2.2136
 4474TIP3   OH234912   4.359   3.095  12.819 -0.1484  0.0568  0.1141
 4474TIP3    H134913   4.397   3.182  12.828 -0.1438  0.0300  0.3613
 4474TIP3    H234914   4.435   3.036  12.819 -0.2285 -0.0994  1.8485
 4475TIP3   OH234915   6.697   6.145  11.392  0.1231  0.3356 -0.0574
 4475TIP3    H134916   6.693   6.189  11.477 -2.5160  0.0987  0.0266
 4475TIP3    H234917   6.688   6.052  11.412  3.4962 -0.1735 -0.3954
 4476TIP3   OH234918   0.747   4.815   1.731  0.2566 -0.5293  0.0263
 4476TIP3    H134919   0.793   4.846   1.808  0.7546  0.6815 -0.7301
 4476TIP3    H234920   0.668   4.773   1.766  0.0124  0.7871  1.1617
 4477TIP3   OH234921   0.112   5.593   6.175  0.3476  0.4152 -0.1038
 4477TIP3    H134922   0.075   5.679   6.194  4.9421  3.0989 -1.7479
 4477TIP3    H234923   0.153   5.566   6.257 -1.1124 -0.3861  0.4183
 4478TIP3   OH234924   4.000   1.943  14.967 -0.8134 -0.2080 -0.0211
 4478TIP3    H134925   4.037   2.027  14.940  0.1636 -0.1837  1.3227
 4478TIP3    H234926   3.906   1.960  14.975 -0.4423  1.2861  1.9315
 4479TIP3   OH234927   2.488   5.398   5.155 -0.3673 -0.2062  0.1448
 4479TIP3    H134928   2.515   5.441   5.236  1.3004 -2.3207  0.7936
 4479TIP3    H234929   2.397   5.373   5.171 -1.3870  2.8805 -0.2411
 4480TIP3   OH234930   2.598   2.897   2.253 -0.0601  0.3659  0.3756
 4480TIP3    H134931   2.575   2.884   2.345  1.2743  0.5021  0.7408
 4480TIP3    H234932   2.515   2.886   2.206 -0.7080  0.0361  1.5630
 4481TIP3   OH234933   3.200   2.613  13.844  0.2629 -0.4046  0.3739
 4481TIP3    H134934   3.108   2.603  13.871  0.3786  0.6303  1.2033
 4481TIP3    H234935   3.234   2.682  13.900  1.1988  0.1354 -0.8220
 4482TIP3   OH234936   1.172   1.490  12.012  0.7149 -0.0602 -0.1890
 4482TIP3    H134937   1.159   1.579  12.042  0.0070  0.1626 -1.0925
 4482TIP3    H234938   1.213   1.499  11.926 -0.9947 -0.5051 -1.1081
 4483TIP3   OH234939   3.579   2.508  11.104  0.3617  0.1550  0.2010
 4483TIP3    H134940   3.607   2.516  11.195  2.7113  0.0449 -0.4610
 4483TIP3    H234941   3.565   2.414  11.091 -0.0501  0.1786  0.4489
 4484TIP3   OH234942   4.078   3.103  12.107  0.5857  0.0880  0.4443
 4484TIP3    H134943   4.115   3.079  12.022 -2.3985 -5.4961  0.2523
 4484TIP3    H234944   4.119   3.044  12.170 -0.5062  0.9613  2.0755
 4485TIP3   OH234945   4.235   5.011  15.439 -0.2431 -0.4445 -0.2464
 4485TIP3    H134946   4.329   5.008  15.424 -0.2485  0.8876 -0.6064
 4485TIP3    H234947   4.222   4.960  15.519  0.8573 -0.1248  0.1507
 4486TIP3   OH234948   3.407   6.527  15.069  0.1056  0.2783 -0.5614
 4486TIP3    H134949   3.500   6.506  15.067  0.0401 -0.1093  0.1962
 4486TIP3    H234950   3.404   6.623  15.070  0.5152  0.2905 -0.0306
 4487TIP3   OH234951   0.173   2.607   6.381  0.6390 -0.3004 -0.1761
 4487TIP3    H134952   0.115   2.587   6.308 -1.1709  4.0657 -0.2651
 4487TIP3    H234953   0.226   2.681   6.350 -0.4972  2.0150  2.8678
 4488TIP3   OH234954   3.108   1.432  14.131  0.1469  0.8411 -0.6446
 4488TIP3    H134955   3.165   1.444  14.207 -0.0207  1.6115 -0.6306
 4488TIP3    H234956   3.142   1.354  14.088 -1.5286 -1.4550  1.8060
 4489TIP3   OH234957   6.361   2.832  14.509 -0.2551 -0.1767  0.2878
 4489TIP3    H134958   6.265   2.823  14.508 -0.3589  0.7621  0.4965
 4489TIP3    H234959   6.376   2.926  14.500  0.6572 -0.3293  0.1193
 4490TIP3   OH234960   3.365   1.888   2.741 -0.1146  0.3715  0.1477
 4490TIP3    H134961   3.270   1.895   2.738 -0.1093  0.9742  0.9715
 4490TIP3    H234962   3.395   1.953   2.677 -0.2613  0.0320 -0.2652
 4491TIP3   OH234963   4.895   3.407  11.839  0.2102  1.0127 -0.2064
 4491TIP3    H134964   4.951   3.344  11.793 -0.5285  0.0598  0.1723
 4491TIP3    H234965   4.953   3.448  11.903  0.0347 -1.6538  1.8335
 4492TIP3   OH234966   0.382   3.769   0.667 -0.2929  0.9528  0.3998
 4492TIP3    H134967   0.381   3.712   0.589  0.1239  0.2399  0.9022
 4492TIP3    H234968   0.296   3.810   0.667 -0.9030 -0.2860  0.4520
 4493TIP3   OH234969   5.865   3.735   2.385 -0.1092 -0.6790 -0.2483
 4493TIP3    H134970   5.789   3.760   2.437  0.3304 -1.3824  0.7587
 4493TIP3    H234971   5.868   3.639   2.390  0.1115 -0.7519 -1.3519
 4494TIP3   OH234972   0.199   2.732   5.462 -0.8430 -0.2530  0.2978
 4494TIP3    H134973   0.124   2.764   5.512  0.0678  0.3348  1.3324
 4494TIP3    H234974   0.243   2.811   5.431 -0.1493 -0.5511  0.4813
 4495TIP3   OH234975   3.898   5.656  13.673 -0.6737 -0.0150  0.0534
 4495TIP3    H134976   3.967   5.721  13.662 -1.8624  1.0886 -1.1646
 4495TIP3    H234977   3.832   5.679  13.608 -1.9735 -1.3407  0.8416
 4496TIP3   OH234978   0.623   5.099   3.201 -0.2703  0.6951 -0.3728
 4496TIP3    H134979   0.543   5.050   3.180  0.6968 -1.0693 -0.1454
 4496TIP3    H234980   0.626   5.101   3.296  1.8033 -2.6581 -0.2117
 4497TIP3   OH234981   4.282   1.335   2.447  0.7110  0.3369  0.6376
 4497TIP3    H134982   4.253   1.427   2.447  0.1284  0.1635 -0.1019
 4497TIP3    H234983   4.365   1.336   2.495  0.8784  1.3112  0.3544
 4498TIP3   OH234984   5.237   0.348   3.132  0.0469  0.1052  0.2639
 4498TIP3    H134985   5.246   0.280   3.199  0.7235 -1.2290 -1.1203
 4498TIP3    H234986   5.298   0.322   3.063 -0.1716  1.7736 -0.6159
 4499TIP3   OH234987   5.317   2.850   6.066 -1.1606  0.4278  0.4311
 4499TIP3    H134988   5.332   2.809   6.151 -1.5906 -0.2552  0.1814
 4499TIP3    H234989   5.255   2.792   6.022 -0.4132  0.4179 -0.6175
 4500TIP3   OH234990   3.250   1.666   1.434  0.3496 -0.3035  0.3542
 4500TIP3    H134991   3.202   1.712   1.365  1.0735  1.3677  0.8988
 4500TIP3    H234992   3.242   1.573   1.412 -0.9719  0.0867 -0.9468
 4501TIP3   OH234993   6.276   4.202  16.699  0.7391 -0.2748  0.2091
 4501TIP3    H134994   6.286   4.248  16.782  0.9527 -1.3709  0.8036
 4501TIP3    H234995   6.186   4.222  16.671 -0.0988 -1.5995  1.7830
 4502TIP3   OH234996   5.953   0.167   2.364 -0.4702  0.1961 -0.0457
 4502TIP3    H134997   6.002   0.155   2.445 -1.0988  0.5992  0.3977
 4502TIP3    H234998   5.903   0.247   2.377  1.0798  1.5211 -1.6687
 4503TIP3   OH234999   2.692   1.992   4.742  0.0081  0.0001 -0.1863
 4503TIP3    H135000   2.726   2.030   4.823  0.3179 -0.0770 -0.2780
 4503TIP3    H235001   2.739   2.037   4.673  0.9735 -1.0976 -0.2765
 4504TIP3   OH235002   3.616   0.913   3.371  0.4405  0.2298  0.0101
 4504TIP3    H135003   3.650   0.983   3.427  1.2374  0.2329 -0.4673
 4504TIP3    H235004   3.580   0.849   3.433  2.6752 -0.5107  0.6622
 4505TIP3   OH235005   1.437   4.667   1.062  0.1995 -0.2349  0.2124
 4505TIP3    H135006   1.488   4.616   0.998 -0.8935  0.9664 -1.7124
 4505TIP3    H235007   1.373   4.604   1.096  0.4641 -0.7801 -0.2682
 4506TIP3   OH235008   4.645   0.888  11.400 -0.1809  0.1152 -0.2491
 4506TIP3    H135009   4.658   0.973  11.441 -1.5213  0.4820 -0.5339
 4506TIP3    H235010   4.734   0.854  11.386  0.3622  1.3498  0.0829
 4507TIP3   OH235011   0.256   4.284   2.548 -0.5731  0.4508  0.1367
 4507TIP3    H135012   0.346   4.252   2.561 -1.2657 -1.0857  1.5801
 4507TIP3    H235013   0.239   4.271   2.455 -0.1153 -1.6159  0.2955
 4508TIP3   OH235014   1.677   0.019   5.155  0.8527  0.3648  0.0898
 4508TIP3    H135015   1.610  -0.049   5.150  1.0477  0.2392 -3.0491
 4508TIP3    H235016   1.710   0.015   5.245 -0.7463 -2.0993  0.6460
 4509TIP3   OH235017   5.209   3.052   0.603  0.4747  0.0070  0.3480
 4509TIP3    H135018   5.128   3.018   0.564  1.9285 -1.0542 -1.9431
 4509TIP3    H235019   5.246   2.977   0.650  1.1528 -0.1440 -0.4046
 4510TIP3   OH235020   2.068   6.642   6.061 -0.9439 -0.2805  0.6128
 4510TIP3    H135021   2.127   6.570   6.083 -2.6672 -1.6240  1.0535
 4510TIP3    H235022   1.985   6.600   6.037 -1.9114  1.5301  0.5408
 4511TIP3   OH235023   5.141   1.282  15.324  0.4003 -0.5363 -0.0669
 4511TIP3    H135024   5.114   1.253  15.237  0.8687 -1.7489  0.1742
 4511TIP3    H235025   5.184   1.367  15.309 -2.4104  0.8974 -0.5929
 4512TIP3   OH235026   3.185   2.269  15.091 -0.4346  0.1388 -0.0765
 4512TIP3    H135027   3.263   2.294  15.043  0.6967 -1.5252  0.7714
 4512TIP3    H235028   3.120   2.337  15.071  0.9168  1.0438 -1.5485
 4513TIP3   OH235029   1.433   5.489  15.439  0.1831  0.7373 -0.1675
 4513TIP3    H135030   1.434   5.407  15.487  0.6245  0.8037 -0.0672
 4513TIP3    H235031   1.478   5.471  15.357  0.3246  0.8939 -0.1248
 4514TIP3   OH235032   0.192   3.978   2.886  0.5291 -0.1656 -0.2508
 4514TIP3    H135033   0.125   3.936   2.832  0.8165 -1.0222  0.0420
 4514TIP3    H235034   0.255   4.015   2.824  0.8181 -1.0797 -0.5068
 4515TIP3   OH235035   5.488   0.714   1.285  0.2756 -0.4838 -0.1757
 4515TIP3    H135036   5.423   0.783   1.297 -0.9678 -1.5609 -0.5647
 4515TIP3    H235037   5.556   0.754   1.230 -0.4123  0.4344 -0.3745
 4516TIP3   OH235038   6.523   3.517   2.729 -0.0741  0.3301 -0.6722
 4516TIP3    H135039   6.521   3.576   2.653 -0.6509 -0.4707 -1.2940
 4516TIP3    H235040   6.616   3.508   2.750  0.2073 -0.4591 -2.1068
 4517TIP3   OH235041   4.567   0.645   5.494 -0.1109  0.1009 -0.2123
 4517TIP3    H135042   4.481   0.621   5.527 -0.2903  1.4249  0.3351
 4517TIP3    H235043   4.625   0.576   5.526 -0.8097 -0.3187  0.1693
 4518TIP3   OH235044   3.809   6.212   3.008 -0.0659 -0.3300 -0.2809
 4518TIP3    H135045   3.811   6.206   2.912 -0.1462 -0.2749 -0.2865
 4518TIP3    H235046   3.819   6.122   3.038 -0.0511 -0.3486 -0.3408
 4519TIP3   OH235047   0.255   2.495  15.863  0.4501  0.3556 -0.4723
 4519TIP3    H135048   0.289   2.571  15.909  0.9169  0.0199 -0.2540
 4519TIP3    H235049   0.163   2.516  15.846  0.0661  0.1734  1.2826
 4520TIP3   OH235050   5.409   5.559   4.713  0.0888  0.5622 -0.0541
 4520TIP3    H135051   5.364   5.535   4.632  0.1999  0.2675 -0.0281
 4520TIP3    H235052   5.482   5.614   4.684 -0.9530  2.0404 -0.0102
 4521TIP3   OH235053   4.896   4.552  15.639  0.2792 -0.4037  0.2511
 4521TIP3    H135054   4.821   4.517  15.590  0.7109 -2.1094  0.7499
 4521TIP3    H235055   4.972   4.532  15.585  0.3809  1.8249 -0.5203
 4522TIP3   OH235056   1.344   0.319  13.265 -0.2819  0.1513 -0.2424
 4522TIP3    H135057   1.430   0.279  13.251 -0.1069 -0.4014  1.9771
 4522TIP3    H235058   1.293   0.250  13.309 -0.7237  1.5446  1.5513
 4523TIP3   OH235059   3.347   3.697   0.897  0.6583  0.0287 -0.9601
 4523TIP3    H135060   3.361   3.686   0.803  1.4812  1.6549 -1.0656
 4523TIP3    H235061   3.431   3.727   0.930  0.2129  0.0371  0.2036
 4524TIP3   OH235062   1.228   1.769  12.131 -0.7067  0.2854 -0.1217
 4524TIP3    H135063   1.163   1.828  12.092  0.4194  1.6784  0.0185
 4524TIP3    H235064   1.304   1.776  12.074 -0.9660 -2.1697 -0.9096
 4525TIP3   OH235065   3.468   6.555   5.258 -0.1819 -0.4406  0.2038
 4525TIP3    H135066   3.439   6.592   5.341  0.1017 -0.8439  0.4818
 4525TIP3    H235067   3.469   6.461   5.272  3.5048 -0.4086  0.9832
 4526TIP3   OH235068   2.728   5.192  17.197 -0.0711  0.3991  0.6264
 4526TIP3    H135069   2.800   5.256  17.200 -1.6354  2.2193  1.0596
 4526TIP3    H235070   2.681   5.213  17.117 -1.5238  0.8626  1.5732
 4527TIP3   OH235071   5.526   5.923   0.930 -0.2186 -0.2493  0.5372
 4527TIP3    H135072   5.434   5.941   0.910 -0.2060 -0.8318 -0.0944
 4527TIP3    H235073   5.575   5.992   0.885 -0.1886 -1.5686 -1.5736
 4528TIP3   OH235074   5.432   0.205   2.951 -0.1731  0.2518 -0.2721
 4528TIP3    H135075   5.517   0.240   2.928  0.4217 -1.1455 -0.2878
 4528TIP3    H235076   5.375   0.231   2.879  0.6076 -0.1375 -1.0472
 4529TIP3   OH235077   1.507   5.960   5.235 -0.8023 -0.6021 -0.2555
 4529TIP3    H135078   1.451   6.033   5.261 -2.2026 -2.2294  1.5902
 4529TIP3    H235079   1.451   5.882   5.246  1.2173 -2.1232 -0.2587
 4530TIP3   OH235080   1.287   0.132  13.824  0.0773  0.3022 -0.3830
 4530TIP3    H135081   1.329   0.050  13.796 -0.6975  0.1070 -1.0043
 4530TIP3    H235082   1.310   0.140  13.917 -0.2028 -0.8630 -0.1909
 4531TIP3   OH235083   6.548   6.520   2.113  0.2270 -0.2009 -0.1985
 4531TIP3    H135084   6.453   6.506   2.111  0.3009 -1.6377  2.3608
 4531TIP3    H235085   6.568   6.562   2.029 -2.7885  1.0647 -0.4048
 4532TIP3   OH235086   3.996   1.215   0.333 -0.0119  0.2994  0.3505
 4532TIP3    H135087   3.994   1.292   0.276  0.8647  0.1769  0.1277
 4532TIP3    H235088   3.979   1.250   0.421 -0.3818  0.6331  0.1488
 4533TIP3   OH235089   1.392   4.734   5.592  0.6999 -0.4230  0.0972
 4533TIP3    H135090   1.468   4.710   5.539  0.3577 -0.0733 -0.5780
 4533TIP3    H235091   1.429   4.770   5.673  1.2566 -3.8506  1.5470
 4534TIP3   OH235092   2.637   5.319   6.234 -0.8417 -0.1735  0.3908
 4534TIP3    H135093   2.601   5.234   6.208  0.7755 -1.0797  0.9594
 4534TIP3    H235094   2.573   5.353   6.296 -2.3658 -0.1555 -1.1213
 4535TIP3   OH235095   0.862   6.083  11.078 -0.2488  0.0854  0.1433
 4535TIP3    H135096   0.816   6.118  11.155  1.3366  1.8378  0.3618
 4535TIP3    H235097   0.870   5.990  11.097 -1.4436  0.1716  1.2684
 4536TIP3   OH235098   1.556   3.418   3.111 -0.0322  0.6502 -0.8307
 4536TIP3    H135099   1.625   3.477   3.082  1.6475 -0.6159  0.4464
 4536TIP3    H235100   1.591   3.330   3.098 -1.9157 -0.0915 -1.3154
 4537TIP3   OH235101   0.543   1.412  13.341 -0.0473 -0.2287  0.0274
 4537TIP3    H135102   0.542   1.470  13.265 -0.6555  0.1357  0.3079
 4537TIP3    H235103   0.615   1.443  13.395  0.7661 -0.8557 -0.6710
 4538TIP3   OH235104   1.578   1.646  11.520  0.3483  0.2062 -0.1045
 4538TIP3    H135105   1.612   1.668  11.433  1.5295  1.4234  0.6136
 4538TIP3    H235106   1.483   1.643  11.508  0.4892  0.1601 -1.4643
 4539TIP3   OH235107   0.540   2.155  15.670 -0.4037  0.0589  0.5260
 4539TIP3    H135108   0.514   2.245  15.692 -0.1495  0.6229 -1.3018
 4539TIP3    H235109   0.465   2.120  15.621  0.0498 -0.2412  0.0421
 4540TIP3   OH235110   0.307   3.067  13.050 -0.4741  0.3197 -0.3283
 4540TIP3    H135111   0.298   3.141  12.991  0.5111  0.8198  0.1092
 4540TIP3    H235112   0.264   3.095  13.131 -0.8429  0.0756 -0.4368
 4541TIP3   OH235113   1.037   0.567   1.580 -0.0651 -0.1410 -0.6183
 4541TIP3    H135114   1.130   0.552   1.594  0.0249 -0.8022 -1.8206
 4541TIP3    H235115   1.018   0.526   1.496 -1.5403 -0.4263 -0.1814
 4542TIP3   OH235116   1.009   0.625   1.841 -0.3413  0.0101  0.2356
 4542TIP3    H135117   0.998   0.591   1.752 -0.4462  2.1730 -0.6352
 4542TIP3    H235118   0.930   0.599   1.887 -0.6248 -0.4839 -0.5117
 4543TIP3   OH235119   1.889   4.542  12.331  0.6423 -0.0951  0.0272
 4543TIP3    H135120   1.920   4.605  12.266  0.0647 -0.3808 -0.5402
 4543TIP3    H235121   1.801   4.571  12.352  1.4095  0.9946  1.9917
 4544TIP3   OH235122   1.255   4.415  11.323 -0.5604  0.2316  0.2781
 4544TIP3    H135123   1.256   4.474  11.247 -2.2745 -0.4893 -0.3382
 4544TIP3    H235124   1.347   4.396  11.339  0.0659  2.8559  0.3473
 4545TIP3   OH235125   1.887   3.351   0.034  0.2900  0.0996  0.0321
 4545TIP3    H135126   1.867   3.258   0.041 -2.8508  0.5887 -0.8752
 4545TIP3    H235127   1.839   3.381  -0.043 -0.3084  2.7952  1.3123
 4546TIP3   OH235128   0.942   3.541  10.666 -0.1658  0.4824  0.1556
 4546TIP3    H135129   0.908   3.629  10.648 -0.4255  0.3059 -0.2376
 4546TIP3    H235130   0.865   3.489  10.689  0.0619  0.5007  1.0044
 4547TIP3   OH235131   3.125   3.972  14.038  0.4880 -0.0803  0.1180
 4547TIP3    H135132   3.068   4.008  13.971 -0.5394 -0.3291  0.8304
 4547TIP3    H235133   3.205   4.024  14.033 -0.1584  0.8877 -0.2714
 4548TIP3   OH235134   2.881   3.868   4.066 -0.0535 -0.0611  0.4321
 4548TIP3    H135135   2.862   3.857   4.160 -0.4938  0.6848  0.4342
 4548TIP3    H235136   2.856   3.958   4.047  1.0414  0.1243 -0.1705
 4549TIP3   OH235137   2.904   1.309   2.618 -0.0519 -0.4808 -0.0812
 4549TIP3    H135138   2.980   1.360   2.589  0.3386 -1.1414 -0.2602
 4549TIP3    H235139   2.860   1.283   2.537  0.3487 -1.2981 -0.0523
 4550TIP3   OH235140   4.450   6.112  10.817  0.2858 -0.6790 -0.5151
 4550TIP3    H135141   4.530   6.157  10.845  0.7253 -1.0816 -1.1321
 4550TIP3    H235142   4.437   6.139  10.726 -0.0088 -1.0114 -0.5746
 4551TIP3   OH235143   5.892   1.536  16.377  0.6490  0.2314  0.0268
 4551TIP3    H135144   5.805   1.575  16.386  1.1866  1.1712  1.6087
 4551TIP3    H235145   5.949   1.610  16.356  1.0899 -0.3801 -1.0366
 4552TIP3   OH235146   6.051   6.762  14.003  0.1641 -0.3061 -0.0466
 4552TIP3    H135147   6.035   6.724  13.917  1.1436 -1.3628  0.2218
 4552TIP3    H235148   5.967   6.755  14.048 -0.0481 -0.8172 -0.5161
 4553TIP3   OH235149   3.152   5.228   5.304 -0.0249 -0.1068  0.1606
 4553TIP3    H135150   3.198   5.146   5.285 -2.3593 -0.9649 -2.5891
 4553TIP3    H235151   3.071   5.200   5.348 -0.4567  0.7936 -0.0418
 4554TIP3   OH235152   5.789   3.496   3.768  0.0722  0.0026  0.0710
 4554TIP3    H135153   5.699   3.465   3.758 -0.1286  0.6131 -0.0279
 4554TIP3    H235154   5.827   3.490   3.680 -0.6394  2.0909 -0.4270
 4555TIP3   OH235155   2.827   0.170   4.906  0.3748  0.4004  0.0824
 4555TIP3    H135156   2.743   0.214   4.916  0.7519  0.9836  0.7344
 4555TIP3    H235157   2.883   0.234   4.862  0.5079  0.0414 -0.2836
 4556TIP3   OH235158   4.356   6.602  13.335  0.3354 -0.1836  0.0375
 4556TIP3    H135159   4.353   6.544  13.259 -1.0977  0.8304 -0.7482
 4556TIP3    H235160   4.292   6.564  13.396 -1.1087  0.8410 -0.7541
 4557TIP3   OH235161   1.267   4.229  15.400 -0.4688  0.0181 -0.5238
 4557TIP3    H135162   1.332   4.262  15.338 -0.0121 -0.4061 -0.2798
 4557TIP3    H235163   1.209   4.174  15.348 -0.4570  0.1602 -0.6865
 4558TIP3   OH235164   6.352   3.640  11.644 -0.8927 -0.4936 -0.4445
 4558TIP3    H135165   6.386   3.579  11.579 -0.4611  1.4396 -2.1415
 4558TIP3    H235166   6.259   3.618  11.652 -0.2650 -3.0201  1.0052
 4559TIP3   OH235167   1.938   6.244   5.966  0.0013 -0.6688  0.4459
 4559TIP3    H135168   1.923   6.238   5.872  1.5492  0.0256  0.1191
 4559TIP3    H235169   1.877   6.311   5.997 -0.7460 -1.1370  0.0165
 4560TIP3   OH235170   0.695   5.441  10.614  0.0873 -0.1732 -0.1220
 4560TIP3    H135171   0.712   5.365  10.668 -0.6035  0.2260  0.6883
 4560TIP3    H235172   0.763   5.504  10.638 -0.0400 -0.1083  0.0742
 4561TIP3   OH235173   2.941   4.691   2.075 -0.3978 -0.6717 -0.6247
 4561TIP3    H135174   2.854   4.652   2.064 -0.6990 -0.2600  0.2409
 4561TIP3    H235175   2.999   4.616   2.088 -0.3324 -1.0623 -2.8478
 4562TIP3   OH235176   5.801   1.346  17.081 -0.2909 -0.3142 -0.4978
 4562TIP3    H135177   5.830   1.359  16.990  0.0177  0.3630 -0.3068
 4562TIP3    H235178   5.722   1.398  17.088 -0.0953 -0.0448 -0.2692
 4563TIP3   OH235179   0.145   6.247  17.114 -0.4073 -0.4659 -0.4302
 4563TIP3    H135180   0.187   6.219  17.033  2.2706  0.1568  0.6510
 4563TIP3    H235181   0.053   6.260  17.090 -0.2935 -3.0231 -2.6449
 4564TIP3   OH235182   4.456   0.193   4.067  0.1848  0.6936  0.2342
 4564TIP3    H135183   4.446   0.273   4.016  1.6162  0.3411 -0.6590
 4564TIP3    H235184   4.523   0.144   4.021 -3.4102 -3.0134 -1.7357
 4565TIP3   OH235185   4.383   4.445   2.764 -0.7745 -0.8716  0.3725
 4565TIP3    H135186   4.408   4.386   2.693 -0.3213  0.3420 -0.5051
 4565TIP3    H235187   4.301   4.485   2.735 -2.4083 -2.7798  2.0300
 4566TIP3   OH235188   1.014   1.425   3.768  0.5653  0.3814  0.2895
 4566TIP3    H135189   1.019   1.420   3.864 -1.1811  1.6505  0.4998
 4566TIP3    H235190   0.983   1.514   3.751  1.0890  0.2536 -1.4818
 4567TIP3   OH235191   0.209   3.294  14.522 -0.4636  0.7596 -0.4231
 4567TIP3    H135192   0.263   3.241  14.580 -0.9569 -2.6755 -2.8044
 4567TIP3    H235193   0.130   3.311  14.572  0.0884 -0.0318  0.7547
 4568TIP3   OH235194   2.971   4.131   5.080  0.0142 -0.2166  0.0241
 4568TIP3    H135195   2.960   4.211   5.131 -0.5410  0.0837 -0.5523
 4568TIP3    H235196   2.884   4.112   5.046 -0.2132 -1.9678  1.4529
 4569TIP3   OH235197   4.458   3.650   2.717 -0.2116  0.0380  0.3142
 4569TIP3    H135198   4.379   3.681   2.760 -1.1054 -1.7162  0.0327
 4569TIP3    H235199   4.476   3.716   2.650 -0.0966  1.6211  1.8271
 4570TIP3   OH235200   5.266   0.213  14.305 -0.0305 -0.9225  0.6499
 4570TIP3    H135201   5.298   0.256  14.226 -1.4073 -0.2400  0.4265
 4570TIP3    H235202   5.339   0.217  14.367  0.4632  0.1233  0.0194
 4571TIP3   OH235203   3.415   1.536  17.127  0.0444  0.1512 -0.1742
 4571TIP3    H135204   3.426   1.497  17.213 -0.4393  1.2755  0.4189
 4571TIP3    H235205   3.488   1.597  17.118  0.0847  0.0517 -0.5517
 4572TIP3   OH235206   4.538   5.519   3.387  0.1100  0.4888 -0.0689
 4572TIP3    H135207   4.617   5.465   3.374  0.0272  0.7496 -1.9653
 4572TIP3    H235208   4.469   5.473   3.339 -0.5203  1.0819  0.2496
 4573TIP3   OH235209   4.428   2.226  11.410  0.2710 -0.3989 -0.0390
 4573TIP3    H135210   4.458   2.301  11.358  2.3581 -1.3487 -0.2782
 4573TIP3    H235211   4.396   2.265  11.492  1.4301  0.7436 -0.1089
 4574TIP3   OH235212   4.704   0.211   0.269 -0.5322 -0.1141  0.1614
 4574TIP3    H135213   4.733   0.238   0.356  1.4477  0.1680 -0.5457
 4574TIP3    H235214   4.684   0.293   0.225  0.2830 -0.1306 -0.2474
 4575TIP3   OH235215   5.874   6.780   2.185 -0.4185  0.0405 -0.1030
 4575TIP3    H135216   5.803   6.813   2.130  0.9115  1.6243 -0.9385
 4575TIP3    H235217   5.894   6.851   2.244 -0.5178 -0.9591  1.1771
 4576TIP3   OH235218   2.773   1.061  14.545 -0.1514  0.0649  0.1954
 4576TIP3    H135219   2.793   1.103  14.628 -0.0739 -1.0698  0.7698
 4576TIP3    H235220   2.678   1.047  14.547 -0.1342 -0.0663  0.1554
 4577TIP3   OH235221   0.173   3.932  14.781  0.0286  0.9025  0.1469
 4577TIP3    H135222   0.206   4.013  14.821 -2.6236  1.5897  1.1423
 4577TIP3    H235223   0.244   3.869  14.795  0.8976  2.2194  2.2763
 4578TIP3   OH235224   3.045   4.810  12.071  0.5528  0.1236 -0.0320
 4578TIP3    H135225   2.992   4.786  12.148  1.0051  0.1682  0.3008
 4578TIP3    H235226   3.129   4.765  12.086  0.9402  0.8283 -0.0749
 4579TIP3   OH235227   3.032   4.651  16.502 -0.3176 -0.3261  0.1626
 4579TIP3    H135228   3.008   4.660  16.410 -0.2483 -0.5907  0.1197
 4579TIP3    H235229   2.954   4.613  16.544  0.1427 -1.5240 -0.0413
 4580TIP3   OH235230   1.710   4.356   5.070 -0.4074  0.2120  0.0873
 4580TIP3    H135231   1.691   4.289   5.135  0.2895  0.3609  0.4562
 4580TIP3    H235232   1.630   4.362   5.017  0.1870 -2.3359 -1.2588
 4581TIP3   OH235233   2.932   2.644   2.427 -0.4807 -0.1478 -0.3408
 4581TIP3    H135234   2.931   2.566   2.483 -1.2614  0.0742 -0.0327
 4581TIP3    H235235   2.885   2.619   2.348 -2.7162  0.6297  0.6595
 4582TIP3   OH235236   2.686   5.643   2.232  0.3096 -0.1358  0.4997
 4582TIP3    H135237   2.648   5.597   2.307 -0.0963 -0.5989  0.0200
 4582TIP3    H235238   2.780   5.622   2.237  0.0810 -1.3799  0.0703
 4583TIP3   OH235239   1.077   3.019   2.091 -0.2826  0.2934  0.0024
 4583TIP3    H135240   1.041   3.078   2.024  0.1528 -0.0642 -0.5593
 4583TIP3    H235241   1.106   2.943   2.041 -0.2894 -0.1348  0.6531
 4584TIP3   OH235242   5.665   5.018   4.249 -0.2541 -0.0512 -0.1425
 4584TIP3    H135243   5.696   5.103   4.282 -3.0181  0.7899  0.5706
 4584TIP3    H235244   5.676   4.958   4.324 -1.9722  0.6927  0.7660
 4585TIP3   OH235245   3.693   4.210   4.301 -0.3289  0.3557  0.1791
 4585TIP3    H135246   3.689   4.115   4.295  3.4499 -0.2016  2.5836
 4585TIP3    H235247   3.664   4.230   4.390 -1.4323  1.5323 -0.4151
 4586TIP3   OH235248   4.000   6.019   6.349  0.0209 -0.1378 -0.1434
 4586TIP3    H135249   3.915   5.983   6.324 -0.2462  0.6494 -0.3884
 4586TIP3    H235250   3.979   6.087   6.413  0.5841 -1.0322  1.0398
 4587TIP3   OH235251   5.396   5.233  16.297 -0.2704  0.0824  0.2903
 4587TIP3    H135252   5.424   5.312  16.250 -1.7128  0.3014 -0.2716
 4587TIP3    H235253   5.441   5.238  16.381 -0.0085  1.3002  0.1044
 4588TIP3   OH235254   5.400   2.540  13.890  0.6104  0.1898  0.2861
 4588TIP3    H135255   5.467   2.591  13.937  0.3021  0.2619  0.6513
 4588TIP3    H235256   5.319   2.560  13.936 -0.2091  2.4120 -1.9417
 4589TIP3   OH235257   0.910   4.033  16.200  0.0449  0.3606  0.3699
 4589TIP3    H135258   0.819   4.010  16.218  0.4705 -0.2992  1.7893
 4589TIP3    H235259   0.906   4.124  16.172 -1.1594  0.0129 -0.6972
 4590TIP3   OH235260   4.308   5.215   1.255  0.2386  0.3831  0.8293
 4590TIP3    H135261   4.297   5.299   1.212  1.3066 -0.9359 -2.3628
 4590TIP3    H235262   4.220   5.178   1.260  0.0287  0.8056  0.2488
 4591TIP3   OH235263   5.971   0.624  15.527 -0.1487  0.4678 -0.3381
 4591TIP3    H135264   5.905   0.609  15.460 -0.0515  1.4077 -0.6648
 4591TIP3    H235265   5.932   0.593  15.608 -0.4094 -0.3450 -0.7614
 4592TIP3   OH235266   0.023   4.067   1.382  0.1170 -0.2582  0.6956
 4592TIP3    H135267   0.107   4.107   1.359 -0.5249  0.8307  0.1509
 4592TIP3    H235268  -0.036   4.091   1.310 -0.4271 -1.8592  0.5488
 4593TIP3   OH235269   5.531   3.121  14.001  0.0892  0.2843 -0.3010
 4593TIP3    H135270   5.498   3.181  13.934 -0.7547 -0.4253 -0.5398
 4593TIP3    H235271   5.463   3.122  14.069  0.7443  0.6815  0.3638
 4594TIP3   OH235272   6.265   0.936   0.083  0.2483 -0.5235  0.5308
 4594TIP3    H135273   6.303   0.852   0.110 -0.9769 -0.7643  1.6293
 4594TIP3    H235274   6.240   0.922  -0.008  1.2812 -0.8920  0.2894
 4595TIP3   OH235275   5.956   2.391  12.487 -0.2735 -0.2362 -0.3540
 4595TIP3    H135276   5.958   2.353  12.575  0.4615  2.0938  0.7108
 4595TIP3    H235277   5.993   2.323  12.431  0.7873 -1.1723  1.3878
 4596TIP3   OH235278   1.205   4.448  16.665 -0.0997  0.4194 -0.1942
 4596TIP3    H135279   1.199   4.540  16.640  0.2557  0.3426 -0.5675
 4596TIP3    H235280   1.116   4.425  16.693 -0.9712  0.0643 -2.9706
 4597TIP3   OH235281   5.299   5.622   5.333  0.7634 -0.3441  0.2883
 4597TIP3    H135282   5.334   5.637   5.245 -0.1676 -1.3134 -0.2631
 4597TIP3    H235283   5.285   5.710   5.368 -0.4294  0.1039 -1.1895
 4598TIP3   OH235284   1.838   1.725  16.241 -0.3020 -0.2710 -0.1166
 4598TIP3    H135285   1.874   1.659  16.181 -1.0140 -0.7119 -0.0668
 4598TIP3    H235286   1.777   1.677  16.296 -1.3300  0.5401 -0.5129
 4599TIP3   OH235287   0.158   0.429  14.463 -0.0778 -0.1911 -0.2277
 4599TIP3    H135288   0.064   0.440  14.454 -0.1924 -0.6064  0.3804
 4599TIP3    H235289   0.189   0.513  14.498 -0.3306 -0.3089  0.2848
 4600TIP3   OH235290   5.113   5.550  16.432  0.0080  0.1900  0.0728
 4600TIP3    H135291   5.031   5.580  16.472 -0.5403 -2.0727  0.8026
 4600TIP3    H235292   5.086   5.511  16.349  0.5363  0.5694 -0.2832
 4601TIP3   OH235293   2.475   0.382  16.892 -0.2405 -0.0641  0.3483
 4601TIP3    H135294   2.467   0.289  16.912  0.0442  0.0185  0.8673
 4601TIP3    H235295   2.419   0.425  16.957  0.0673  0.1594  0.4683
 4602TIP3   OH235296   3.414   5.812  17.111  0.0615  0.4188  0.3462
 4602TIP3    H135297   3.397   5.881  17.175  1.4925  1.0372  0.0922
 4602TIP3    H235298   3.361   5.738  17.141  1.0385  0.5232  2.5134
 4603TIP3   OH235299   5.521   3.928   2.200 -0.1839  0.4244  0.3038
 4603TIP3    H135300   5.542   3.902   2.289  0.7306 -2.2029 -0.5873
 4603TIP3    H235301   5.441   3.880   2.179 -1.0392  1.8871  0.0239
 4604TIP3   OH235302   4.247   2.353  13.775 -0.1362 -0.0547  0.0426
 4604TIP3    H135303   4.224   2.387  13.688 -0.8781  0.2115  0.3387
 4604TIP3    H235304   4.224   2.424  13.835  1.1327  0.0859  0.3908
 4605TIP3   OH235305   0.672   4.528  13.925 -0.3146  0.0006 -0.0760
 4605TIP3    H135306   0.717   4.553  13.844 -0.8920  0.8065 -0.1688
 4605TIP3    H235307   0.582   4.558  13.912 -0.8927 -1.5608  0.1121
 4606TIP3   OH235308   1.142   3.692  16.569  0.0528 -0.1938  0.2829
 4606TIP3    H135309   1.219   3.636  16.574  0.3949  0.1460 -0.9203
 4606TIP3    H235310   1.177   3.781  16.563 -0.4488  0.0051  0.2266
 4607TIP3   OH235311   6.035   2.202  15.541  0.6678  0.3944 -0.0609
 4607TIP3    H135312   5.949   2.168  15.516  1.4493 -0.2208 -2.1068
 4607TIP3    H235313   6.082   2.125  15.573  1.2704  0.1965 -1.3627
 4608TIP3   OH235314   2.178   3.154   5.845 -0.6978  0.5287 -0.0073
 4608TIP3    H135315   2.239   3.221   5.876 -0.8371  1.1430 -0.9838
 4608TIP3    H235316   2.230   3.101   5.784 -0.9551  0.6265 -0.3132
 4609TIP3   OH235317   6.008   2.989   1.830  0.2455 -0.4722 -0.3432
 4609TIP3    H135318   6.016   3.005   1.736 -0.9668  0.2778 -0.3384
 4609TIP3    H235319   5.956   3.063   1.863  2.8280  0.7014  1.3760
 4610TIP3   OH235320   4.707   3.539   5.973  0.5399 -0.2776 -0.4407
 4610TIP3    H135321   4.650   3.610   6.003  0.0422 -0.8890  0.0957
 4610TIP3    H235322   4.756   3.512   6.050  2.2493  0.8412 -1.0963
 4611TIP3   OH235323   6.285   0.961  14.667  0.2250 -0.1655  0.5634
 4611TIP3    H135324   6.320   0.873  14.679  0.3323 -0.0967  0.7570
 4611TIP3    H235325   6.196   0.946  14.635  0.1491 -0.3501  0.8495
 4612TIP3   OH235326   6.350   0.697  14.699 -0.0387  0.1579  0.4149
 4612TIP3    H135327   6.271   0.696  14.645  0.8756  1.1074 -1.0121
 4612TIP3    H235328   6.410   0.636  14.656  0.9451  1.4355 -0.1000
 4613TIP3   OH235329   5.080   2.413   1.499 -0.5158  0.2222  0.3778
 4613TIP3    H135330   5.075   2.410   1.594 -0.1066 -1.2109  0.3806
 4613TIP3    H235331   5.068   2.322   1.471 -0.7096  0.6252 -0.9436
 4614TIP3   OH235332   3.073   1.889  14.476 -0.9140 -0.1738 -0.2361
 4614TIP3    H135333   3.079   1.811  14.421 -0.6967 -0.3178 -0.0096
 4614TIP3    H235334   3.093   1.858  14.564 -0.5170  0.2011 -0.1936
 4615TIP3   OH235335   5.130   6.605   3.014 -0.6513  0.4448 -0.4502
 4615TIP3    H135336   5.102   6.523   2.973 -0.2691  0.4431 -0.7169
 4615TIP3    H235337   5.109   6.672   2.950  0.5449  0.3733 -0.9500
 4616TIP3   OH235338   1.727   0.786  17.111  0.1712  0.3303  0.1354
 4616TIP3    H135339   1.796   0.809  17.049  1.3766 -0.0422  1.3073
 4616TIP3    H235340   1.649   0.775  17.056  1.1134  0.3647 -1.2689
 4617TIP3   OH235341   1.931   0.840  16.930  0.7638  0.0810  0.2726
 4617TIP3    H135342   2.009   0.841  16.987  0.2626 -0.7568  0.9971
 4617TIP3    H235343   1.940   0.760  16.879  1.5811  1.1916 -1.4050
 4618TIP3   OH235344   2.087   5.195  13.061  0.0509 -0.4802  0.9255
 4618TIP3    H135345   2.030   5.249  13.115 -1.1464 -1.0899  0.3107
 4618TIP3    H235346   2.040   5.113  13.050 -0.9008  0.3824 -2.9068
 4619TIP3   OH235347   2.449   3.032  15.064 -0.5666 -0.0901 -0.4444
 4619TIP3    H135348   2.504   3.010  15.139  1.0100  2.5888 -0.7055
 4619TIP3    H235349   2.509   3.038  14.990 -1.7781 -0.5420 -1.5259
 4620TIP3   OH235350   5.475   6.385  15.487 -0.1170  0.8912 -0.0948
 4620TIP3    H135351   5.528   6.439  15.428  1.0744  0.9579  1.0031
 4620TIP3    H235352   5.437   6.446  15.549  1.3938  0.5170  1.2747
 4621TIP3   OH235353   5.824   3.467  10.718  0.6385  0.5677 -0.1077
 4621TIP3    H135354   5.752   3.465  10.782 -0.5793 -0.8447 -1.4112
 4621TIP3    H235355   5.888   3.406  10.753 -0.6980 -1.3880 -0.8825
 4622TIP3   OH235356   4.431   2.411  16.690  0.0861 -0.0142  0.0059
 4622TIP3    H135357   4.399   2.340  16.635 -1.9144 -0.0178  1.1075
 4622TIP3    H235358   4.377   2.487  16.665  0.8130  0.6076  0.2732
 4623TIP3   OH235359   4.636   1.511  12.321  0.2694  0.4916 -0.6461
 4623TIP3    H135360   4.664   1.599  12.342 -0.0202  0.4412 -0.0068
 4623TIP3    H235361   4.564   1.522  12.258 -0.1995  0.7462 -0.0752
 4624TIP3   OH235362   5.598   5.619   1.976  0.0348 -0.0137  0.1261
 4624TIP3    H135363   5.628   5.676   1.905 -0.1085  1.7054  1.4022
 4624TIP3    H235364   5.594   5.532   1.935 -1.7787  1.1644 -2.4817
 4625TIP3   OH235365   3.815   3.013   6.569  0.4003  0.2662  0.1690
 4625TIP3    H135366   3.891   2.987   6.621  1.0661  0.2282 -0.7890
 4625TIP3    H235367   3.810   2.947   6.500  0.2278  0.9414 -0.4754
 4626TIP3   OH235368   1.330   3.342   0.058  0.1440 -0.2983  0.0283
 4626TIP3    H135369   1.238   3.317   0.059 -0.2507  1.0627 -0.3963
 4626TIP3    H235370   1.360   3.330   0.148 -1.0323  1.2516  0.6789
 4627TIP3   OH235371   0.940   0.087  16.313  0.4875  0.1376  0.4827
 4627TIP3    H135372   0.994   0.128  16.380  1.6777  0.3431 -0.5776
 4627TIP3    H235373   0.906   0.007  16.355  0.8753  0.4706  1.4479
 4628TIP3   OH235374   1.521   3.982   2.757 -0.3144  0.1648  0.4024
 4628TIP3    H135375   1.543   3.893   2.784 -1.2111 -0.1657  0.1041
 4628TIP3    H235376   1.605   4.025   2.743  0.1356 -0.9123 -0.3073
 4629TIP3   OH235377   1.361   1.889   0.412 -0.2105 -0.2649  0.3708
 4629TIP3    H135378   1.280   1.865   0.458 -0.4371  1.0789  0.7070
 4629TIP3    H235379   1.337   1.886   0.319 -0.3104 -0.9967  0.4112
 4630TIP3   OH235380   3.920   4.485  14.476 -0.2162  0.6870 -0.3400
 4630TIP3    H135381   3.841   4.534  14.501 -1.4474 -0.8304 -1.0499
 4630TIP3    H235382   3.893   4.434  14.400  1.5466  0.2866 -0.7382
 4631TIP3   OH235383   3.020   5.165  12.985 -0.2548 -0.1881 -0.1840
 4631TIP3    H135384   2.956   5.231  12.959  0.4701 -0.1846 -2.1637
 4631TIP3    H235385   3.105   5.209  12.979  0.2692 -1.3090 -1.8293
 4632TIP3   OH235386   0.864   2.812   3.447  0.1279  0.3504  0.3149
 4632TIP3    H135387   0.783   2.852   3.416 -0.2433 -1.9849 -2.1669
 4632TIP3    H235388   0.921   2.810   3.370  0.1082 -3.5996  0.1790
 4633TIP3   OH235389   0.042   1.503   2.775  0.1026 -0.3612 -0.5490
 4633TIP3    H135390   0.040   1.413   2.807  1.2899 -0.1887  0.0447
 4633TIP3    H235391   0.034   1.557   2.853  0.9405  0.0483 -0.7375
 4634TIP3   OH235392   1.333   2.607  13.509  0.3003  0.3732  0.4740
 4634TIP3    H135393   1.246   2.630  13.544  0.2617  1.2432 -0.1704
 4634TIP3    H235394   1.393   2.627  13.580 -0.0363 -0.4596  1.0142
 4635TIP3   OH235395   5.642   4.582   4.611  0.3034 -0.5193  0.1024
 4635TIP3    H135396   5.614   4.510   4.668 -1.6933  1.3112  1.5866
 4635TIP3    H235397   5.709   4.628   4.662  1.1874 -0.9736 -0.6186
 4636TIP3   OH235398   6.781   0.574   2.236 -0.2883  0.2549  0.9433
 4636TIP3    H135399   6.712   0.552   2.173 -0.5575  0.6071  1.1123
 4636TIP3    H235400   6.799   0.492   2.282  0.7357 -0.3141 -0.3764
 4637TIP3   OH235401   6.387   1.474   4.517  0.0837 -0.3813 -0.3424
 4637TIP3    H135402   6.294   1.490   4.531  0.0377 -0.9484  0.0412
 4637TIP3    H235403   6.410   1.530   4.443 -0.4630  0.0815 -0.1721
 4638TIP3   OH235404   1.533   3.001   4.264 -0.0098  0.2660  0.7685
 4638TIP3    H135405   1.471   2.938   4.228  2.5184 -1.0783 -1.6067
 4638TIP3    H235406   1.559   2.964   4.349 -1.1681 -0.0241  1.0055
 4639TIP3   OH235407   6.474   0.934  10.856  0.0720 -0.1230 -0.2020
 4639TIP3    H135408   6.528   0.882  10.916 -0.3928 -0.9630 -0.4858
 4639TIP3    H235409   6.413   0.870  10.819  0.9273  0.1806 -2.2434
 4640TIP3   OH235410   2.149   3.057  13.258 -0.3397 -0.0581  0.9186
 4640TIP3    H135411   2.241   3.039  13.244 -0.3810  0.0436  0.5261
 4640TIP3    H235412   2.147   3.148  13.289 -0.3733  0.1987  0.1744
 4641TIP3   OH235413   6.428   2.261  16.127  0.1644  0.0603 -0.2597
 4641TIP3    H135414   6.341   2.256  16.166  0.8908 -0.0393  1.4174
 4641TIP3    H235415   6.412   2.283  16.035 -1.7172 -1.8676 -0.4738
 4642TIP3   OH235416   6.243   2.041  16.813 -0.4587  0.3380 -0.0703
 4642TIP3    H135417   6.245   2.005  16.901  2.0150 -2.5442 -1.1244
 4642TIP3    H235418   6.318   2.100  16.808  0.0668 -0.3449 -0.5023
 4643TIP3   OH235419   5.970   5.943  11.887  0.2076  1.0247 -0.0174
 4643TIP3    H135420   5.960   5.873  11.952  0.6883 -0.0627 -1.0718
 4643TIP3    H235421   6.004   6.018  11.936  1.6472 -0.1178  0.7950
 4644TIP3   OH235422   2.160   6.628   4.971  0.3049  0.6943  0.2005
 4644TIP3    H135423   2.184   6.715   4.940  1.2139  0.6845  0.8387
 4644TIP3    H235424   2.218   6.569   4.923 -0.5177  0.4001 -0.4579
 4645TIP3   OH235425   2.842   4.536  15.283  0.7475  0.3684  0.8332
 4645TIP3    H135426   2.805   4.449  15.266  0.4968  0.4227  1.0908
 4645TIP3    H235427   2.935   4.528  15.261  0.2974  0.6549 -1.3287
 4646TIP3   OH235428   6.069   1.920   5.461  0.3505 -0.0140 -0.2458
 4646TIP3    H135429   6.082   1.953   5.371 -0.2044  0.5945 -0.1068
 4646TIP3    H235430   6.104   1.990   5.516 -0.9161  0.3984  0.0570
 4647TIP3   OH235431   0.686   4.802   5.235 -0.9695 -0.2220 -0.0640
 4647TIP3    H135432   0.698   4.812   5.141  1.2512 -3.0666 -0.1845
 4647TIP3    H235433   0.774   4.800   5.271 -1.7401 -0.5518  1.9374
 4648TIP3   OH235434   0.458   0.516  17.228 -0.7629 -0.4812  0.5716
 4648TIP3    H135435   0.474   0.575  17.154 -0.0255 -0.3287  0.8496
 4648TIP3    H235436   0.508   0.437  17.208  0.4778  0.0392  1.4939
 4649TIP3   OH235437   4.001   1.227  14.350 -0.3085  0.1673  0.1827
 4649TIP3    H135438   3.971   1.262  14.267 -0.0720  1.6396  0.6951
 4649TIP3    H235439   4.093   1.204  14.335 -1.2576 -3.5283 -1.1308
 4650TIP3   OH235440   3.909   3.590  11.273 -0.1738 -0.0311  0.0102
 4650TIP3    H135441   3.875   3.504  11.298  0.5814  0.0066  1.2125
 4650TIP3    H235442   3.994   3.572  11.233  0.3679  0.2091  1.0334
 4651TIP3   OH235443   6.246   2.708  12.944 -0.1567 -0.5823  0.8391
 4651TIP3    H135444   6.255   2.744  12.856 -1.2049  0.6145  1.1997
 4651TIP3    H235445   6.320   2.744  12.992  0.7620 -1.7109  0.3347
 4652TIP3   OH235446   2.635   2.411   2.979 -0.1869  0.1670  0.3428
 4652TIP3    H135447   2.542   2.431   2.964  0.0276  0.4723 -0.5933
 4652TIP3    H235448   2.673   2.495   3.004 -0.1185  0.0738  0.5577
 4653TIP3   OH235449   4.944   2.538   0.225  0.2748  0.3308  0.0044
 4653TIP3    H135450   5.037   2.522   0.210  0.3756  0.5050  0.4266
 4653TIP3    H235451   4.902   2.517   0.142  0.2132 -3.4647  0.8162
 4654TIP3   OH235452   6.057   2.182  12.968 -0.5022 -0.2646 -0.0809
 4654TIP3    H135453   6.043   2.092  12.997  0.2735 -0.5040 -0.4229
 4654TIP3    H235454   6.117   2.220  13.032  0.2916 -0.4366 -0.7075
 4655TIP3   OH235455   3.869   2.350   0.617 -0.3184  0.3605  0.1830
 4655TIP3    H135456   3.805   2.303   0.671  1.0529 -1.1083  0.6059
 4655TIP3    H235457   3.927   2.392   0.680 -0.2983  0.9102 -0.1961
 4656TIP3   OH235458   3.815   4.983   3.417 -0.4851  0.0714 -0.0103
 4656TIP3    H135459   3.881   5.042   3.382 -0.6653  0.6756  0.6652
 4656TIP3    H235460   3.836   4.898   3.377  1.2197  0.0511  0.8551
 4657TIP3   OH235461   5.854   1.109   2.450 -0.7585  0.0775 -0.1023
 4657TIP3    H135462   5.786   1.065   2.400 -0.8641 -1.0966  1.0190
 4657TIP3    H235463   5.936   1.067   2.423 -0.0645  2.8747 -3.0184
 4658TIP3   OH235464   4.548   1.983   4.949 -0.6994 -0.3813  0.2026
 4658TIP3    H135465   4.581   1.914   4.891  0.6125  0.1217  0.3075
 4658TIP3    H235466   4.498   2.041   4.892 -0.1447 -0.3576 -0.2677
 4659TIP3   OH235467   2.281   4.810   2.090  0.0406 -0.3208  0.0066
 4659TIP3    H135468   2.264   4.896   2.129  0.7930 -0.1064 -0.1095
 4659TIP3    H235469   2.295   4.827   1.997 -1.9687 -0.8629 -0.4309
 4660TIP3   OH235470   5.656   1.280  14.155 -0.3675  0.5809  0.1250
 4660TIP3    H135471   5.653   1.373  14.176  0.3597  0.5387  0.4623
 4660TIP3    H235472   5.679   1.277  14.062  0.1984  0.7380  0.2570
 4661TIP3   OH235473   3.652   6.574  14.046 -0.9504 -0.1454  0.0417
 4661TIP3    H135474   3.639   6.642  14.113  0.2900 -0.8673  1.0496
 4661TIP3    H235475   3.691   6.621  13.972 -1.5782  0.5155  0.1136
 4662TIP3   OH235476   3.992   1.010  17.187 -0.0905  0.5652 -0.2110
 4662TIP3    H135477   4.007   1.027  17.280  0.0557 -1.1017  0.1054
 4662TIP3    H235478   3.905   1.046  17.170 -0.1978  0.7194  0.6090
 4663TIP3   OH235479   1.545   4.589  14.753 -0.4251 -0.4142  0.2406
 4663TIP3    H135480   1.500   4.653  14.809  0.2496  0.0005  0.3242
 4663TIP3    H235481   1.481   4.567  14.685 -0.7994  0.0587  0.4341
 4664TIP3   OH235482   4.430   2.196   5.627 -0.8617 -0.2965 -0.1321
 4664TIP3    H135483   4.395   2.137   5.694 -2.5646 -0.2015 -0.8747
 4664TIP3    H235484   4.400   2.283   5.654  1.0821  0.1877  0.6061
 4665TIP3   OH235485   6.263   5.646  12.573 -0.2902  0.3528 -0.2083
 4665TIP3    H135486   6.221   5.580  12.518  1.2965  0.2532 -1.3720
 4665TIP3    H235487   6.190   5.698  12.608 -1.4422 -0.7049 -0.9564
 4666TIP3   OH235488   1.060   5.325  16.134 -1.1512  0.0182 -0.4998
 4666TIP3    H135489   1.046   5.276  16.053 -2.2648 -1.1606  0.3449
 4666TIP3    H235490   1.080   5.414  16.106  0.8286 -0.8492 -2.1055
 4667TIP3   OH235491   0.110   6.234  15.711  0.6545 -0.1695 -0.4404
 4667TIP3    H135492   0.022   6.257  15.684  0.5528  0.5202  0.4401
 4667TIP3    H235493   0.162   6.241  15.631  0.0391  0.0805 -0.8265
 4668TIP3   OH235494   3.721   2.130  13.354  0.1016  0.1078  0.0025
 4668TIP3    H135495   3.641   2.109  13.307  1.7268 -1.0788 -2.4394
 4668TIP3    H235496   3.742   2.051  13.404  1.0507 -0.6066 -1.4419
 4669TIP3   OH235497   6.010   0.752  10.852  0.4159 -0.2840  0.0425
 4669TIP3    H135498   5.928   0.802  10.844  0.9261  0.3202 -2.4098
 4669TIP3    H235499   5.996   0.693  10.926 -1.6292  0.9121  0.6712
 4670TIP3   OH235500   5.999   3.618   5.752  0.4226  0.1194  0.1429
 4670TIP3    H135501   6.044   3.637   5.669  1.8746 -0.1175  0.8530
 4670TIP3    H235502   6.005   3.700   5.801 -0.9200  0.4306 -0.1703
 4671TIP3   OH235503   5.498   4.400  12.044  0.1074  0.0598  0.2922
 4671TIP3    H135504   5.565   4.387  11.976  2.7938  0.1441  2.7173
 4671TIP3    H235505   5.455   4.482  12.020 -1.0294 -1.3148 -2.7630
 4672TIP3   OH235506   4.645   2.284   5.469  0.2969 -0.6813 -0.0373
 4672TIP3    H135507   4.565   2.336   5.462  0.0695 -0.9727  0.3522
 4672TIP3    H235508   4.629   2.225   5.543  1.7101  0.7527  1.4962
 4673TIP3   OH235509   3.705   4.039   4.696 -0.2932 -0.8260 -0.0409
 4673TIP3    H135510   3.689   4.113   4.637 -0.8818 -0.2577  0.8179
 4673TIP3    H235511   3.634   4.043   4.759  0.9405 -0.7616  1.3879
 4674TIP3   OH235512   2.193   6.780   1.254 -0.0696  0.5897 -0.2454
 4674TIP3    H135513   2.276   6.742   1.224 -0.3145  0.2476 -0.4867
 4674TIP3    H235514   2.127   6.745   1.195 -0.5415 -0.0351  0.6306
 4675TIP3   OH235515   1.288   4.098  13.531  0.6005  0.0649 -0.0251
 4675TIP3    H135516   1.267   4.018  13.484  3.1970 -1.1230  0.6571
 4675TIP3    H235517   1.238   4.092  13.612 -0.1092 -0.2812 -0.4824
 4676TIP3   OH235518   4.299   4.848  15.190  0.6658 -0.4812 -0.7132
 4676TIP3    H135519   4.346   4.925  15.222 -1.0777  0.6196 -0.6334
 4676TIP3    H235520   4.287   4.794  15.267  0.5478 -0.0634 -0.4325
 4677TIP3   OH235521   2.376   0.567  14.464 -1.0876  0.0018  0.2231
 4677TIP3    H135522   2.406   0.641  14.517 -0.6870  0.6763 -0.9282
 4677TIP3    H235523   2.306   0.603  14.411 -0.1865 -0.1565 -1.1103
 4678TIP3   OH235524   1.246   5.150  15.711  0.5947 -0.2716  0.2820
 4678TIP3    H135525   1.167   5.203  15.709 -0.5402 -1.8359  1.1463
 4678TIP3    H235526   1.222   5.070  15.664  1.0245 -1.5213  2.0739
 4679TIP3   OH235527   4.414   0.094  15.864 -0.7681 -0.6249 -0.1082
 4679TIP3    H135528   4.491   0.141  15.896  0.5996 -2.0349 -1.2595
 4679TIP3    H235529   4.385   0.145  15.788 -1.0691 -0.0249  0.3981
 4680TIP3   OH235530   1.659   6.406   1.397 -0.7364  0.4670 -0.0043
 4680TIP3    H135531   1.649   6.369   1.485  0.3001 -0.8763 -0.4074
 4680TIP3    H235532   1.754   6.406   1.382 -0.8546  1.3377 -0.8663
 4681TIP3   OH235533   1.500   6.169  16.428 -0.0358 -0.0234 -0.4413
 4681TIP3    H135534   1.476   6.135  16.515  0.9815 -0.0547 -0.1617
 4681TIP3    H235535   1.525   6.260  16.444 -3.0579  1.0751 -1.2379
 4682TIP3   OH235536   5.870   4.708  16.417  0.4088 -0.3234  0.6749
 4682TIP3    H135537   5.859   4.802  16.405 -1.9148 -0.6288 -0.0168
 4682TIP3    H235538   5.921   4.680  16.341 -0.0919  0.1703  0.1536
 4683TIP3   OH235539   3.693   1.201  14.673 -0.1846  0.1536 -0.0759
 4683TIP3    H135540   3.661   1.282  14.714 -2.0879 -0.8319  0.5038
 4683TIP3    H235541   3.691   1.220  14.579 -2.9084  0.0870 -0.1026
 4684TIP3   OH235542   4.372   3.692   6.397 -0.9377  0.0097  0.2173
 4684TIP3    H135543   4.309   3.622   6.382 -2.6693  1.6790 -0.7691
 4684TIP3    H235544   4.452   3.661   6.355 -0.6874 -2.5969  2.3447
 4685TIP3   OH235545   6.550   2.888   3.460 -0.2781  0.2550 -0.3702
 4685TIP3    H135546   6.598   2.805   3.458 -0.5642  0.0487  0.7483
 4685TIP3    H235547   6.577   2.932   3.380 -0.1948 -0.9527 -1.0358
 4686TIP3   OH235548   2.557   3.692  12.180  0.2120 -0.2376 -0.9436
 4686TIP3    H135549   2.603   3.733  12.253  1.4023  0.3677 -2.0129
 4686TIP3    H235550   2.470   3.672  12.216 -0.0482  2.1739 -0.0460
 4687TIP3   OH235551   2.809   0.734   5.081  0.8989  0.1065 -0.0751
 4687TIP3    H135552   2.881   0.796   5.097  1.1908 -0.2932  0.1990
 4687TIP3    H235553   2.732   0.777   5.116  1.0918  0.3416  0.0629
 4688TIP3   OH235554   2.740   3.437   5.192  0.0627 -0.4840  0.2356
 4688TIP3    H135555   2.704   3.357   5.155 -0.8258 -0.4510  0.9993
 4688TIP3    H235556   2.834   3.419   5.202  0.3947 -0.4345 -2.1340
 4689TIP3   OH235557   4.183   3.441  12.799  0.1219 -0.6571  0.1625
 4689TIP3    H135558   4.104   3.484  12.830  0.2973  0.0759 -0.3709
 4689TIP3    H235559   4.153   3.362  12.755 -0.7922  1.5439 -3.6939
 4690TIP3   OH235560   6.269   4.755   2.536 -0.1167  0.1946  0.3830
 4690TIP3    H135561   6.234   4.718   2.455  1.0469 -2.0271  0.8234
 4690TIP3    H235562   6.222   4.838   2.546 -2.7684 -1.0291 -0.7968
 4691TIP3   OH235563   0.218   2.776   0.797 -0.0104  0.2062  0.2849
 4691TIP3    H135564   0.158   2.838   0.756 -1.7762 -1.2258  0.5814
 4691TIP3    H235565   0.239   2.816   0.882  2.2884  2.3439 -1.1271
 4692TIP3   OH235566   4.929   2.034   0.008  0.3220 -0.0801 -0.3594
 4692TIP3    H135567   4.839   2.025   0.038  0.0732  3.0914  0.2795
 4692TIP3    H235568   4.922   2.074  -0.079  1.0298  1.8045  0.3917
 4693TIP3   OH235569   4.623   1.206   4.765  0.4217  0.0868 -0.0630
 4693TIP3    H135570   4.694   1.189   4.703  1.0670 -0.2914  0.7707
 4693TIP3    H235571   4.621   1.301   4.775 -0.8969  0.3249 -2.0549
 4694TIP3   OH235572   6.214   5.148  17.187  0.1744 -0.4819 -0.3465
 4694TIP3    H135573   6.282   5.125  17.250 -0.7893 -0.4291  0.7436
 4694TIP3    H235574   6.248   5.226  17.143  1.3293 -1.1381 -0.6778
 4695TIP3   OH235575   1.777   5.696  15.756  0.6534 -0.2757  0.4653
 4695TIP3    H135576   1.692   5.708  15.800  0.4333 -0.9940  0.2393
 4695TIP3    H235577   1.762   5.627  15.692  1.4651 -0.5471  0.5570
 4696TIP3   OH235578   4.658   4.875   4.007  0.0372 -0.1426 -0.6029
 4696TIP3    H135579   4.683   4.848   3.919  0.3345  0.6923 -0.7824
 4696TIP3    H235580   4.733   4.852   4.062 -1.1857 -3.2469 -0.0080
 4697TIP3   OH235581   0.064   6.024  10.554  0.1372  0.1280  0.0107
 4697TIP3    H135582   0.069   5.938  10.512  0.4697  0.2344 -0.1706
 4697TIP3    H235583   0.155   6.050  10.566  0.1411 -0.7265  2.4895
 4698TIP3   OH235584   2.639   3.936   5.068  0.7124 -0.2833  0.0785
 4698TIP3    H135585   2.592   3.877   5.009  1.9542 -1.8518  0.6003
 4698TIP3    H235586   2.573   3.965   5.131 -0.2901  0.2451 -1.1899
 4699TIP3   OH235587   1.623   0.281  15.661  0.7368  0.4028 -0.4614
 4699TIP3    H135588   1.540   0.294  15.707  0.6945  2.1481 -0.9805
 4699TIP3    H235589   1.677   0.356  15.686  2.2012 -0.7025 -0.1239
 4700TIP3   OH235590   2.010   0.305   0.024 -0.4864  0.3459 -0.3597
 4700TIP3    H135591   2.064   0.239  -0.020 -0.0934 -0.4255  1.1949
 4700TIP3    H235592   1.964   0.255   0.092 -1.0512  1.4885  0.1125
 4701TIP3   OH235593   1.495   6.613   0.099  0.1833  0.1135 -0.6253
 4701TIP3    H135594   1.409   6.644   0.071 -0.5849  0.0317  1.5037
 4701TIP3    H235595   1.546   6.693   0.114  0.1459  0.1868 -0.8869
 4702TIP3   OH235596   6.129   1.478   4.565 -0.3463 -0.4125  0.0968
 4702TIP3    H135597   6.101   1.559   4.523  1.8034 -0.2577 -1.2137
 4702TIP3    H235598   6.081   1.475   4.647 -1.6681  1.3619 -0.5620
 4703TIP3   OH235599   5.976   5.278   3.577  0.3775 -0.0037  0.0964
 4703TIP3    H135600   6.045   5.336   3.611 -0.4396  1.5157 -0.7102
 4703TIP3    H235601   6.001   5.263   3.486  0.4254 -0.6959  0.2217
 4704TIP3   OH235602   4.309   0.421  12.967 -0.4026  0.4356 -0.7538
 4704TIP3    H135603   4.239   0.366  13.002 -1.6280 -0.2914 -3.9826
 4704TIP3    H235604   4.388   0.391  13.012 -1.7857 -0.4347  1.2194
 4705TIP3   OH235605   3.384   6.595   0.830 -0.6108 -0.0230  0.3112
 4705TIP3    H135606   3.380   6.635   0.917 -0.4035 -1.6361  1.0870
 4705TIP3    H235607   3.325   6.649   0.776  0.3011  1.8124  1.0824
 4706TIP3   OH235608   2.196   6.601  16.380 -0.0551  0.6583  0.3791
 4706TIP3    H135609   2.223   6.641  16.297  1.9341 -0.4250  0.4184
 4706TIP3    H235610   2.109   6.565  16.363  1.8421 -3.2969 -2.7696
 4707TIP3   OH235611   3.156   3.459   0.356  0.3831 -0.5200 -0.2035
 4707TIP3    H135612   3.227   3.401   0.384  2.3733  0.4456 -2.8382
 4707TIP3    H235613   3.085   3.400   0.330  1.7707 -1.7562 -1.3528
 4708TIP3   OH235614   2.184   1.914   0.228  0.2979 -0.1825  0.5882
 4708TIP3    H135615   2.162   1.836   0.178 -1.4742  1.3743 -1.2368
 4708TIP3    H235616   2.101   1.945   0.263 -0.1286  3.6206 -3.0338
 4709TIP3   OH235617   0.590   4.870   4.957 -0.4084 -0.4027  0.0267
 4709TIP3    H135618   0.670   4.896   4.912 -0.3412 -1.2293 -0.3544
 4709TIP3    H235619   0.545   4.952   4.977 -0.2767 -0.0029 -1.2620
 4710TIP3   OH235620   6.318   5.779  11.115 -0.1138 -0.5321  0.2327
 4710TIP3    H135621   6.259   5.751  11.185  1.6357  2.4233  3.2059
 4710TIP3    H235622   6.397   5.728  11.129  0.3249  0.2354  0.5967
 4711TIP3   OH235623   0.282   5.940   6.761 -0.1325  0.2082 -0.6074
 4711TIP3    H135624   0.304   5.847   6.775  0.2877  0.4308  0.2912
 4711TIP3    H235625   0.366   5.986   6.766 -0.5400  0.8449  0.8966
 4712TIP3   OH235626   3.069   1.113  15.211  0.0020  0.2481 -0.1488
 4712TIP3    H135627   3.089   1.119  15.304  1.3721 -1.0289 -0.3363
 4712TIP3    H235628   3.000   1.047  15.205  0.0730  0.1662 -0.0641
 4713TIP3   OH235629   6.102   0.613   5.207  0.5159 -0.1065 -0.0487
 4713TIP3    H135630   6.144   0.618   5.293 -0.5134 -1.4919  0.5702
 4713TIP3    H235631   6.166   0.572   5.150  0.5319 -0.9423  0.5495
 4714TIP3   OH235632   1.373   3.735  15.445  0.0450 -0.1356  0.0608
 4714TIP3    H135633   1.326   3.658  15.480  0.6764  0.5128  2.5840
 4714TIP3    H235634   1.400   3.783  15.523 -1.1967  3.2393 -1.3966
 4715TIP3   OH235635   3.684   3.928   4.335  0.6487 -0.0025 -0.0746
 4715TIP3    H135636   3.626   3.978   4.392 -1.0040 -0.5644 -1.2125
 4715TIP3    H235637   3.661   3.836   4.352 -1.5873 -0.1664 -3.2413
 4716TIP3   OH235638   6.344   0.718   5.151 -0.5685 -0.0650 -0.0434
 4716TIP3    H135639   6.287   0.795   5.159 -0.0836  0.2612  0.3215
 4716TIP3    H235640   6.336   0.692   5.059 -0.9538  0.2550 -0.1012
 4717TIP3   OH235641   1.302   6.804   1.025  0.3702  0.1329 -0.0304
 4717TIP3    H135642   1.270   6.849   1.103 -1.6052  0.2685 -0.8602
 4717TIP3    H235643   1.226   6.799   0.967  1.3273 -1.5198 -1.2422
 4718TIP3   OH235644   3.980   3.794  10.993  0.5371 -0.5281 -0.0331
 4718TIP3    H135645   4.013   3.839  10.915  1.0078 -1.6712 -0.5125
 4718TIP3    H235646   3.999   3.702  10.977 -0.2982 -0.8924  0.9867
 4719TIP3   OH235647   2.788   5.986  13.282  0.5020 -0.3495  0.1457
 4719TIP3    H135648   2.785   6.048  13.354  1.3178  0.1158 -0.1982
 4719TIP3    H235649   2.740   5.910  13.313  0.5928 -0.0424  1.0677
 4720TIP3   OH235650   4.575   1.635  11.228 -0.5055  0.1352  0.2073
 4720TIP3    H135651   4.524   1.587  11.162 -0.2891 -0.1430  0.2392
 4720TIP3    H235652   4.524   1.625  11.309 -1.1214  1.0552 -0.0578
 4721TIP3   OH235653   1.964   1.523  17.194  0.0796 -0.3229 -0.4594
 4721TIP3    H135654   1.977   1.484  17.280 -0.0615 -0.4649 -0.5014
 4721TIP3    H235655   1.869   1.534  17.187  0.2261  2.6133  0.6941
 4722TIP3   OH235656   0.952   3.405  16.947  0.3098 -0.1734 -0.4408
 4722TIP3    H135657   0.894   3.370  16.879 -1.2590  0.2780  0.5992
 4722TIP3    H235658   0.997   3.477  16.905 -1.6433  0.9812 -0.6958
 4723TIP3   OH235659   4.756   5.488   4.868  0.2284 -0.2501  0.0157
 4723TIP3    H135660   4.822   5.527   4.810 -0.9844  1.0207 -0.5732
 4723TIP3    H235661   4.761   5.394   4.852 -0.2761  0.0822 -2.3987
 4724TIP3   OH235662   5.331   1.318  12.078  0.0710  0.2719  0.1760
 4724TIP3    H135663   5.391   1.358  12.015  0.8654 -2.1136 -0.6813
 4724TIP3    H235664   5.244   1.346  12.048  0.4077 -0.9003 -2.1593
 4725TIP3   OH235665   5.364   5.625   3.910 -0.1000  0.0463  0.1688
 4725TIP3    H135666   5.335   5.658   3.825 -1.6891 -0.5516  0.4626
 4725TIP3    H235667   5.284   5.602   3.956  0.6333  1.4231  2.2954
 4726TIP3   OH235668   2.483   3.214  14.508  0.4953  0.2733  0.4545
 4726TIP3    H135669   2.388   3.209  14.513  0.5297  0.8460  2.9285
 4726TIP3    H235670   2.513   3.131  14.546  0.9527  1.1869  2.1641
 4727TIP3   OH235671   0.025   6.537   5.123 -0.1244 -0.4258  0.2145
 4727TIP3    H135672   0.049   6.597   5.052  1.0319 -1.8802 -0.6866
 4727TIP3    H235673  -0.070   6.543   5.129 -0.1705  0.3076 -0.9505
 4728TIP3   OH235674   1.017   6.062   4.473 -0.3564 -0.0831 -0.2594
 4728TIP3    H135675   0.951   6.131   4.467  2.0275  2.2519 -2.7946
 4728TIP3    H235676   1.085   6.098   4.529  0.0963 -1.2489 -0.0224
 4729TIP3   OH235677   2.580   5.969   5.451 -0.3661 -0.5768  0.0736
 4729TIP3    H135678   2.513   5.974   5.520  0.1227  0.5838  0.4932
 4729TIP3    H235679   2.645   5.908   5.486  1.0120  1.6733  1.7271
 4730TIP3   OH235680   0.424   4.277   6.688  0.2096 -0.1139 -0.3397
 4730TIP3    H135681   0.340   4.305   6.652  0.5149  1.9430  0.3868
 4730TIP3    H235682   0.455   4.353   6.738  2.5065 -0.7960 -0.5993
 4731TIP3   OH235683   2.185   3.992  16.965  0.3750  0.2857 -0.4273
 4731TIP3    H135684   2.091   3.988  16.982  0.4276 -0.1793 -0.2277
 4731TIP3    H235685   2.192   4.025  16.875  0.0549  1.3306 -0.0756
 4732TIP3   OH235686   0.461   1.397   4.009 -0.3418  1.0094 -0.5701
 4732TIP3    H135687   0.369   1.410   3.988 -0.6856  0.6392  0.6217
 4732TIP3    H235688   0.500   1.364   3.927 -1.1342  1.7052 -1.2428
 4733TIP3   OH235689   2.995   0.027   3.816  0.3272 -0.6782 -0.5778
 4733TIP3    H135690   3.057   0.070   3.875 -0.9726  0.7294 -0.1673
 4733TIP3    H235691   2.994  -0.064   3.844 -1.2432  0.1605  2.5660
 4734TIP3   OH235692   2.587   1.530  11.908 -0.0617  0.4251 -0.1975
 4734TIP3    H135693   2.536   1.499  11.834  0.1493  0.4354 -0.3472
 4734TIP3    H235694   2.538   1.501  11.985  0.6801 -1.2237 -0.3140
 4735TIP3   OH235695   4.511   2.466  15.996  0.4980  0.5007 -0.1021
 4735TIP3    H135696   4.524   2.503  16.084  0.7228 -1.0715  0.5717
 4735TIP3    H235697   4.432   2.508  15.963 -0.6394 -0.2045  1.6141
 4736TIP3   OH235698   3.035   6.384   5.720  0.0575 -0.2023  0.5848
 4736TIP3    H135699   3.025   6.479   5.730  1.1258  0.2485 -1.9483
 4736TIP3    H235700   2.957   6.357   5.672  0.8515 -0.1579 -0.7868
 4737TIP3   OH235701   2.102   0.628   6.005  0.3943  0.5673 -0.3066
 4737TIP3    H135702   2.077   0.720   5.996 -1.1210  0.1574 -0.4935
 4737TIP3    H235703   2.090   0.609   6.098 -1.0312  0.0995 -0.5683
 4738TIP3   OH235704   5.681   6.650   2.458  0.6036  0.2853  0.2751
 4738TIP3    H135705   5.670   6.556   2.475 -2.3108  0.2459 -1.0928
 4738TIP3    H235706   5.756   6.675   2.511  1.7064 -2.8616  0.4520
 4739TIP3   OH235707   2.092   6.066   0.343 -0.3780  0.1589  0.5597
 4739TIP3    H135708   2.038   6.099   0.271  0.1673  0.4656  0.2862
 4739TIP3    H235709   2.172   6.035   0.300 -0.8456 -1.4664  0.8129
 4740TIP3   OH235710   3.162   4.450  11.057 -0.1966  0.3561  0.1066
 4740TIP3    H135711   3.083   4.435  11.110 -0.1874  1.1164  0.3516
 4740TIP3    H235712   3.224   4.489  11.119  0.3274 -0.1304 -0.1160
 4741TIP3   OH235713   0.186   6.572  15.193  0.5487  0.1922 -0.3648
 4741TIP3    H135714   0.095   6.583  15.165 -0.5007 -0.5481  2.4144
 4741TIP3    H235715   0.215   6.662  15.211 -0.0413  0.3442 -0.1283
 4742TIP3   OH235716   1.528   6.291   1.178 -0.1505 -0.2705 -0.3707
 4742TIP3    H135717   1.566   6.203   1.172  2.5809  0.9165 -1.8852
 4742TIP3    H235718   1.580   6.335   1.245  0.9328  1.2220 -2.0938
 4743TIP3   OH235719   0.300   6.744   1.138  0.1529 -0.0681 -0.0898
 4743TIP3    H135720   0.363   6.814   1.120  0.5777 -0.5324 -0.4385
 4743TIP3    H235721   0.216   6.788   1.146  0.2995  0.4003 -1.0485
 4744TIP3   OH235722   2.114   3.752  13.873  0.2069 -0.1080  0.9225
 4744TIP3    H135723   2.061   3.702  13.936  0.2835 -1.0884  0.2350
 4744TIP3    H235724   2.051   3.780  13.807  0.2692  0.1798  0.9871
 4745TIP3   OH235725   0.968   0.460   0.356 -0.3356 -0.5565  0.1153
 4745TIP3    H135726   1.007   0.460   0.268  0.9635  1.5675  0.6253
 4745TIP3    H235727   1.031   0.412   0.410 -0.9144 -1.4642  0.0104
 4746TIP3   OH235728   3.815   2.736  12.528  0.3231 -0.6698 -0.5978
 4746TIP3    H135729   3.859   2.673  12.471  1.2956 -0.5396 -0.0204
 4746TIP3    H235730   3.792   2.685  12.606  2.2857 -0.0778  0.4390
 4747TIP3   OH235731   6.235   4.879   0.600 -0.5130  0.1754  0.6069
 4747TIP3    H135732   6.280   4.909   0.520  1.6761 -0.3441  1.5691
 4747TIP3    H235733   6.183   4.804   0.572  1.2118 -0.7922 -0.1465
 4748TIP3   OH235734   2.309   1.261  15.794 -0.0683  0.2040  0.3107
 4748TIP3    H135735   2.341   1.234  15.880  0.1974 -0.7070 -0.0638
 4748TIP3    H235736   2.385   1.300  15.752 -0.1785  0.5788  0.4555
 4749TIP3   OH235737   3.548   5.111  10.788 -0.9175  0.1805 -0.2651
 4749TIP3    H135738   3.512   5.057  10.718  1.9800 -0.5910 -1.2587
 4749TIP3    H235739   3.590   5.050  10.848  1.5377  1.1713 -0.8745
 4750TIP3   OH235740   2.775   2.152  12.323 -0.3786  0.3717 -0.0269
 4750TIP3    H135741   2.839   2.085  12.349  0.5502  1.6045  0.9554
 4750TIP3    H235742   2.819   2.202  12.254 -0.2953  1.2026  0.6255
 4751TIP3   OH235743   6.424   5.825   6.125  0.1364 -0.7267  0.1538
 4751TIP3    H135744   6.329   5.821   6.136  0.1493 -1.1428  0.1391
 4751TIP3    H235745   6.436   5.869   6.041 -0.0358 -0.4709  0.2590
 4752TIP3   OH235746   6.532   6.709   3.505  0.3342 -0.0290  0.5388
 4752TIP3    H135747   6.562   6.772   3.438  0.8694 -1.4277 -0.5860
 4752TIP3    H235748   6.498   6.635   3.454 -0.9052 -0.3870  1.8367
 4753TIP3   OH235749   5.014   3.183   1.458  0.5714  0.0374  0.0352
 4753TIP3    H135750   5.010   3.244   1.384  3.0125 -0.0863 -0.2686
 4753TIP3    H235751   5.069   3.111   1.426  1.7281  0.0073  1.9603
 4754TIP3   OH235752   1.891   6.418  11.463  0.0577  0.2612 -0.4686
 4754TIP3    H135753   1.835   6.350  11.500 -0.3005  0.7808 -0.0374
 4754TIP3    H235754   1.891   6.488  11.528 -0.5797  1.1964 -1.4344
 4755TIP3   OH235755   6.617   0.583  16.844  0.1825  0.1575 -0.0951
 4755TIP3    H135756   6.706   0.584  16.880  0.3620 -0.3474 -0.5166
 4755TIP3    H235757   6.626   0.623  16.757 -0.1452  0.8359  0.1785
 4756TIP3   OH235758   0.035   3.752   0.227  0.6192 -0.4210  0.6810
 4756TIP3    H135759   0.101   3.815   0.197  0.7343 -1.1996 -0.8105
 4756TIP3    H235760   0.024   3.691   0.153  0.6485 -2.2741  2.1222
 4757TIP3   OH235761   3.029   4.104   5.414 -0.3004 -0.1138  0.1403
 4757TIP3    H135762   3.047   4.190   5.376 -1.5347  1.1746  2.2430
 4757TIP3    H235763   2.962   4.065   5.357 -0.0527  0.5082 -0.5868
 4758TIP3   OH235764   6.125   2.448  15.042  0.7325  0.2275  0.2461
 4758TIP3    H135765   6.140   2.367  14.993  0.3836  0.5251 -0.3501
 4758TIP3    H235766   6.030   2.453  15.051  0.7494  0.6266  0.1899
 4759TIP3   OH235767   0.146   1.812   5.109 -0.1011 -0.4330 -0.0883
 4759TIP3    H135768   0.219   1.788   5.166 -0.0235  0.8740  0.4127
 4759TIP3    H235769   0.094   1.733   5.102 -0.0321 -0.6940  1.6991
 4760TIP3   OH235770   0.853   0.180   6.385 -0.1115  0.0247 -0.3969
 4760TIP3    H135771   0.944   0.207   6.397  0.7658 -2.2498 -1.4371
 4760TIP3    H235772   0.806   0.223   6.457  2.2549 -0.8839  1.8450
 4761TIP3   OH235773   2.281   4.251  11.151  0.5654  0.1383 -0.0196
 4761TIP3    H135774   2.315   4.338  11.130 -0.5693  0.8218  0.8890
 4761TIP3    H235775   2.357   4.193  11.142  1.0126  0.9497 -2.1462
 4762TIP3   OH235776   1.816   4.702  15.412  0.5636  0.6829  0.2527
 4762TIP3    H135777   1.807   4.608  15.426  0.7099  0.9426  2.5448
 4762TIP3    H235778   1.813   4.713  15.317  1.4552 -1.7092 -0.1149
 4763TIP3   OH235779   6.129   1.792   1.378  0.0158  0.5590  1.0282
 4763TIP3    H135780   6.082   1.711   1.399 -1.5454  0.8457 -1.0144
 4763TIP3    H235781   6.061   1.860   1.380  1.3664  1.9770  3.1405
 4764TIP3   OH235782   1.861   5.777  11.024 -0.5291  0.0943 -0.2500
 4764TIP3    H135783   1.882   5.686  11.043 -1.7470  0.2137  2.0448
 4764TIP3    H235784   1.767   5.777  11.005 -0.3619  0.7732 -1.1881
 4765TIP3   OH235785   3.022   2.086   3.824 -0.8591 -0.3060 -0.2162
 4765TIP3    H135786   3.051   2.157   3.766 -1.9945  1.1317  0.8822
 4765TIP3    H235787   2.954   2.126   3.878 -0.5513 -1.8743  1.4264
 4766TIP3   OH235788   1.179   1.877   5.866  0.2938 -0.2634  0.5206
 4766TIP3    H135789   1.163   1.783   5.855 -2.5288 -0.0544  1.9281
 4766TIP3    H235790   1.167   1.893   5.959 -2.1026  1.8700 -0.0302
 4767TIP3   OH235791   6.161   0.327  11.684  0.6234  0.3356  0.0328
 4767TIP3    H135792   6.111   0.297  11.760 -2.0214  3.2925 -0.3322
 4767TIP3    H235793   6.138   0.419  11.674  2.1927  0.5331 -3.3463
 4768TIP3   OH235794   5.052   2.910   0.430  0.5372 -0.5499 -0.5277
 4768TIP3    H135795   5.013   2.862   0.503 -0.7875  0.6226 -0.4073
 4768TIP3    H235796   4.989   2.898   0.358 -0.2802  1.6539 -0.2427
 4769TIP3   OH235797   5.174   6.157  11.106  0.2896  0.4342  0.2366
 4769TIP3    H135798   5.263   6.190  11.120  0.9894 -0.3505 -1.9212
 4769TIP3    H235799   5.134   6.159  11.193  2.7808 -0.2378  1.5086
 4770TIP3   OH235800   0.640   0.149  16.765 -0.6481 -0.1292  0.1176
 4770TIP3    H135801   0.561   0.100  16.786  0.8394 -2.6029  0.3053
 4770TIP3    H235802   0.675   0.107  16.687  0.5856  0.8035  0.1294
 4771TIP3   OH235803   6.035   0.354  12.711  0.0824  0.5492 -0.1912
 4771TIP3    H135804   6.051   0.427  12.770  1.9379  0.6284 -0.7383
 4771TIP3    H235805   5.942   0.361  12.688  0.0923  2.3837  0.2168
 4772TIP3   OH235806   2.650   2.703   1.949 -0.8544  0.5296 -0.4390
 4772TIP3    H135807   2.621   2.790   1.922  0.9939  0.5467 -2.6349
 4772TIP3    H235808   2.577   2.646   1.927 -1.4618  1.2958 -0.4739
 4773TIP3   OH235809   4.705   5.343   2.047  0.0263  0.0196 -0.0070
 4773TIP3    H135810   4.747   5.426   2.023 -2.5572  1.6165  0.4951
 4773TIP3    H235811   4.656   5.318   1.969  0.4741 -0.8237 -0.0181
 4774TIP3   OH235812   5.915   5.100  14.306  0.5135  0.3981 -0.0139
 4774TIP3    H135813   5.903   5.069  14.396  0.6665  1.6348  0.4501
 4774TIP3    H235814   5.988   5.163  14.312  3.1480 -2.2196 -1.6375
 4775TIP3   OH235815   4.791   4.471  11.963  0.0849  0.3402  0.0835
 4775TIP3    H135816   4.713   4.456  12.017  0.1101 -1.9066 -0.4298
 4775TIP3    H235817   4.788   4.564  11.942 -3.1125  0.1072 -0.8983
 4776TIP3   OH235818   3.545   0.751   1.623 -0.3293  0.2276  0.3214
 4776TIP3    H135819   3.586   0.791   1.700  0.4074 -0.0594  0.0755
 4776TIP3    H235820   3.495   0.677   1.658  2.0855 -1.5193  0.2712
 4777TIP3   OH235821   0.056   4.334  14.743  0.3204 -0.1781 -0.1698
 4777TIP3    H135822   0.086   4.243  14.744 -0.2723 -0.4202  2.2768
 4777TIP3    H235823  -0.010   4.337  14.673  1.7963 -1.0718 -1.6705
 4778TIP3   OH235824   0.722   4.290  11.133 -0.9477  0.3527 -0.5184
 4778TIP3    H135825   0.701   4.356  11.067 -1.1920 -0.2380 -1.0415
 4778TIP3    H235826   0.651   4.226  11.127 -2.0110  1.2114  1.6173
 4779TIP3   OH235827   1.704   4.795  16.646 -0.4462 -0.4042  0.1332
 4779TIP3    H135828   1.716   4.738  16.570 -1.3264 -0.9462  0.3911
 4779TIP3    H235829   1.610   4.810  16.650 -0.4753 -0.7905  1.4000
 4780TIP3   OH235830   2.679   2.590  12.917  0.3809 -0.4454  0.9321
 4780TIP3    H135831   2.630   2.663  12.955  1.2164  0.3191  0.5736
 4780TIP3    H235832   2.622   2.514  12.931 -0.8316  0.3790  0.6785
 4781TIP3   OH235833   1.157   5.373   4.635 -0.2241  0.4372  0.1268
 4781TIP3    H135834   1.244   5.375   4.674 -1.0124  0.0997  1.9838
 4781TIP3    H235835   1.149   5.457   4.589  1.0971  0.4321 -0.1383
 4782TIP3   OH235836   1.926   4.067  11.537  0.5280 -0.4278 -0.6032
 4782TIP3    H135837   1.917   4.148  11.488 -0.3238 -0.7456 -0.9860
 4782TIP3    H235838   1.836   4.034  11.547  0.9015 -1.6189 -0.9723
 4783TIP3   OH235839   5.423   6.343   5.201  0.1098 -0.6107  0.5742
 4783TIP3    H135840   5.415   6.365   5.294  2.8439 -1.3386  1.0523
 4783TIP3    H235841   5.376   6.261   5.192  0.5463 -0.9772  1.5122
 4784TIP3   OH235842   2.069   4.507   5.791 -0.1423  0.2456 -0.3352
 4784TIP3    H135843   2.124   4.531   5.866 -0.6842  0.3534  0.0339
 4784TIP3    H235844   2.007   4.443   5.826  0.2158 -0.4344 -0.9263
 4785TIP3   OH235845   0.868   3.113   3.317 -0.1077 -0.7301  0.2099
 4785TIP3    H135846   0.890   3.068   3.235 -0.9751  0.4899 -0.7372
 4785TIP3    H235847   0.797   3.061   3.355 -0.4139 -0.7269 -0.3520
 4786TIP3   OH235848   0.408   4.665   0.092  0.0033 -0.1093  0.1182
 4786TIP3    H135849   0.471   4.717   0.042 -0.4035  1.2635  0.9676
 4786TIP3    H235850   0.393   4.588   0.038 -0.5662  1.3807 -1.9857
 4787TIP3   OH235851   4.422   2.408   5.016 -0.2373 -0.2259  0.2269
 4787TIP3    H135852   4.452   2.324   4.982  2.0024  1.2921 -1.8504
 4787TIP3    H235853   4.496   2.442   5.066  0.5586  2.1973 -2.3380
 4788TIP3   OH235854   1.357   6.277  15.973 -0.3072  0.1663 -0.2543
 4788TIP3    H135855   1.440   6.322  15.959 -0.2398  0.3477  0.6768
 4788TIP3    H235856   1.381   6.190  16.004 -0.4536  0.4724  0.7598
 4789TIP3   OH235857   5.156   1.470  14.370 -0.4383 -0.0217  0.1648
 4789TIP3    H135858   5.120   1.550  14.334  0.4771  0.7772  0.9717
 4789TIP3    H235859   5.139   1.404  14.303  3.0569  1.7788 -2.8718
 4790TIP3   OH235860   5.834   1.833  16.035 -0.0339 -0.2008 -0.3019
 4790TIP3    H135861   5.754   1.787  16.008 -0.6618  0.4982  0.3396
 4790TIP3    H235862   5.848   1.898  15.966 -2.2273  2.2967  1.4328
 4791TIP3   OH235863   2.437   3.904  10.245  0.8927  0.6905 -0.4665
 4791TIP3    H135864   2.393   3.839  10.190  0.5403  0.1103  0.4759
 4791TIP3    H235865   2.372   3.928  10.310  1.1460  1.7332 -0.5756
 4792TIP3   OH235866   1.851   3.172   3.655 -0.1980  0.6122 -0.1077
 4792TIP3    H135867   1.817   3.086   3.679  1.3867  0.2528  1.0509
 4792TIP3    H235868   1.944   3.167   3.677 -0.6119  3.6570  3.0751
 4793TIP3   OH235869   6.005   0.736  16.790 -0.7586 -0.1830 -0.2714
 4793TIP3    H135870   6.067   0.787  16.737 -0.2540 -0.3987  0.1018
 4793TIP3    H235871   5.982   0.662  16.734 -1.5965  0.5095 -0.8659
 4794TIP3   OH235872   0.200   0.413   4.156 -0.7304 -0.6292 -0.1221
 4794TIP3    H135873   0.106   0.404   4.136 -1.1922  3.1037 -0.3015
 4794TIP3    H235874   0.204   0.483   4.221  1.9759 -0.6042 -0.2112
 4795TIP3   OH235875   4.533   3.138  13.206 -0.4024 -0.3885 -0.4707
 4795TIP3    H135876   4.592   3.085  13.261  0.6744  0.9412 -0.2751
 4795TIP3    H235877   4.586   3.160  13.130 -0.6860  0.7237 -0.3579
 4796TIP3   OH235878   5.893   6.738  11.864  0.5773  0.4647 -0.3515
 4796TIP3    H135879   5.918   6.671  11.800 -0.1242 -0.0741 -0.0739
 4796TIP3    H235880   5.952   6.725  11.938  0.1030 -0.1869 -0.0853
 4797TIP3   OH235881   3.066   2.746   5.652  0.0942 -0.9197  0.3685
 4797TIP3    H135882   3.012   2.677   5.614 -0.4568  1.2400 -3.2060
 4797TIP3    H235883   3.004   2.814   5.677  0.8845  0.0823 -0.3433
 4798TIP3   OH235884   0.366   3.271   5.514  0.5752  0.0312 -0.1727
 4798TIP3    H135885   0.458   3.290   5.493  0.9554 -2.2753 -0.8099
 4798TIP3    H235886   0.369   3.240   5.605  0.4461 -0.2561 -0.2682
 4799TIP3   OH235887   4.392   3.703  12.868  0.7277 -0.1379  0.4352
 4799TIP3    H135888   4.347   3.622  12.890 -0.2629  0.5069  0.8233
 4799TIP3    H235889   4.484   3.686  12.890  0.8639 -1.7457 -1.1264
 4800TIP3   OH235890   5.312   0.405   1.634  0.4900 -0.0066  0.0082
 4800TIP3    H135891   5.406   0.385   1.641  0.0014 -2.0723  2.4036
 4800TIP3    H235892   5.281   0.346   1.566  0.9797  1.1615 -1.2771
 4801TIP3   OH235893   3.291   2.613  14.509 -0.2436  0.1272 -0.5905
 4801TIP3    H135894   3.262   2.702  14.490 -0.9243  0.3331  1.2334
 4801TIP3    H235895   3.307   2.612  14.603  0.0395 -1.6117 -0.6120
 4802TIP3   OH235896   2.164   2.292  14.423  0.1020 -0.6605 -0.4492
 4802TIP3    H135897   2.245   2.343  14.425 -1.0261  1.2117  0.6439
 4802TIP3    H235898   2.122   2.317  14.340  1.0565 -2.4286 -1.5286
 4803TIP3   OH235899   5.467   2.144   1.478 -0.5155 -0.2825 -0.1561
 4803TIP3    H135900   5.517   2.178   1.404 -0.4617  0.8971  0.3976
 4803TIP3    H235901   5.473   2.049   1.469  1.3588 -0.1770 -0.4126
 4804TIP3   OH235902   0.301   5.482  15.261 -0.3904 -0.0070 -0.4045
 4804TIP3    H135903   0.231   5.477  15.195 -0.7098 -2.1939  0.0180
 4804TIP3    H235904   0.269   5.546  15.324 -0.8562  0.8607 -1.4708
 4805TIP3   OH235905   4.522   6.316   3.641  0.5146 -0.8276 -0.2068
 4805TIP3    H135906   4.602   6.267   3.659  0.0022 -1.4682  0.3911
 4805TIP3    H235907   4.456   6.248   3.623  0.1040 -0.3129 -0.6610
 4806TIP3   OH235908   4.008   2.280   4.925 -0.2992 -0.0658 -0.0640
 4806TIP3    H135909   4.005   2.341   4.851  1.4872 -1.2074 -1.1695
 4806TIP3    H235910   4.023   2.335   5.001  0.3318  0.9718 -0.9030
 4807TIP3   OH235911   0.707   2.928   4.535 -0.1769  0.4866 -0.2444
 4807TIP3    H135912   0.774   2.910   4.470 -0.8596 -3.5145 -0.0626
 4807TIP3    H235913   0.633   2.963   4.485 -0.2836 -1.4629 -1.5596
 4808TIP3   OH235914   3.460   1.763   5.392  0.1153  0.6629 -0.3004
 4808TIP3    H135915   3.526   1.740   5.326 -0.4402 -2.8386  0.1910
 4808TIP3    H235916   3.402   1.824   5.347  0.7546 -0.2396 -2.5067
 4809TIP3   OH235917   2.414   5.636   4.430  0.1036 -0.2648  0.3168
 4809TIP3    H135918   2.466   5.592   4.362  1.7337  2.4366 -0.3286
 4809TIP3    H235919   2.450   5.603   4.512  1.7250  0.2450 -0.1395
 4810TIP3   OH235920   4.467   0.345  16.937  0.2769 -0.0388  0.1460
 4810TIP3    H135921   4.453   0.270  16.879  2.1258 -0.1989 -0.1648
 4810TIP3    H235922   4.407   0.412  16.906  0.1170 -0.6712 -0.9552
 4811TIP3   OH235923   1.663   3.494   1.304 -0.2670 -0.8136  0.5279
 4811TIP3    H135924   1.637   3.503   1.213  0.0472 -3.2747  0.1228
 4811TIP3    H235925   1.595   3.539   1.354 -0.6553  0.2017 -0.8693
 4812TIP3   OH235926   0.524   3.933  14.859  0.6201 -0.1861 -0.5644
 4812TIP3    H135927   0.450   3.970  14.906  0.2066  1.0342 -2.0860
 4812TIP3    H235928   0.576   4.009  14.833  1.9931 -0.9733 -0.2256
 4813TIP3   OH235929   0.668   0.666  15.474  0.1751 -0.0678 -0.0217
 4813TIP3    H135930   0.588   0.643  15.426 -0.0697  1.3585 -0.3602
 4813TIP3    H235931   0.683   0.592  15.533 -0.7179 -0.9005 -0.8034
 4814TIP3   OH235932   6.349   2.393   1.805 -0.4013 -0.0300 -0.1968
 4814TIP3    H135933   6.393   2.386   1.720 -0.1103  0.0908 -0.0591
 4814TIP3    H235934   6.261   2.361   1.789 -0.0574 -0.9589 -0.3129
 4815TIP3   OH235935   0.602   1.667   4.014  1.1079  0.0726 -0.2155
 4815TIP3    H135936   0.535   1.601   4.036  0.6231  1.2419  2.0132
 4815TIP3    H235937   0.684   1.628   4.043  1.4675 -1.2121 -2.6325
 4816TIP3   OH235938   0.241   2.355  13.324 -0.0243 -0.2811  0.0242
 4816TIP3    H135939   0.219   2.334  13.415  0.9893  1.0547  0.6146
 4816TIP3    H235940   0.221   2.449  13.315 -1.2370 -0.6354 -1.5099
 4817TIP3   OH235941   0.200   4.356   2.939  0.5031 -0.1433  0.9134
 4817TIP3    H135942   0.266   4.393   2.880  0.2312 -3.0721 -1.4538
 4817TIP3    H235943   0.248   4.335   3.019  1.6273  0.9573  0.5509
 4818TIP3   OH235944   6.124   3.697   3.572 -0.2405 -0.9486  0.5536
 4818TIP3    H135945   6.041   3.717   3.616  0.0112 -0.2864  0.7390
 4818TIP3    H235946   6.098   3.656   3.490 -0.8588  1.3989 -0.5050
 4819TIP3   OH235947   0.996   5.894   2.661 -0.1500 -0.1669 -0.3080
 4819TIP3    H135948   1.037   5.905   2.575 -1.9091  0.7752 -1.0727
 4819TIP3    H235949   1.011   5.978   2.705  1.2365 -0.8330  0.5848
 4820TIP3   OH235950   1.369   4.597  16.311 -0.4128 -0.6200 -0.3040
 4820TIP3    H135951   1.415   4.679  16.293 -2.0031  0.3567 -0.1384
 4820TIP3    H235952   1.281   4.611  16.276 -0.8495 -2.1060  0.1165
 4821TIP3   OH235953   0.419   1.087  11.788 -0.4993 -0.0403  0.2178
 4821TIP3    H135954   0.406   1.000  11.748  1.3332  0.8016 -2.4962
 4821TIP3    H235955   0.478   1.071  11.861  0.3768 -1.0146 -0.6757
 4822TIP3   OH235956   5.164   0.684   0.881  0.2558  0.0864 -0.4415
 4822TIP3    H135957   5.171   0.676   0.786  0.0077  0.4306 -0.4890
 4822TIP3    H235958   5.231   0.625   0.915  0.1912 -0.2101 -0.8276
 4823TIP3   OH235959   3.359   0.072   4.189 -0.1909  0.6367  0.4420
 4823TIP3    H135960   3.434   0.062   4.248 -1.4072  0.3884  2.0131
 4823TIP3    H235961   3.326   0.160   4.206 -0.2424  0.7610 -0.2662
 4824TIP3   OH235962   2.876   4.835   6.064 -0.1579  0.6296  0.5291
 4824TIP3    H135963   2.885   4.741   6.046  0.5154  0.5107  1.4042
 4824TIP3    H235964   2.787   4.856   6.036 -1.0298 -0.7073  2.1225
 4825TIP3   OH235965   6.288   4.665   3.972 -0.0286  0.2210  0.9991
 4825TIP3    H135966   6.268   4.591   4.029  1.2042 -0.0166  1.1461
 4825TIP3    H235967   6.268   4.633   3.884  0.6506 -0.3634  1.0432
 4826TIP3   OH235968   5.156   2.041   5.151  0.4365 -0.4178  0.6394
 4826TIP3    H135969   5.202   2.102   5.093 -0.8243  0.7455  0.8202
 4826TIP3    H235970   5.184   2.067   5.239 -1.5450  1.2525  0.8616
 4827TIP3   OH235971   0.536   6.432   1.892 -0.4040 -0.5800 -0.4719
 4827TIP3    H135972   0.490   6.381   1.958  0.3052  1.5994  1.8821
 4827TIP3    H235973   0.472   6.498   1.864  0.1944  0.3946  0.3676
 4828TIP3   OH235974   0.093   0.009   5.835  0.8504  0.0241 -0.0141
 4828TIP3    H135975   0.025   0.015   5.902  1.9226 -0.0851  1.1366
 4828TIP3    H235976   0.155  -0.055   5.870 -0.0875 -2.4511 -2.5681
 4829TIP3   OH235977   6.159   1.162   5.472  0.2267  0.1496  0.4716
 4829TIP3    H135978   6.073   1.136   5.439  0.8478  0.0884 -1.1823
 4829TIP3    H235979   6.148   1.164   5.567 -1.3608 -0.6993  0.3489
 4830TIP3   OH235980   3.338   6.522  12.112 -0.3551  0.1463  0.2066
 4830TIP3    H135981   3.263   6.504  12.170 -1.6480 -0.8120 -1.6800
 4830TIP3    H235982   3.312   6.599  12.062 -1.0446 -1.3847 -1.9200
 4831TIP3   OH235983   5.679   2.012  15.660  0.1404  0.2634  0.0080
 4831TIP3    H135984   5.595   2.049  15.685 -0.8845 -2.0794  0.3409
 4831TIP3    H235985   5.710   2.068  15.589 -0.3502  2.7858  1.6828
 4832TIP3   OH235986   5.415   4.061   0.278  0.1806  0.3344 -0.0160
 4832TIP3    H135987   5.480   4.040   0.211  0.3349  0.4595  0.0945
 4832TIP3    H235988   5.344   4.105   0.231  0.0714 -0.0039 -0.1730
 4833TIP3   OH235989   0.291   4.242  16.185  0.1678  0.0730 -0.1571
 4833TIP3    H135990   0.335   4.294  16.117 -0.1536  1.9567  0.9801
 4833TIP3    H235991   0.200   4.235  16.156 -0.3743  2.3138  0.7549
 4834TIP3   OH235992   3.447   5.843  13.649  0.1154 -0.3595  0.1236
 4834TIP3    H135993   3.470   5.774  13.711 -0.2268 -1.5380 -0.9873
 4834TIP3    H235994   3.354   5.860  13.667  0.7363  1.4929  1.9093
 4835TIP3   OH235995   2.215   6.373  14.691  0.0132 -0.2915  0.0796
 4835TIP3    H135996   2.219   6.309  14.621 -0.8487  0.1371 -0.3725
 4835TIP3    H235997   2.306   6.404  14.701  0.2946 -1.0207 -0.2081
 4836TIP3   OH235998   5.104   0.075   6.111 -0.7613 -0.4577  0.1360
 4836TIP3    H135999   5.170   0.049   6.046 -1.0745  0.8329 -0.7314
 4836TIP3    H236000   5.131   0.030   6.191  0.3992 -1.0358 -0.5512
 4837TIP3   OH236001   4.936   1.451  11.175 -0.1439  1.2405  0.1586
 4837TIP3    H136002   4.970   1.539  11.186 -0.9016  1.6500 -0.6502
 4837TIP3    H236003   4.928   1.440  11.080  2.2215 -0.6011  0.0919
 4838TIP3   OH236004   6.295   2.739   6.551  0.1767 -0.1634 -0.4000
 4838TIP3    H136005   6.271   2.646   6.551  1.4506 -0.5142 -0.0973
 4838TIP3    H236006   6.386   2.740   6.580 -0.8629  1.4661  3.4097
 4839TIP3   OH236007   4.386   2.733  16.089  0.1246  0.0131 -0.0417
 4839TIP3    H136008   4.407   2.821  16.057 -2.5564  1.0344  0.7337
 4839TIP3    H236009   4.333   2.695  16.019  0.7393 -0.7743 -0.0915
 4840TIP3   OH236010   5.256   4.460  12.517  0.9626 -0.3483 -0.3556
 4840TIP3    H136011   5.230   4.551  12.505  0.8149 -0.3854 -0.3230
 4840TIP3    H236012   5.314   4.441  12.443 -0.0259 -0.6130 -1.0973
 4841TIP3   OH236013   4.367   1.022  16.184 -0.0723 -0.4872  0.4763
 4841TIP3    H136014   4.349   0.993  16.094  1.5702 -1.7637  0.5024
 4841TIP3    H236015   4.352   0.944  16.237  3.6167 -1.2574  0.6615
 4842TIP3   OH236016   2.891   4.568   6.051 -0.5596  0.4882  0.1420
 4842TIP3    H136017   2.914   4.498   5.990  1.8482  0.4212  1.0284
 4842TIP3    H236018   2.842   4.524   6.121 -0.1307 -0.0993  0.0792
 4843TIP3   OH236019   1.962   5.377  12.002 -0.1662 -0.1456 -0.3441
 4843TIP3    H136020   1.945   5.308  11.938 -1.5473  1.2065 -1.4960
 4843TIP3    H236021   1.970   5.457  11.951  1.6062  0.5688  0.9472
 4844TIP3   OH236022   2.184   3.087   1.496  0.6552 -0.0272 -0.5169
 4844TIP3    H136023   2.103   3.098   1.546  1.6439  3.4950  0.6641
 4844TIP3    H236024   2.222   3.005   1.528 -0.3493  0.4828  2.2421
 4845TIP3   OH236025   1.191   1.321   3.519 -0.0107 -0.6661  0.1058
 4845TIP3    H136026   1.178   1.323   3.614  0.9934 -1.9687  0.2896
 4845TIP3    H236027   1.244   1.399   3.501 -0.0193 -0.5302  0.6396
 4846TIP3   OH236028   4.468   1.273   0.791 -0.1033 -0.2169 -0.5953
 4846TIP3    H136029   4.507   1.348   0.746 -1.9476 -0.5675 -2.9543
 4846TIP3    H236030   4.375   1.279   0.771 -0.3567 -2.9028 -0.4880
 4847TIP3   OH236031   4.659   5.194   2.473  0.5739  0.1696 -0.6598
 4847TIP3    H136032   4.640   5.277   2.429 -0.1912 -0.4151 -1.4568
 4847TIP3    H236033   4.654   5.128   2.404 -0.7346 -0.7859  0.2792
 4848TIP3   OH236034   5.010   4.733   1.648 -0.5867  0.1241 -0.3639
 4848TIP3    H136035   5.048   4.809   1.604  0.1402  0.4774  0.8425
 4848TIP3    H236036   4.945   4.700   1.586  0.0737  0.8801 -1.4981
 4849TIP3   OH236037   1.252   3.211  13.472 -0.3523 -0.0333  0.8627
 4849TIP3    H136038   1.213   3.186  13.389  0.5367 -1.6564  0.8978
 4849TIP3    H236039   1.183   3.194  13.537 -0.5914 -0.0289  0.6125
 4850TIP3   OH236040   5.078   0.192  12.721  0.1232 -0.4167  0.2127
 4850TIP3    H136041   5.050   0.109  12.758  1.2400 -0.3802  1.1902
 4850TIP3    H236042   5.067   0.182  12.627  0.5209 -1.7796  0.2980
 4851TIP3   OH236043   2.412   1.978   4.658 -0.6723  0.5503  0.0994
 4851TIP3    H136044   2.493   1.983   4.710 -1.6872 -2.2176  2.1670
 4851TIP3    H236045   2.440   1.942   4.574  0.5381  1.8944 -0.1181
 4852TIP3   OH236046   1.941   2.279  14.704 -0.1966  0.0849  0.1800
 4852TIP3    H136047   1.877   2.261  14.773  0.0135  0.5540  0.5121
 4852TIP3    H236048   1.960   2.373  14.714 -1.3240  0.5356 -1.5177
 4853TIP3   OH236049   0.509   1.083  14.875 -0.3696  0.3091  0.8216
 4853TIP3    H136050   0.591   1.037  14.858 -1.2870 -0.8503 -0.6783
 4853TIP3    H236051   0.508   1.096  14.970  0.2785 -2.1663  1.2416
 4854TIP3   OH236052   4.238   3.718   2.872  0.1872  0.5478 -0.4071
 4854TIP3    H136053   4.182   3.791   2.898  2.0046  1.1552  2.0572
 4854TIP3    H236054   4.201   3.642   2.917  0.9700  0.8424  0.7587
 4855TIP3   OH236055   2.539   5.395  14.417  0.4587  0.1544 -0.4883
 4855TIP3    H136056   2.563   5.375  14.327  3.3823  0.8721  0.0221
 4855TIP3    H236057   2.620   5.428  14.457 -1.1740  1.6254  1.9022
 4856TIP3   OH236058   4.013   1.858   4.533  0.3338 -0.3408 -0.0452
 4856TIP3    H136059   4.032   1.945   4.568  0.5097  0.4918 -2.0941
 4856TIP3    H236060   4.018   1.800   4.609  2.8187  1.0412  0.9620
 4857TIP3   OH236061   0.619   5.486  12.757  0.0707 -0.0939 -0.0647
 4857TIP3    H136062   0.687   5.489  12.824  1.7546  1.6734 -1.7275
 4857TIP3    H236063   0.540   5.457  12.804  1.6942 -1.2618  2.1376
 4858TIP3   OH236064   0.448   5.592   3.646  0.3726 -0.2977 -0.3119
 4858TIP3    H136065   0.383   5.590   3.575 -0.0639 -1.1455  0.0990
 4858TIP3    H236066   0.396   5.601   3.726  0.7044 -1.5622  0.0657
 4859TIP3   OH236067   2.853   2.125   4.252  0.4546 -0.0175 -0.3729
 4859TIP3    H136068   2.945   2.102   4.239  0.7059  1.0382 -0.5783
 4859TIP3    H236069   2.856   2.201   4.310 -0.3897 -1.0195  1.0520
 4860TIP3   OH236070   2.338   6.392  11.745  0.8397 -0.2028  0.0412
 4860TIP3    H136071   2.253   6.396  11.787 -0.0032  0.4578 -1.6266
 4860TIP3    H236072   2.319   6.398  11.651  2.6918 -0.4712 -0.4029
 4861TIP3   OH236073   5.550   3.597  15.018 -0.0772 -0.1144 -0.1594
 4861TIP3    H136074   5.508   3.513  15.039 -0.7622  0.4056  0.6331
 4861TIP3    H236075   5.606   3.616  15.093  0.7602 -0.2705 -0.7283
 4862TIP3   OH236076   3.582   3.948  13.756 -0.1239 -0.7636 -0.4332
 4862TIP3    H136077   3.669   3.910  13.745 -0.7396 -1.5224 -3.7012
 4862TIP3    H236078   3.591   4.038  13.725 -0.5897 -0.9804 -1.2104
 4863TIP3   OH236079   5.216   6.278  11.521 -0.1108 -0.0051  0.0819
 4863TIP3    H136080   5.147   6.267  11.456 -0.4886  1.5618  0.1773
 4863TIP3    H236081   5.249   6.367  11.507  1.6966 -0.6094  0.2398
 4864TIP3   OH236082   4.960   1.073  12.395  0.5479  1.0057 -0.2158
 4864TIP3    H136083   4.990   1.048  12.482 -1.6701  1.8168  0.8647
 4864TIP3    H236084   4.898   1.005  12.370  0.0701  1.5363 -0.4994
 4865TIP3   OH236085   5.765   4.073  13.706  0.3486 -0.0105 -0.2893
 4865TIP3    H136086   5.696   4.138  13.718 -0.7929 -1.3576  0.8638
 4865TIP3    H236087   5.731   3.995  13.750  3.0342 -0.4481  1.2237
 4866TIP3   OH236088   3.668   0.816   4.410 -0.1083  0.6311  0.1334
 4866TIP3    H136089   3.751   0.771   4.393 -0.4162  0.9561 -2.9106
 4866TIP3    H236090   3.601   0.758   4.372 -0.9074  1.8282 -0.3612
 4867TIP3   OH236091   0.948   1.384  14.721  0.0852  0.0543  0.6899
 4867TIP3    H136092   0.876   1.321  14.724  0.2065 -0.0637  3.0994
 4867TIP3    H236093   1.019   1.342  14.771  0.5044  1.6716  1.5331
 4868TIP3   OH236094   0.568   0.914   5.110  0.0262  0.1291  0.3475
 4868TIP3    H136095   0.633   0.900   5.178 -1.0433 -0.0156  1.3589
 4868TIP3    H236096   0.547   1.008   5.115 -0.6915 -0.0493  0.8168
 4869TIP3   OH236097   2.276   2.876  12.206  0.6230  0.2641 -0.1997
 4869TIP3    H136098   2.298   2.783  12.206  0.4620  0.1431  2.6228
 4869TIP3    H236099   2.361   2.920  12.213  0.5985  0.2489  0.2040
 4870TIP3   OH236100   2.777   0.304   0.829 -0.1433  0.2825 -0.8642
 4870TIP3    H136101   2.738   0.331   0.746 -1.3810  0.2589 -0.3151
 4870TIP3    H236102   2.734   0.221   0.850  0.4110  0.1113 -0.3706
 4871TIP3   OH236103   2.356   1.702   5.559  0.0544 -0.2736 -0.3460
 4871TIP3    H136104   2.355   1.735   5.469  0.4908 -0.0510 -0.2734
 4871TIP3    H236105   2.410   1.765   5.607  1.1625 -1.2514 -0.2641
 4872TIP3   OH236106   5.512   0.984  16.549 -0.3768 -1.0305 -0.5108
 4872TIP3    H136107   5.493   0.958  16.639 -1.4608 -1.7450 -0.9235
 4872TIP3    H236108   5.476   1.072  16.541 -1.9598 -1.6736 -0.7559
 4873TIP3   OH236109   0.556   5.490  13.682  0.1885 -0.2950  0.3308
 4873TIP3    H136110   0.508   5.518  13.760  0.0780  0.7040 -0.0928
 4873TIP3    H236111   0.633   5.444  13.717 -1.2682 -2.3779  1.0198
 4874TIP3   OH236112   0.279   1.711   3.880 -0.5683  0.4694  0.0017
 4874TIP3    H136113   0.246   1.777   3.820 -0.6356  1.0439  0.6600
 4874TIP3    H236114   0.365   1.745   3.907 -1.8364  1.8719  2.6910
 4875TIP3   OH236115   6.785   6.456   4.620  0.4186  0.9338 -0.0287
 4875TIP3    H136116   6.834   6.435   4.699 -0.8401  0.7595  0.7242
 4875TIP3    H236117   6.758   6.370   4.585  2.3462  0.8854 -1.6004
 4876TIP3   OH236118   4.497   1.627  12.126  0.5836 -0.8238 -0.0042
 4876TIP3    H136119   4.429   1.601  12.064  1.5830 -1.2333 -0.9556
 4876TIP3    H236120   4.534   1.707  12.089 -0.5740  0.4478  1.4540
 4877TIP3   OH236121   6.472   3.385   3.311 -0.1121  0.2797  0.6982
 4877TIP3    H136122   6.500   3.345   3.393 -0.2019 -0.6772  0.2769
 4877TIP3    H236123   6.550   3.386   3.256 -0.7711 -2.4024 -0.4810
 4878TIP3   OH236124   1.869   1.204   3.237 -0.3144 -0.1219  0.0951
 4878TIP3    H136125   1.892   1.118   3.203 -2.7181 -0.6531 -0.4250
 4878TIP3    H236126   1.791   1.229   3.186  0.8050  2.7567 -0.3851
 4879TIP3   OH236127   1.730   0.580  13.033  0.1898 -0.1322 -0.0763
 4879TIP3    H136128   1.725   0.493  12.993  1.6536  0.1205 -0.9033
 4879TIP3    H236129   1.640   0.612  13.032 -0.1858 -1.1376 -0.9278
 4880TIP3   OH236130   5.233   4.050  15.632 -0.4725  0.2233  0.5190
 4880TIP3    H136131   5.161   4.095  15.674  0.5480  1.2914  1.1906
 4880TIP3    H236132   5.307   4.063  15.691  0.9713  1.5875 -1.4512
 4881TIP3   OH236133   2.361   4.517   2.043 -0.1228 -0.1909 -0.9015
 4881TIP3    H136134   2.456   4.532   2.040 -0.2769  0.8906 -0.7624
 4881TIP3    H236135   2.323   4.601   2.020 -1.0678 -0.1642  0.6514
 4882TIP3   OH236136   0.054   5.386   0.686  0.1692 -0.6408 -0.3646
 4882TIP3    H136137  -0.012   5.444   0.724 -1.4469 -2.6487  0.0743
 4882TIP3    H236138   0.101   5.351   0.761  0.2231 -0.9424 -0.5391
 4883TIP3   OH236139   0.211   0.094  12.803 -0.4309 -0.2706 -0.1360
 4883TIP3    H136140   0.180   0.116  12.715  0.0195  0.3341 -0.1489
 4883TIP3    H236141   0.158   0.018  12.828 -0.8623 -0.1880 -0.7558
 4884TIP3   OH236142   2.828   0.954  15.157 -0.3367 -0.4720 -0.3189
 4884TIP3    H136143   2.789   0.909  15.231 -0.4997 -0.6744 -0.5283
 4884TIP3    H236144   2.756   0.970  15.096 -0.4027  0.6063  0.0111
 4885TIP3   OH236145   1.772   4.498   2.308  0.4359  0.0424 -0.4748
 4885TIP3    H136146   1.811   4.527   2.391 -0.0525 -0.4641 -0.0595
 4885TIP3    H236147   1.840   4.515   2.242  1.2962 -0.6342  0.2043
 4886TIP3   OH236148   0.173   4.525   0.444 -0.2609  0.4304  0.1030
 4886TIP3    H136149   0.184   4.579   0.365 -1.0646 -0.8419 -0.9239
 4886TIP3    H236150   0.233   4.451   0.431  1.3160  1.3224  1.7998
 4887TIP3   OH236151   5.929   0.927   3.642 -0.0977 -0.0365 -0.3197
 4887TIP3    H136152   5.951   0.949   3.732 -2.4927  0.3252  0.2546
 4887TIP3    H236153   5.891   0.839   3.648 -1.3829  0.4681 -0.7511
 4888TIP3   OH236154   0.989   5.379   0.448  0.3425 -0.0118 -0.1379
 4888TIP3    H136155   1.067   5.338   0.409  0.1479  1.4939 -2.3036
 4888TIP3    H236156   1.022   5.460   0.487 -0.3374  1.7079 -2.9162
 4889TIP3   OH236157   4.977   0.129  11.176  0.0802  0.0405 -0.0705
 4889TIP3    H136158   4.981   0.184  11.255 -0.7289 -0.3053  0.2158
 4889TIP3    H236159   5.059   0.148  11.130  1.4868 -1.1397  1.7875
 4890TIP3   OH236160   6.778   4.277  12.885 -0.3420  0.3659 -0.1040
 4890TIP3    H136161   6.777   4.286  12.790  1.0027 -0.8752 -0.2690
 4890TIP3    H236162   6.868   4.251  12.906 -0.2455  1.9192  1.6536
 4891TIP3   OH236163   4.198   3.506  15.271  0.2356 -0.1852  0.0107
 4891TIP3    H136164   4.286   3.494  15.309  0.0062 -2.9037 -0.0935
 4891TIP3    H236165   4.145   3.439  15.314 -1.9105  1.6021  0.2848
 4892TIP3   OH236166   1.370   2.050  12.055  0.1786  0.2181  0.2528
 4892TIP3    H136167   1.374   2.028  12.148 -0.0964  1.0589  0.4720
 4892TIP3    H236168   1.282   2.025  12.028  0.7702 -1.4830 -0.1725
 4893TIP3   OH236169   3.352   3.830  11.829  0.3104 -0.0611  0.1628
 4893TIP3    H136170   3.399   3.779  11.895 -0.2648 -0.8630 -0.0230
 4893TIP3    H236171   3.409   3.829  11.752 -0.1524 -1.3875 -0.2006
 4894TIP3   OH236172   5.526   0.365  12.424  0.1111  0.5745  0.1146
 4894TIP3    H136173   5.561   0.316  12.499 -0.2931 -0.7863 -0.5540
 4894TIP3    H236174   5.447   0.317  12.398  1.1778 -0.0612 -2.2647
 4895TIP3   OH236175   0.884   0.706   0.237  0.5582 -0.6990 -0.5571
 4895TIP3    H136176   0.916   0.631   0.286 -1.2343 -0.1607  1.6066
 4895TIP3    H236177   0.795   0.682   0.211 -0.8248  1.2640  1.8922
 4896TIP3   OH236178   0.018   1.775  14.024 -0.0347 -0.1846 -0.4360
 4896TIP3    H136179  -0.004   1.682  14.035 -1.0753  0.1864  0.9578
 4896TIP3    H236180   0.093   1.775  13.965 -0.5460 -1.8653 -1.1596
 4897TIP3   OH236181   1.236   1.833   5.279 -0.1580  0.3147  0.2068
 4897TIP3    H136182   1.189   1.787   5.349  0.8552  0.2654  0.8826
 4897TIP3    H236183   1.237   1.770   5.207 -0.8428  0.1923  0.3020
 4898TIP3   OH236184   5.234   3.136  12.880 -0.6327  0.0502 -0.1547
 4898TIP3    H136185   5.283   3.075  12.825 -3.2241 -0.5577 -1.9723
 4898TIP3    H236186   5.300   3.199  12.911  2.1591 -3.3672  1.6291
 4899TIP3   OH236187   3.627   1.217  10.504 -0.1831  0.3053 -0.0629
 4899TIP3    H136188   3.537   1.218  10.536 -0.6365 -1.2908 -1.1379
 4899TIP3    H236189   3.622   1.259  10.418 -0.0420 -0.3679 -0.4095
 4900TIP3   OH236190   2.967   5.086  13.260 -0.0035  0.1708  0.2150
 4900TIP3    H136191   2.982   5.110  13.168  0.8397  1.2627  0.6014
 4900TIP3    H236192   2.872   5.092  13.271 -0.0892  0.3158 -0.5194
 4901TIP3   OH236193   2.426   0.969   4.167  0.2868  0.4724  0.5059
 4901TIP3    H136194   2.354   0.912   4.141  2.8634 -2.3381 -1.2063
 4901TIP3    H236195   2.414   1.049   4.116  0.0696 -1.2481 -2.3140
 4902TIP3   OH236196   0.107   6.480   2.006 -0.1208  0.4026  0.7181
 4902TIP3    H136197   0.176   6.522   2.058 -1.0479  1.6791  0.9723
 4902TIP3    H236198   0.082   6.403   2.057  0.2618  0.6113  1.2291
 4903TIP3   OH236199   3.254   0.065   0.354  0.6603  0.1480 -0.0481
 4903TIP3    H136200   3.242   0.034   0.443 -0.0544  1.3989  0.3144
 4903TIP3    H236201   3.216  -0.005   0.299  0.1550 -0.1573  0.6763
 4904TIP3   OH236202   2.677   1.343  10.822 -0.1124 -0.1597 -0.0668
 4904TIP3    H136203   2.706   1.254  10.802 -0.8874 -0.9161  1.8912
 4904TIP3    H236204   2.756   1.397  10.809  0.6579 -1.2955 -0.2592
 4905TIP3   OH236205   3.152   3.762   2.892  0.6858  0.7445  0.7528
 4905TIP3    H136206   3.197   3.677   2.892  1.8528  1.3508  0.3372
 4905TIP3    H236207   3.069   3.744   2.849  0.1424 -0.5734  2.2268
 4906TIP3   OH236208   5.691   5.211  10.851  0.0194  0.2198  1.2266
 4906TIP3    H136209   5.747   5.211  10.773 -0.0322 -1.1704  1.1773
 4906TIP3    H236210   5.628   5.282  10.835 -0.4094 -0.4686 -0.3080
 4907TIP3   OH236211   2.353   4.001   2.273  0.3930 -0.0990  0.1614
 4907TIP3    H136212   2.374   4.093   2.254 -0.6493  0.2126  0.4428
 4907TIP3    H236213   2.338   3.962   2.187  0.0136  0.2051  0.0871
 4908TIP3   OH236214   0.850   6.790  14.226  0.3537 -0.0968 -0.5256
 4908TIP3    H136215   0.896   6.750  14.152 -0.0746 -0.7267 -0.4631
 4908TIP3    H236216   0.803   6.717  14.267  0.1645  0.3397  0.0547
 4909TIP3   OH236217   5.520   5.762  15.908  0.1946  0.3560  0.3514
 4909TIP3    H136218   5.570   5.747  15.988  0.6319  0.8788  0.1779
 4909TIP3    H236219   5.474   5.844  15.924  0.7929  0.8002 -0.1849
 4910TIP3   OH236220   3.597   4.867   4.206  0.1467  0.4016 -0.5654
 4910TIP3    H136221   3.620   4.801   4.141  0.0169  2.0544 -2.3933
 4910TIP3    H236222   3.681   4.907   4.231  0.1751 -0.0882  0.1643
 4911TIP3   OH236223   1.566   6.251   0.007  0.3691  0.2114  0.1127
 4911TIP3    H136224   1.471   6.246  -0.009  0.0646  3.2015  0.4279
 4911TIP3    H236225   1.581   6.191   0.080 -1.5036  0.5259  0.8206
 4912TIP3   OH236226   4.403   4.393   4.757 -0.2694 -0.1087  0.4156
 4912TIP3    H136227   4.325   4.353   4.793 -0.5427  0.6048  0.6269
 4912TIP3    H236228   4.396   4.486   4.780  0.8124 -0.0941  0.7559
 4913TIP3   OH236229   3.961   2.890   2.360  1.0046  0.8125 -0.0644
 4913TIP3    H136230   3.888   2.952   2.352  1.4070  1.3170  0.0906
 4913TIP3    H236231   3.978   2.862   2.270  0.9832  1.1210 -0.1654
 4914TIP3   OH236232   2.689   6.643  13.054  0.4255 -0.1479 -0.0520
 4914TIP3    H136233   2.640   6.631  13.135  0.0399  1.2285 -0.0503
 4914TIP3    H236234   2.648   6.718  13.012  1.2952 -0.1825 -1.0112
 4915TIP3   OH236235   0.107   5.493  14.965 -0.0080 -0.5014  0.3107
 4915TIP3    H136236   0.188   5.447  14.942 -0.3088 -0.8702 -0.0165
 4915TIP3    H236237   0.131   5.586  14.961  0.3121 -0.5990 -0.1146
 4916TIP3   OH236238   1.340   1.299  11.159  0.2639  0.5051  0.1957
 4916TIP3    H136239   1.425   1.317  11.121 -0.3561 -0.7098 -1.9147
 4916TIP3    H236240   1.288   1.264  11.087 -1.0716 -1.7505  2.1199
 4917TIP3   OH236241   1.573   6.477  12.322  0.1242  0.1448 -0.6094
 4917TIP3    H136242   1.530   6.416  12.263 -1.8401  1.4731 -0.6605
 4917TIP3    H236243   1.528   6.560  12.307  2.7392  1.6749 -0.6329
 4918TIP3   OH236244   3.028   6.475  16.331  0.8667 -0.3991  0.1229
 4918TIP3    H136245   2.975   6.454  16.408  1.0975 -1.6659 -0.0362
 4918TIP3    H236246   2.980   6.438  16.258  1.1978 -0.1842 -0.2047
 4919TIP3   OH236247   1.615   6.451   0.958 -0.4890  0.1517 -0.1324
 4919TIP3    H136248   1.576   6.392   1.023  0.2270  2.3207  2.4490
 4919TIP3    H236249   1.558   6.528   0.959  0.1251  0.6482 -1.3637
 4920TIP3   OH236250   0.030   3.763   3.419 -0.0641  0.7849 -0.2098
 4920TIP3    H136251  -0.021   3.734   3.495  0.2039 -0.6990 -0.5662
 4920TIP3    H236252  -0.018   3.838   3.385 -0.7198  0.8699  0.8476
 4921TIP3   OH236253   3.556   2.676  14.445 -0.1390  0.2074  0.0562
 4921TIP3    H136254   3.609   2.618  14.391 -0.3410  0.2139 -0.1489
 4921TIP3    H236255   3.470   2.636  14.447 -0.5596  1.0148 -0.9178
 4922TIP3   OH236256   0.409   5.169  17.005  0.3744  0.4306  0.2522
 4922TIP3    H136257   0.325   5.157  17.050  0.5562 -1.4469  0.1424
 4922TIP3    H236258   0.472   5.120  17.058  1.2378  1.0244 -0.1981
 4923TIP3   OH236259   5.426   3.798   2.859 -0.4987 -0.4869  0.0604
 4923TIP3    H136260   5.331   3.803   2.863 -0.4965  0.5641 -0.8529
 4923TIP3    H236261   5.447   3.811   2.767  0.6526  1.9541  0.5805
 4924TIP3   OH236262   3.934   2.606   1.810 -0.2004  0.6625  0.4890
 4924TIP3    H136263   3.898   2.677   1.756 -0.3722  0.2723  0.0815
 4924TIP3    H236264   4.029   2.612   1.798 -0.2926 -0.3454 -1.0764
 4925TIP3   OH236265   2.844   6.566  15.695 -0.1761  0.1034  0.2735
 4925TIP3    H136266   2.791   6.646  15.687  2.8996  2.5287  1.8626
 4925TIP3    H236267   2.861   6.558  15.788  1.1679 -1.3020 -0.0543
 4926TIP3   OH236268   5.311   4.794   5.262  0.4486  0.5925 -0.1842
 4926TIP3    H136269   5.241   4.763   5.320  0.0841  0.9675 -0.4253
 4926TIP3    H236270   5.328   4.884   5.289 -0.1306  0.9716 -1.0386
 4927TIP3   OH236271   6.081   0.844  15.110  0.0677  0.4215  0.2423
 4927TIP3    H136272   6.153   0.850  15.048 -1.2975  2.5610 -1.2750
 4927TIP3    H236273   6.087   0.923  15.163 -0.9825  0.4963  0.2803
 4928TIP3   OH236274   1.985   4.570  13.812  0.0780  0.1513  0.1962
 4928TIP3    H136275   2.023   4.590  13.898  0.6522 -0.2663  0.0419
 4928TIP3    H236276   2.047   4.606  13.749 -0.8822  1.4271 -0.0448
 4929TIP3   OH236277   1.854   5.597   4.328  0.3729  0.1395  0.3604
 4929TIP3    H136278   1.929   5.641   4.289  0.1814  0.5813  0.4817
 4929TIP3    H236279   1.877   5.586   4.420  1.2459 -1.8051 -0.0399
 4930TIP3   OH236280   4.970   0.601   5.834 -0.2549 -0.3748  0.2032
 4930TIP3    H136281   4.967   0.520   5.783  3.0398 -0.5861  0.0915
 4930TIP3    H236282   5.064   0.616   5.848 -0.8139  2.7530  1.3108
 4931TIP3   OH236283   4.386   4.855   2.696  0.3685  0.3031  0.5476
 4931TIP3    H136284   4.394   4.847   2.601  2.0958  0.4195  0.6464
 4931TIP3    H236285   4.405   4.947   2.714 -0.1699  0.3301  0.9917
 4932TIP3   OH236286   1.254   4.972  15.296  0.0668  0.3423  0.2271
 4932TIP3    H136287   1.191   5.037  15.265 -1.0886 -1.0630 -0.4810
 4932TIP3    H236288   1.292   4.935  15.216  0.0441 -0.4753  0.5827
 4933TIP3   OH236289   1.232   3.700  12.937  0.3551 -0.3165  0.0288
 4933TIP3    H136290   1.197   3.756  12.868  0.8291  2.8105  2.1250
 4933TIP3    H236291   1.314   3.666  12.901  0.5841  1.2400 -1.0118
 4934TIP3   OH236292   6.314   0.077  12.479 -0.1170 -0.1918 -0.2760
 4934TIP3    H136293   6.250   0.143  12.451 -1.5244 -0.9315  1.0188
 4934TIP3    H236294   6.334   0.100  12.570  0.4195 -0.7583 -0.2457
 4935TIP3   OH236295   2.019   4.189   4.834  0.5804 -0.3751 -0.1314
 4935TIP3    H136296   1.993   4.269   4.879  0.1355 -0.3586 -0.4233
 4935TIP3    H236297   1.957   4.179   4.762  0.7246 -0.8970 -0.1920
 4936TIP3   OH236298   3.631   2.972   0.440 -0.3361 -0.7422  0.3740
 4936TIP3    H136299   3.597   2.899   0.491  0.3625 -2.5073 -1.5470
 4936TIP3    H236300   3.725   2.953   0.431 -0.2137  0.1780 -0.4982
 4937TIP3   OH236301   5.953   6.697   0.953  0.1461 -0.5053 -0.2115
 4937TIP3    H136302   5.858   6.699   0.940  0.3066 -0.6597 -1.6057
 4937TIP3    H236303   5.977   6.788   0.969 -0.4376 -0.6984  2.0366
 4938TIP3   OH236304   1.696   3.427  11.634  0.0501  0.0050  0.6833
 4938TIP3    H136305   1.649   3.510  11.623  1.5301  0.6910 -0.9119
 4938TIP3    H236306   1.741   3.436  11.719  1.8568  1.7750 -0.3731
 4939TIP3   OH236307   0.595   4.418  10.922  0.0172  0.3148  0.4015
 4939TIP3    H136308   0.548   4.337  10.943  0.7418 -0.6615 -1.5047
 4939TIP3    H236309   0.643   4.398  10.842  0.7261  2.4561  0.2238
 4940TIP3   OH236310   1.259   6.002  13.426  0.7997  0.5788 -0.4983
 4940TIP3    H136311   1.169   5.996  13.395  0.7013  1.5038 -0.4358
 4940TIP3    H236312   1.308   5.941  13.372  0.6817  2.2704 -2.6590
 4941TIP3   OH236313   4.692   0.109   5.559 -0.4143 -0.7797 -0.1391
 4941TIP3    H136314   4.758   0.051   5.521  0.1076 -0.1166 -0.2632
 4941TIP3    H236315   4.662   0.063   5.638 -0.5008 -1.5201 -0.5960
 4942TIP3   OH236316   6.059   4.967   2.615  0.0672  0.3998 -0.6530
 4942TIP3    H136317   5.999   4.969   2.541  1.0107 -0.0597 -1.4558
 4942TIP3    H236318   6.088   5.058   2.626  0.5707  0.3310 -1.3956
 4943TIP3   OH236319   0.100   3.837  12.180  0.0411 -0.7183  0.8013
 4943TIP3    H136320   0.013   3.875  12.171  0.8654  0.8612 -1.4608
 4943TIP3    H236321   0.140   3.884  12.253 -0.8972 -1.3203  1.7244
 4944TIP3   OH236322   4.495   5.484   1.251  0.3382 -0.2284  0.3768
 4944TIP3    H136323   4.401   5.464   1.250 -0.0720  0.8963 -3.9194
 4944TIP3    H236324   4.531   5.434   1.177  3.0020 -0.0108  1.4214
 4945TIP3   OH236325   0.923   6.822  12.936 -0.2422  0.3159 -0.1812
 4945TIP3    H136326   0.844   6.876  12.935 -0.0325  0.6221  0.0242
 4945TIP3    H236327   0.944   6.810  13.028  0.6525  1.2570 -0.2454
 4946TIP3   OH236328   1.981   3.197  13.614 -0.1282 -0.2215 -0.8905
 4946TIP3    H136329   2.064   3.154  13.636  0.1241  0.3502 -0.7104
 4946TIP3    H236330   1.982   3.278  13.664 -1.8607 -1.2470  0.9312
 4947TIP3   OH236331   6.757   2.750  16.403 -0.1942  0.6301  0.2471
 4947TIP3    H136332   6.807   2.831  16.410  1.1109 -0.0471 -0.8299
 4947TIP3    H236333   6.760   2.728  16.310 -1.7072  0.0469  0.2957
 4948TIP3   OH236334   3.248   4.553   1.091 -0.5026  0.6594 -0.6715
 4948TIP3    H136335   3.187   4.515   1.154 -2.0570  2.6630 -0.8639
 4948TIP3    H236336   3.327   4.499   1.099 -1.0647  0.0755  2.0642
 4949TIP3   OH236337   0.452   1.927   3.468 -0.2807 -0.0512 -0.2161
 4949TIP3    H136338   0.480   1.936   3.377 -0.8732  0.9945 -0.3091
 4949TIP3    H236339   0.519   1.871   3.508 -0.9175 -1.9122 -1.6766
 4950TIP3   OH236340   5.623   3.224  15.806 -1.2257  0.5461  0.8052
 4950TIP3    H136341   5.613   3.131  15.790 -0.1729  0.2469  1.8271
 4950TIP3    H236342   5.553   3.245  15.868 -1.9846  0.6360 -0.0465
 4951TIP3   OH236343   5.602   1.537   3.474  0.4580 -0.3318  0.2850
 4951TIP3    H136344   5.593   1.625   3.437 -0.2061 -0.7359 -0.5095
 4951TIP3    H236345   5.513   1.510   3.494  0.4095 -1.7165 -1.5748
 4952TIP3   OH236346   0.875   2.532  12.667  0.2735  0.7665  0.0405
 4952TIP3    H136347   0.810   2.464  12.650  1.3234 -0.2330 -0.0384
 4952TIP3    H236348   0.829   2.614  12.646 -0.8413  0.0648 -0.3512
 4953TIP3   OH236349   1.589   4.581  17.138  0.6948 -0.1013  0.0190
 4953TIP3    H136350   1.548   4.606  17.055  2.3952 -2.5286 -1.6988
 4953TIP3    H236351   1.659   4.645  17.150  0.2325  0.4584 -0.2187
 4954TIP3   OH236352   5.987   3.465  13.888 -0.2936 -0.3710 -0.3243
 4954TIP3    H136353   6.049   3.395  13.874 -1.6232 -1.0574 -3.9909
 4954TIP3    H236354   5.903   3.421  13.904 -0.5111  0.4806  1.0912
 4955TIP3   OH236355   1.712   0.401  16.868  0.0830 -0.7747 -0.0476
 4955TIP3    H136356   1.680   0.394  16.958 -0.4586  0.1087 -0.1630
 4955TIP3    H236357   1.785   0.462  16.873  1.7065 -2.6153  0.1759
 4956TIP3   OH236358   4.650   2.189   2.239  0.4291 -0.7904 -0.3603
 4956TIP3    H136359   4.684   2.185   2.150 -2.0895  2.1352 -1.6182
 4956TIP3    H236360   4.578   2.252   2.235 -0.5501 -1.3917  3.5325
 4957TIP3   OH236361   1.063   1.924  11.980  0.1310 -0.3385  0.0292
 4957TIP3    H136362   1.025   1.871  11.910 -0.3742  1.9908 -1.6134
 4957TIP3    H236363   0.993   1.932  12.045 -0.2111 -0.6807 -0.2914
 4958TIP3   OH236364   4.317   4.236  13.806  0.4276  0.1791 -0.6233
 4958TIP3    H136365   4.392   4.250  13.748  0.5976 -0.5412 -0.5798
 4958TIP3    H236366   4.258   4.179  13.757  0.8789 -0.9889  0.1548
 4959TIP3   OH236367   4.759   6.654   2.297  0.4661 -0.2649  0.6584
 4959TIP3    H136368   4.778   6.747   2.311 -1.4150  0.3490 -0.3844
 4959TIP3    H236369   4.764   6.615   2.384  1.1633  0.8482  1.1415
 4960TIP3   OH236370   3.849   6.710  16.861 -0.1300  0.3822 -0.3801
 4960TIP3    H136371   3.766   6.679  16.824 -0.5122  1.4257 -0.4433
 4960TIP3    H236372   3.915   6.681  16.798 -0.4993 -0.0341 -0.5828
 4961TIP3   OH236373   5.529   1.756  13.979 -0.2166  0.2685 -0.4873
 4961TIP3    H136374   5.573   1.833  13.945  0.2989 -0.3621 -1.2885
 4961TIP3    H236375   5.581   1.682  13.947 -0.6771 -0.4134  0.2864
 4962TIP3   OH236376   1.573   5.728  12.880  0.1641 -0.2038 -0.4049
 4962TIP3    H136377   1.485   5.738  12.916  1.0820  0.9989  1.6752
 4962TIP3    H236378   1.594   5.635  12.893 -0.1062 -0.1002  0.8313
 4963TIP3   OH236379   6.003   1.440  15.714 -0.0500  0.3151 -0.4355
 4963TIP3    H136380   6.034   1.350  15.725 -1.1352  0.1961  2.5376
 4963TIP3    H236381   5.936   1.450  15.781 -0.2053  3.2593 -0.9183
 4964TIP3   OH236382   6.746   6.223   1.868  0.5391  0.7364 -0.1819
 4964TIP3    H136383   6.656   6.250   1.851 -0.5427 -2.5546 -0.2834
 4964TIP3    H236384   6.762   6.250   1.958 -0.1688  2.2139 -0.4699
 4965TIP3   OH236385   2.590   5.799  13.286 -0.1776 -0.2954  0.1502
 4965TIP3    H136386   2.549   5.804  13.373 -0.7980 -1.3467 -0.0641
 4965TIP3    H236387   2.648   5.723  13.291 -0.5539 -0.6303 -0.4893
 4966TIP3   OH236388   1.012   2.190  13.708 -0.3243  0.1955 -0.0274
 4966TIP3    H136389   0.958   2.253  13.660  0.5464  0.1737 -1.0854
 4966TIP3    H236390   1.002   2.108  13.659  0.2807  0.0795  0.0295
 4967TIP3   OH236391   6.624   6.024   0.304  0.8165  0.1940 -0.6736
 4967TIP3    H136392   6.625   6.119   0.315 -1.0372  0.1152  0.8317
 4967TIP3    H236393   6.539   6.006   0.263  0.1152 -0.9233  1.1450
 4968TIP3   OH236394   4.441   5.420   0.002 -0.3161  0.3624 -0.3402
 4968TIP3    H136395   4.527   5.380   0.014 -0.6640  0.0210  1.3014
 4968TIP3    H236396   4.380   5.346   0.001 -0.5333  0.5018 -2.6808
 4969TIP3   OH236397   0.683   2.224   0.103  0.5517 -0.6483  0.4349
 4969TIP3    H136398   0.651   2.134   0.093  0.5438 -0.5571 -0.4497
 4969TIP3    H236399   0.612   2.270   0.148  0.2343 -0.9001  0.1931
 4970TIP3   OH236400   4.103   4.134   5.292 -0.0256  0.6166 -0.1448
 4970TIP3    H136401   4.038   4.078   5.248 -0.5129 -0.2216  1.5368
 4970TIP3    H236402   4.116   4.093   5.378  0.2391  2.6154  0.8451
 4971TIP3   OH236403   1.683   4.202  16.936  0.4026 -0.1025  0.7690
 4971TIP3    H136404   1.713   4.233  17.021  1.6809  0.9946 -0.0543
 4971TIP3    H236405   1.635   4.276  16.899 -2.1780 -1.3162  1.4282
 4972TIP3   OH236406   1.380   4.419   2.507 -0.4096  0.4019 -0.5236
 4972TIP3    H136407   1.382   4.395   2.600 -2.6632  0.3420 -0.4189
 4972TIP3    H236408   1.442   4.360   2.465  0.2041  0.0284  0.8499
 4973TIP3   OH236409   4.766   6.376   4.259 -0.5964 -0.5579  0.4392
 4973TIP3    H136410   4.822   6.418   4.324 -0.5373  1.3812 -0.7719
 4973TIP3    H236411   4.811   6.295   4.237  0.7003 -0.0002  0.9421
 4974TIP3   OH236412   0.114   2.458  15.497 -0.0043  0.6605  0.1406
 4974TIP3    H136413   0.026   2.487  15.524 -0.7375 -0.4907 -0.8716
 4974TIP3    H236414   0.149   2.531  15.447 -1.0882  0.5185 -0.8739
 4975TIP3   OH236415   3.921   2.295   4.351  0.6358  0.1279 -0.3255
 4975TIP3    H136416   3.963   2.214   4.322 -2.1532 -0.8468 -1.9276
 4975TIP3    H236417   3.987   2.362   4.334  2.3693 -1.5415 -0.6261
 4976TIP3   OH236418   0.359   4.172  16.667 -0.0871  0.4571 -0.2946
 4976TIP3    H136419   0.333   4.264  16.669 -1.1116  0.2276 -1.8055
 4976TIP3    H236420   0.430   4.168  16.603  0.7139  0.3451  0.5698
 4977TIP3   OH236421   3.698   5.997  11.985  0.0038  0.0197  0.1296
 4977TIP3    H136422   3.609   6.029  12.001 -0.2622 -1.2943  1.4977
 4977TIP3    H236423   3.687   5.904  11.965  1.0643 -0.1821  0.4003
 4978TIP3   OH236424   4.926   5.167   2.069  0.3193  0.2602  0.7349
 4978TIP3    H136425   4.876   5.175   2.150 -3.4302  0.3441 -1.3211
 4978TIP3    H236426   4.938   5.258   2.039  0.6122  0.1841  0.6200
 4979TIP3   OH236427   2.063   3.216  14.363  0.9402  0.1926  0.1159
 4979TIP3    H136428   1.995   3.277  14.335  1.1159  0.8083  0.9678
 4979TIP3    H236429   2.114   3.198  14.284 -0.4322 -0.5953 -0.6153
 4980TIP3   OH236430   1.977   5.917   3.124 -0.4023 -0.2346 -1.1049
 4980TIP3    H136431   1.994   5.848   3.189  0.2635  0.6142 -0.3536
 4980TIP3    H236432   1.882   5.917   3.114 -0.5382 -0.2238  0.0624
 4981TIP3   OH236433   0.596   0.382  14.679 -0.3160 -0.1325  0.0313
 4981TIP3    H136434   0.581   0.355  14.770  1.4292 -0.3727  0.2973
 4981TIP3    H236435   0.513   0.366  14.635 -1.2661  0.1932  1.6273
 4982TIP3   OH236436   0.601   0.930   3.227 -0.2570  0.0332 -0.2817
 4982TIP3    H136437   0.507   0.943   3.238 -0.7157 -2.9292  0.0723
 4982TIP3    H236438   0.610   0.838   3.202  2.7756 -1.0830  3.7982
 4983TIP3   OH236439   1.212   0.579   2.074  0.1547 -0.6794  0.4234
 4983TIP3    H136440   1.141   0.598   2.013  2.2741  0.9464 -1.7148
 4983TIP3    H236441   1.186   0.624   2.155 -1.5475 -0.7353 -0.0430
 4984TIP3   OH236442   6.319   3.220   5.344 -0.2516  0.1411  0.8567
 4984TIP3    H136443   6.245   3.269   5.379 -1.1097 -0.0635 -0.5784
 4984TIP3    H236444   6.315   3.135   5.388 -2.9305 -1.1103 -1.4859
 4985TIP3   OH236445   1.844   6.199  12.733 -0.4433  0.3289 -0.0854
 4985TIP3    H136446   1.869   6.262  12.666 -0.3546 -0.6699 -1.0066
 4985TIP3    H236447   1.909   6.129  12.726 -0.3704  0.2567  1.1128
 4986TIP3   OH236448   6.243   5.361  16.210 -0.2749 -0.1532  0.6490
 4986TIP3    H136449   6.186   5.432  16.182  0.9659  0.7590  0.3497
 4986TIP3    H236450   6.217   5.344  16.301 -0.9636  0.2944  0.5396
 4987TIP3   OH236451   6.334   0.897   0.528 -0.2520  0.5098 -0.0494
 4987TIP3    H136452   6.323   0.818   0.580 -0.8026 -0.5280 -1.6489
 4987TIP3    H236453   6.267   0.957   0.561  1.0012  0.8640  2.0491
 4988TIP3   OH236454   3.665   2.452  13.215  0.4090 -0.2976 -0.2469
 4988TIP3    H136455   3.628   2.476  13.130  1.2978 -0.7908 -0.7887
 4988TIP3    H236456   3.759   2.468  13.206  0.3761  0.8514  1.0679
 4989TIP3   OH236457   1.709   3.053  11.727 -0.3292 -0.0697  0.0141
 4989TIP3    H136458   1.722   2.969  11.683  1.5459  0.4942 -0.6224
 4989TIP3    H236459   1.617   3.073  11.715 -0.5292 -1.4195 -0.9500
 4990TIP3   OH236460   2.290   0.903   1.123  0.7277 -0.0255 -0.0919
 4990TIP3    H136461   2.198   0.887   1.101  0.8853 -0.6568 -0.3183
 4990TIP3    H236462   2.309   0.839   1.190  0.1871  2.0255  2.1607
 4991TIP3   OH236463   5.798   1.470  13.563 -0.6539 -0.3285 -0.2685
 4991TIP3    H136464   5.740   1.407  13.608 -1.5380 -1.2148 -2.4862
 4991TIP3    H236465   5.752   1.553  13.569 -0.5021 -0.3136  0.8851
 4992TIP3   OH236466   4.982   4.279   1.570 -0.0860 -0.2815  0.3437
 4992TIP3    H136467   5.022   4.364   1.552 -1.8955  0.1487 -2.1496
 4992TIP3    H236468   4.918   4.298   1.639  1.4804 -0.2861  1.8694
 4993TIP3   OH236469   0.914   0.171   1.413 -0.4619 -0.5826 -0.1017
 4993TIP3    H136470   0.978   0.236   1.383 -0.6504 -0.9323 -1.3327
 4993TIP3    H236471   0.967   0.094   1.434 -0.2453 -0.0849  1.2910
 4994TIP3   OH236472   4.235   3.233   3.070 -0.3019 -0.2347  0.5186
 4994TIP3    H136473   4.243   3.271   3.158 -0.9083  0.5410  0.2454
 4994TIP3    H236474   4.259   3.141   3.082  1.4316  0.2485  1.1580
 4995TIP3   OH236475   2.981   0.377   4.727  0.6231 -0.8172  0.1720
 4995TIP3    H136476   2.917   0.440   4.761  0.0264 -2.0053  1.3682
 4995TIP3    H236477   2.966   0.377   4.632  2.6505  2.9336 -0.3211
 4996TIP3   OH236478   5.927   5.313   5.076 -0.0750  0.6287 -0.5084
 4996TIP3    H136479   5.889   5.391   5.115 -1.7089 -0.1369 -0.4886
 4996TIP3    H236480   6.005   5.295   5.129 -2.1944 -0.3585  2.5406
 4997TIP3   OH236481   4.428   1.040   5.275  0.2111 -0.0307  0.7558
 4997TIP3    H136482   4.503   1.028   5.217  1.1997 -1.2377  2.1902
 4997TIP3    H236483   4.354   1.058   5.217  1.6804  1.7128 -0.6725
 4998TIP3   OH236484   3.841   1.977  15.702  0.5981 -0.3728 -0.3206
 4998TIP3    H136485   3.808   1.937  15.622 -0.2766  2.3185 -1.4425
 4998TIP3    H236486   3.928   2.010  15.678 -0.8013  3.0756 -1.2938
 4999TIP3   OH236487   4.800   6.171   5.628 -0.3488 -0.3561  0.3739
 4999TIP3    H136488   4.881   6.214   5.599 -1.4621 -0.1741 -2.9059
 4999TIP3    H236489   4.750   6.241   5.670  0.3170  0.0617  0.4962
 5000TIP3   OH236490   3.805   4.488   5.497  0.0007 -0.4670 -0.2819
 5000TIP3    H136491   3.837   4.428   5.431  2.8873  1.1364 -0.5193
 5000TIP3    H236492   3.789   4.570   5.450 -0.8051 -0.1216  0.5441
 5001TIP3   OH236493   3.879   3.205  10.461 -0.6742 -0.1031  0.1564
 5001TIP3    H136494   3.917   3.230  10.376 -2.2277  1.1111 -0.2267
 5001TIP3    H236495   3.812   3.271  10.477 -0.2763 -0.1920  2.4517
 5002TIP3   OH236496   1.819   6.484  14.381  0.2724  0.1563  0.1016
 5002TIP3    H136497   1.763   6.535  14.439 -2.2217 -1.2293 -0.9159
 5002TIP3    H236498   1.792   6.393  14.396  2.4961 -0.6280 -0.2615
 5003TIP3   OH236499   1.954   3.698   0.178 -0.1731  0.9111 -0.0141
 5003TIP3    H136500   1.971   3.609   0.146 -0.1907  0.7264  0.4683
 5003TIP3    H236501   1.891   3.685   0.249  1.1050  1.1129  1.2155
 5004TIP3   OH236502   5.440   5.854   3.407  0.9012  0.3127  0.1091
 5004TIP3    H136503   5.485   5.905   3.474 -2.4280  1.5805  1.6249
 5004TIP3    H236504   5.374   5.914   3.373  0.0578 -1.5137 -1.6499
 5005TIP3   OH236505   4.231   3.476   0.319 -0.3037 -0.1626  1.0520
 5005TIP3    H136506   4.269   3.389   0.319  0.3622  0.1209  0.4933
 5005TIP3    H236507   4.254   3.513   0.234  0.5025  1.0267  1.7587
 5006TIP3   OH236508   1.367   2.670  14.458  0.5338  0.2531 -0.0127
 5006TIP3    H136509   1.448   2.643  14.500  0.1502 -1.4072 -0.2865
 5006TIP3    H236510   1.350   2.758  14.493  0.9678 -0.4951  2.1898
 5007TIP3   OH236511   2.987   0.970  13.625  0.3175 -0.4359 -0.1649
 5007TIP3    H136512   3.067   0.985  13.575 -0.3459  2.0189 -0.6376
 5007TIP3    H236513   3.005   1.012  13.710  0.0228 -1.1198  0.2402
 5008TIP3   OH236514   5.893   2.199  17.155  0.6565 -0.7077  0.0095
 5008TIP3    H136515   5.855   2.286  17.145  1.8484 -0.3531 -1.9314
 5008TIP3    H236516   5.987   2.212  17.144  1.0143 -2.0643  1.0751
 5009TIP3   OH236517   3.905   3.594  11.609 -0.2268 -0.0588 -0.4889
 5009TIP3    H136518   3.885   3.680  11.573  1.8496  0.3386 -0.8016
 5009TIP3    H236519   3.855   3.533  11.554 -1.1019  0.8814 -0.7572
 5010TIP3   OH236520   3.105   2.973  17.159 -0.2634  0.1113 -0.2777
 5010TIP3    H136521   3.115   2.958  17.065 -1.0622  2.5603 -0.8308
 5010TIP3    H236522   3.034   2.915  17.185  0.4453 -1.1340 -0.9880
 5011TIP3   OH236523   1.575   5.300  10.746 -0.2653  0.0945  0.0608
 5011TIP3    H136524   1.624   5.382  10.737 -0.7421  0.4478  0.6360
 5011TIP3    H236525   1.518   5.298  10.669 -1.9052  1.4570  1.1420
 5012TIP3   OH236526   1.679   5.049   4.280  0.1889 -0.0212 -0.0603
 5012TIP3    H136527   1.604   4.989   4.280 -0.2336  0.4940 -0.0984
 5012TIP3    H236528   1.640   5.136   4.295  0.7573  0.2799 -0.2813
 5013TIP3   OH236529   5.373   2.416   1.515 -0.0412  0.3813 -0.8169
 5013TIP3    H136530   5.281   2.436   1.501 -0.2170  0.4815  0.4139
 5013TIP3    H236531   5.378   2.320   1.511 -0.8544  0.0726  2.4833
 5014TIP3   OH236532   3.544   6.535  13.392 -0.5215 -0.2354  0.5981
 5014TIP3    H136533   3.489   6.470  13.348  1.5520 -0.9657 -1.1211
 5014TIP3    H236534   3.540   6.612  13.335  1.2022 -0.7637 -0.3342
 5015TIP3   OH236535   6.642   3.931   2.401  0.6672 -0.1986 -0.0089
 5015TIP3    H136536   6.588   3.942   2.322  1.8026  2.7160 -0.5303
 5015TIP3    H236537   6.730   3.918   2.367  0.8011 -1.7173  0.8411
 5016TIP3   OH236538   1.015   2.805  12.592  0.6527  0.0486  0.1068
 5016TIP3    H136539   1.005   2.776  12.502  1.5848  2.9782 -1.0585
 5016TIP3    H236540   1.018   2.724  12.643 -0.2864 -1.6900 -2.4085
 5017TIP3   OH236541   4.471   2.467  13.952 -0.0854 -0.1982  0.7837
 5017TIP3    H136542   4.389   2.507  13.925 -0.3438 -0.4933  1.1213
 5017TIP3    H236543   4.448   2.412  14.027  0.1553 -1.3800  0.0262
 5018TIP3   OH236544   3.583   5.856   5.697  0.1592 -0.4073 -0.2742
 5018TIP3    H136545   3.512   5.920   5.706  2.1934  1.8093  0.9046
 5018TIP3    H236546   3.540   5.772   5.709 -2.1090  0.8956  1.6689
 5019TIP3   OH236547   0.268   6.200   1.668 -0.0766  0.0090 -0.0716
 5019TIP3    H136548   0.232   6.180   1.582  0.7533 -1.2027 -0.1685
 5019TIP3    H236549   0.302   6.116   1.700  0.2144  0.5653  1.1575
 5020TIP3   OH236550   5.861   4.600  12.114  0.1572 -0.1898 -0.5269
 5020TIP3    H136551   5.796   4.530  12.121  2.0034 -1.9465 -0.2612
 5020TIP3    H236552   5.881   4.624  12.204 -2.5670  2.8702 -0.5466
 5021TIP3   OH236553   0.612   3.922  16.629  0.2963 -0.6642  0.1965
 5021TIP3    H136554   0.586   3.869  16.554  0.1997  1.2570 -1.2003
 5021TIP3    H236555   0.694   3.883  16.659 -0.6233 -2.6226  0.3367
 5022TIP3   OH236556   4.691   0.175  16.639 -0.0474 -0.2957  0.4970
 5022TIP3    H136557   4.711   0.207  16.727  0.7532  0.6667 -0.0149
 5022TIP3    H236558   4.659   0.085  16.652  2.0446 -0.9293  1.6097
 5023TIP3   OH236559   1.867   3.353  14.256  0.2873  0.1465 -0.3567
 5023TIP3    H136560   1.821   3.299  14.192 -1.2092 -0.0036  0.7737
 5023TIP3    H236561   1.882   3.437  14.212  2.9112 -1.1577 -2.2497
 5024TIP3   OH236562   2.917   5.470   0.194 -0.3257  0.1415  0.5127
 5024TIP3    H136563   2.826   5.486   0.171  0.2622  1.9407 -0.8320
 5024TIP3    H236564   2.940   5.542   0.253  0.7181  0.8198 -0.6820
 5025TIP3   OH236565   3.477   4.622   2.577 -0.1347  0.4698 -0.1274
 5025TIP3    H136566   3.485   4.527   2.568 -0.2983  0.3691  0.7249
 5025TIP3    H236567   3.560   4.656   2.544  0.3731 -0.0427  0.5786
 5026TIP3   OH236568   1.091   5.522  14.333 -0.1308  0.0357  0.7375
 5026TIP3    H136569   1.045   5.450  14.377 -0.2719 -0.4450 -0.1831
 5026TIP3    H236570   1.168   5.481  14.294 -0.4521  0.2886 -0.1827
 5027TIP3   OH236571   4.827   4.255   2.961 -0.0201  0.1978  0.1903
 5027TIP3    H136572   4.737   4.273   2.934 -0.4203 -1.2531  0.4679
 5027TIP3    H236573   4.850   4.174   2.915  0.1665 -0.9259  2.1683
 5028TIP3   OH236574   4.961   4.282   3.894  0.0296  0.2757  0.5738
 5028TIP3    H136575   4.992   4.291   3.804  0.1732  0.2170  0.6178
 5028TIP3    H236576   5.010   4.207   3.929  0.1359  0.4352  0.7695
 5029TIP3   OH236577   1.520   0.421   4.761 -0.0642  0.2003  0.1382
 5029TIP3    H136578   1.596   0.445   4.814 -2.1582  1.9492  2.5838
 5029TIP3    H236579   1.504   0.497   4.705 -1.1113  0.7153  1.0824
 5030TIP3   OH236580   6.745   3.694  14.256 -0.0059 -0.0679 -0.3843
 5030TIP3    H136581   6.655   3.662  14.259 -0.3018  0.7710  0.3588
 5030TIP3    H236582   6.795   3.629  14.304 -0.3968 -0.0214  0.0961
 5031TIP3   OH236583   5.642   4.755  11.222 -0.7061  0.1624 -0.4133
 5031TIP3    H136584   5.712   4.754  11.288 -0.3227 -0.1943 -0.8191
 5031TIP3    H236585   5.580   4.688  11.253 -1.8114  1.6918  0.9119
 5032TIP3   OH236586   0.920   0.348  17.121 -0.3344 -0.6655 -0.1506
 5032TIP3    H136587   0.908   0.278  17.058  0.3142 -0.1473 -0.8667
 5032TIP3    H236588   0.864   0.324  17.195  0.7160 -2.4738  0.0930
 5033TIP3   OH236589   0.935   3.588   2.197 -0.0644 -0.3633 -0.1363
 5033TIP3    H136590   0.972   3.677   2.197  0.6773 -0.6271 -1.7933
 5033TIP3    H236591   0.927   3.565   2.290  1.9395  0.5509  0.3142
 5034TIP3   OH236592   3.572   3.578   5.514 -0.0592  0.5196  0.2774
 5034TIP3    H136593   3.621   3.604   5.592 -0.6722  2.6323  0.0206
 5034TIP3    H236594   3.509   3.649   5.501 -0.3939 -0.1061 -1.7760
 5035TIP3   OH236595   5.669   2.162   3.981  0.1455 -0.2328  0.7210
 5035TIP3    H136596   5.581   2.167   4.018 -0.5249  1.9162 -0.9525
 5035TIP3    H236597   5.726   2.198   4.049 -0.7534  1.5220  0.6011
 5036TIP3   OH236598   5.366   5.367   1.391  0.3102 -0.0815 -0.1560
 5036TIP3    H136599   5.395   5.415   1.469 -1.7839  0.0406  0.6169
 5036TIP3    H236600   5.332   5.435   1.333 -0.5082 -0.3976 -0.0589
 5037TIP3   OH236601   6.763   0.335  13.580  0.1662 -0.3190 -0.3697
 5037TIP3    H136602   6.750   0.423  13.617  2.3979  0.1622 -0.5798
 5037TIP3    H236603   6.738   0.275  13.650 -3.1024  0.3571 -0.7884
 5038TIP3   OH236604   4.827   0.560   3.798  0.5310  0.3511 -0.4586
 5038TIP3    H136605   4.806   0.486   3.740 -1.0409  0.1783  0.2724
 5038TIP3    H236606   4.797   0.533   3.884 -0.9292  2.1573 -0.3278
 5039TIP3   OH236607   1.334   5.324   5.061  0.3814  0.5649 -0.2543
 5039TIP3    H136608   1.419   5.339   5.021  0.5714  1.8301  0.5714
 5039TIP3    H236609   1.354   5.298   5.151 -0.0791 -0.7133 -0.5011
 5040TIP3   OH236610   4.889   1.761  16.190  0.2761  0.0629  0.2003
 5040TIP3    H136611   4.848   1.848  16.199  1.3192  0.5327  0.6526
 5040TIP3    H236612   4.943   1.753  16.269  0.0576 -1.0818  0.2395
 5041TIP3   OH236613   6.574   4.455  10.861  0.5309 -0.2013 -0.4591
 5041TIP3    H136614   6.520   4.501  10.797 -0.2893  0.9386  0.9992
 5041TIP3    H236615   6.567   4.363  10.836 -0.0294  0.1745 -1.7960
 5042TIP3   OH236616   6.762   4.659  16.875  0.6063  0.0022  0.6550
 5042TIP3    H136617   6.681   4.708  16.887 -0.4846 -1.5961  0.1177
 5042TIP3    H236618   6.785   4.628  16.962  1.2860  1.3819  0.9928
 5043TIP3   OH236619   6.720   2.596  15.561  0.2849 -0.2743 -0.4133
 5043TIP3    H136620   6.687   2.649  15.488 -1.3067 -2.0929 -1.1200
 5043TIP3    H236621   6.677   2.633  15.638  1.3474  1.1555 -0.4605
 5044TIP3   OH236622   5.487   0.933   0.380 -0.0383 -0.3172  0.2251
 5044TIP3    H136623   5.501   1.027   0.371 -0.3911 -0.2532  0.3109
 5044TIP3    H236624   5.471   0.920   0.474  0.3148 -0.5074  0.2612
 5045TIP3   OH236625   3.431   3.036  16.449  0.7720 -0.1514 -0.1767
 5045TIP3    H136626   3.445   2.947  16.481 -0.9197 -0.4675 -0.2033
 5045TIP3    H236627   3.409   3.086  16.528 -1.5731 -0.5291 -0.5149
 5046TIP3   OH236628   2.645   5.374  13.150  0.2676  0.0206  0.2479
 5046TIP3    H136629   2.660   5.345  13.059 -0.6940  1.9755 -0.5880
 5046TIP3    H236630   2.551   5.390  13.155  0.5664  1.7086  1.0184
 5047TIP3   OH236631   0.674   3.754   2.594  0.5921  0.2160 -0.1800
 5047TIP3    H136632   0.767   3.768   2.582  0.8295 -0.1591  1.0439
 5047TIP3    H236633   0.667   3.662   2.619 -0.2830 -0.2061 -1.8326
 5048TIP3   OH236634   1.235   2.837   2.536 -0.0277  0.3219 -0.2213
 5048TIP3    H136635   1.283   2.867   2.614 -0.3562  0.4220 -0.0574
 5048TIP3    H236636   1.301   2.836   2.467  0.9260 -2.3391  0.6230
 5049TIP3   OH236637   1.906   5.390  14.460  0.0028 -0.3035  0.6051
 5049TIP3    H136638   1.896   5.482  14.484  3.1272  0.4000 -0.3984
 5049TIP3    H236639   1.910   5.390  14.365  1.6257 -1.2174  0.6401
 5050TIP3   OH236640   0.765   6.551   0.217  0.3487 -0.1741  0.0020
 5050TIP3    H136641   0.820   6.490   0.169 -0.5075 -0.9105 -0.0715
 5050TIP3    H236642   0.817   6.576   0.293  0.3288 -1.8450  0.6139
 5051TIP3   OH236643   1.161   6.290  11.807 -0.3203  0.0068 -0.0800
 5051TIP3    H136644   1.162   6.282  11.903 -1.4459  0.2789 -0.0287
 5051TIP3    H236645   1.076   6.330  11.788  0.1533  0.5176 -1.1587
 5052TIP3   OH236646   6.404   0.961   3.260  0.0610 -0.0524 -0.6139
 5052TIP3    H136647   6.429   0.889   3.202 -0.9555 -1.2470  0.3694
 5052TIP3    H236648   6.345   0.921   3.324 -0.3226  1.6103  0.1309
 5053TIP3   OH236649   0.149   4.380  15.408  0.1941  0.3239  0.1249
 5053TIP3    H136650   0.100   4.332  15.475 -1.8898  0.2026 -1.3925
 5053TIP3    H236651   0.086   4.393  15.337  2.1117  1.0829 -1.5235
 5054TIP3   OH236652   3.530   1.831  12.967 -0.1127  0.2653  0.1559
 5054TIP3    H136653   3.541   1.738  12.949  1.4594  0.3679  0.4320
 5054TIP3    H236654   3.587   1.848  13.042  1.7615  1.9570 -1.5427
 5055TIP3   OH236655   6.164   6.412   2.733  0.2545 -0.4914  0.5931
 5055TIP3    H136656   6.164   6.505   2.757  0.4169 -0.4172  0.3119
 5055TIP3    H236657   6.078   6.399   2.692 -0.3524 -0.8099  1.9189
 5056TIP3   OH236658   6.458   1.606  14.339 -0.2432 -0.1436 -0.4782
 5056TIP3    H136659   6.527   1.664  14.304  1.4441 -1.4270  0.5479
 5056TIP3    H236660   6.502   1.522  14.350 -1.2816 -0.4026  2.4890
 5057TIP3   OH236661   5.785   1.429   0.278  0.2176 -0.7206  0.5200
 5057TIP3    H136662   5.802   1.523   0.288 -0.4638 -0.6568  1.1566
 5057TIP3    H236663   5.783   1.395   0.368 -1.0825 -1.0594  0.3782
 5058TIP3   OH236664   3.706   2.084   6.101  0.3180 -0.4489  0.1895
 5058TIP3    H136665   3.678   2.007   6.052 -0.9400  0.3613 -0.4297
 5058TIP3    H236666   3.713   2.053   6.192 -0.8956 -1.1464  0.0744
 5059TIP3   OH236667   5.426   2.549  17.116  0.3101 -0.2167 -0.2777
 5059TIP3    H136668   5.495   2.507  17.066  0.5415  0.5911 -0.6493
 5059TIP3    H236669   5.460   2.635  17.137  1.0760 -1.1849  3.0612
 5060TIP3   OH236670   0.365   4.835  12.601  0.0323 -0.0794  0.0722
 5060TIP3    H136671   0.274   4.833  12.632 -0.7436  0.7534 -1.9451
 5060TIP3    H236672   0.361   4.887  12.520  2.6211  1.5782  0.8814
 5061TIP3   OH236673   4.333   2.741  11.931  0.6431  0.1711 -0.3075
 5061TIP3    H136674   4.282   2.759  12.009 -0.6508 -0.7048 -0.9002
 5061TIP3    H236675   4.279   2.772  11.859  1.6044  0.5420 -0.8923
 5062TIP3   OH236676   1.245   2.173   3.806  0.0189 -0.3146 -0.1255
 5062TIP3    H136677   1.333   2.207   3.824  0.2458 -1.3883  0.8869
 5062TIP3    H236678   1.243   2.161   3.711  1.2651 -1.0637 -0.0761
 5063TIP3   OH236679   2.497   0.029   4.781  0.5656  0.0905  0.8300
 5063TIP3    H136680   2.456  -0.050   4.745  0.4350  0.1154  0.9243
 5063TIP3    H236681   2.545  -0.002   4.858  2.1497 -0.2355 -0.2396
 5064TIP3   OH236682   6.249   2.704   3.105  0.3225 -0.9323 -0.2158
 5064TIP3    H136683   6.281   2.732   3.191 -1.3515 -0.2613  0.2158
 5064TIP3    H236684   6.301   2.756   3.043 -0.9810  1.4322  0.5128
 5065TIP3   OH236685   3.794   1.554  15.888 -0.3939  0.0554 -0.2112
 5065TIP3    H136686   3.747   1.636  15.874  0.7980  0.6676 -0.8364
 5065TIP3    H236687   3.727   1.486  15.882 -1.2926  0.9328 -0.3994
 5066TIP3   OH236688   1.621   6.412  13.018  0.9719  0.1006 -0.1591
 5066TIP3    H136689   1.606   6.323  12.986  2.0502 -0.2250  0.1856
 5066TIP3    H236690   1.668   6.400  13.100  2.9032  1.0103 -1.0727
 5067TIP3   OH236691   3.297   3.474  10.316  0.7198  0.1932  0.1200
 5067TIP3    H136692   3.298   3.382  10.289 -0.2895  0.5650 -1.2149
 5067TIP3    H236693   3.337   3.472  10.403  3.6488 -1.1010 -1.1112
 5068TIP3   OH236694   6.810   4.853   2.244 -0.1442 -0.1760  0.0359
 5068TIP3    H136695   6.760   4.865   2.163 -1.7185 -0.0421  0.9865
 5068TIP3    H236696   6.864   4.776   2.227 -1.1657 -0.7365 -0.8093
 5069TIP3   OH236697   0.630   5.338  12.504  0.3313  0.6975 -0.1810
 5069TIP3    H136698   0.559   5.358  12.565 -0.1420 -0.1208 -0.4485
 5069TIP3    H236699   0.600   5.372  12.420  0.8145  1.4738 -0.0536
 5070TIP3   OH236700   3.395   0.752   1.055 -0.9150  0.1491  0.4429
 5070TIP3    H136701   3.428   0.756   1.145  2.2091 -0.4435 -0.5637
 5070TIP3    H236702   3.387   0.659   1.036  2.6898  0.0151 -1.1623
 5071TIP3   OH236703   6.522   2.786  15.026  0.0215  0.5215 -0.2279
 5071TIP3    H136704   6.465   2.796  15.103 -0.4790  0.0169 -0.5184
 5071TIP3    H236705   6.468   2.737  14.964  1.1419 -0.9011 -0.1184
 5072TIP3   OH236706   3.382   0.126   3.025  0.5762  0.0773  0.2278
 5072TIP3    H136707   3.401   0.218   3.042 -0.6612  0.0748  1.8361
 5072TIP3    H236708   3.467   0.083   3.030  0.8777  0.7732  2.0931
 5073TIP3   OH236709   6.745   1.648  15.174 -0.2886  0.3691 -0.1068
 5073TIP3    H136710   6.650   1.651  15.179 -0.2693  1.3709 -0.1857
 5073TIP3    H236711   6.769   1.721  15.117  0.5236  0.0928 -0.1358
 5074TIP3   OH236712   2.492   2.188   0.810 -0.2537 -0.6168 -0.0806
 5074TIP3    H136713   2.512   2.281   0.813  0.5017 -0.7574 -0.4500
 5074TIP3    H236714   2.421   2.180   0.746  0.4687 -0.4167 -0.9241
 5075TIP3   OH236715   3.796   4.464   2.317 -0.2387  0.1522  0.0909
 5075TIP3    H136716   3.756   4.384   2.352 -1.8465  0.3029 -1.2868
 5075TIP3    H236717   3.742   4.535   2.351 -0.1596  0.4833 -0.4593
 5076TIP3   OH236718   2.120   0.175   5.735  0.1786 -0.3841  0.7481
 5076TIP3    H136719   2.063   0.250   5.747 -0.2676 -0.9472  2.3299
 5076TIP3    H236720   2.115   0.156   5.641 -1.4048  0.2151  0.6868
 5077TIP3   OH236721   6.425   6.595  13.993  0.3914  0.4414  0.2326
 5077TIP3    H136722   6.346   6.544  14.006  0.9897  0.2103  3.8755
 5077TIP3    H236723   6.396   6.686  13.993 -0.2112  0.3550 -2.4929
 5078TIP3   OH236724   2.356   3.644   5.335  0.3043 -0.0529  0.3987
 5078TIP3    H136725   2.326   3.734   5.330  0.1812 -0.1127  0.0094
 5078TIP3    H236726   2.290   3.600   5.390  0.7611  0.2495  1.2107
 5079TIP3   OH236727   6.483   0.697  13.696 -0.4834 -0.3115 -0.3937
 5079TIP3    H136728   6.407   0.663  13.743 -0.2363 -0.7727 -0.3291
 5079TIP3    H236729   6.470   0.792  13.696 -1.0201 -0.3808 -0.3156
 5080TIP3   OH236730   5.391   3.969  11.799  0.7358  0.0058 -0.1350
 5080TIP3    H136731   5.395   3.884  11.755 -0.5960 -0.0257 -0.2341
 5080TIP3    H236732   5.452   4.024  11.750  0.9773 -0.6583 -0.5925
 5081TIP3   OH236733   0.172   1.879   3.671  0.8620  0.0432 -0.5693
 5081TIP3    H136734   0.207   1.968   3.667  0.7387  0.0703 -1.3128
 5081TIP3    H236735   0.085   1.886   3.632  0.0346 -0.0333  1.1779
 5082TIP3   OH236736   3.514   1.797  11.539  0.7078 -0.1180 -0.5444
 5082TIP3    H136737   3.426   1.804  11.575  1.2007 -0.2637  0.7167
 5082TIP3    H236738   3.519   1.707  11.505 -0.0284  0.2762 -1.7634
 5083TIP3   OH236739   2.598   3.167  13.049  0.5419  0.3628  0.0193
 5083TIP3    H136740   2.556   3.251  13.034  1.4570  0.7076 -0.7479
 5083TIP3    H236741   2.691   3.183  13.031  0.7662 -0.7501  0.0997
 5084TIP3   OH236742   4.145   1.583  14.430 -0.0241  0.2507  0.0725
 5084TIP3    H136743   4.223   1.588  14.374  0.7156  0.2416  1.0717
 5084TIP3    H236744   4.097   1.663  14.411  2.6664  2.7764  2.8881
 5085TIP3   OH236745   1.413   3.854   0.218  0.4309 -0.2239 -0.2920
 5085TIP3    H136746   1.479   3.900   0.165 -1.1527  1.6383 -0.7582
 5085TIP3    H236747   1.451   3.852   0.306  1.4203  0.1219 -0.6897
 5086TIP3   OH236748   0.076   3.003  16.509  0.1546 -0.1612 -0.6525
 5086TIP3    H136749   0.017   3.048  16.569  1.0784 -0.6911  0.7025
 5086TIP3    H236750   0.156   2.989  16.559  0.8400 -0.9435 -1.9004
 5087TIP3   OH236751   6.548   2.361   3.815 -0.1449  0.2441  0.5076
 5087TIP3    H136752   6.482   2.342   3.748  0.0652 -2.9658  1.0537
 5087TIP3    H236753   6.540   2.455   3.831 -2.3336  0.5375 -1.7567
 5088TIP3   OH236754   2.147   6.448  16.664 -0.0807 -0.5795 -0.4557
 5088TIP3    H136755   2.132   6.364  16.620 -2.5646 -1.3675  1.6504
 5088TIP3    H236756   2.121   6.514  16.600  1.6180 -1.3714 -2.0334
 5089TIP3   OH236757   2.192   1.220   5.844  0.2334 -0.5170  0.5289
 5089TIP3    H136758   2.221   1.130   5.827  1.4286 -0.0135 -0.2838
 5089TIP3    H236759   2.148   1.216   5.929  2.8553 -1.3512  1.9460
 5090TIP3   OH236760   5.272   1.950   2.579 -0.2190 -0.1797 -0.6999
 5090TIP3    H136761   5.307   1.900   2.504  0.0001 -1.9060  0.4971
 5090TIP3    H236762   5.304   2.039   2.565  2.7513 -1.1539 -0.9196
 5091TIP3   OH236763   0.875   0.260  15.130  0.8068 -0.8649  0.5996
 5091TIP3    H136764   0.916   0.238  15.213  0.3983 -0.2186  0.9794
 5091TIP3    H236765   0.921   0.339  15.100  1.0480 -1.1745  0.1386
 5092TIP3   OH236766   5.740   2.419  10.559 -0.1052  0.1030 -0.4989
 5092TIP3    H136767   5.659   2.469  10.556  0.2296  0.6642 -0.3227
 5092TIP3    H236768   5.804   2.475  10.514  0.2836 -0.1432 -0.2543
 5093TIP3   OH236769   0.338   6.514   3.669 -0.2882  0.3022  0.0051
 5093TIP3    H136770   0.432   6.528   3.658 -0.4909  1.8007 -0.0729
 5093TIP3    H236771   0.328   6.419   3.677  1.3465  0.1830  1.0714
 5094TIP3   OH236772   5.933   2.122  15.028 -0.1827  0.2487  0.2043
 5094TIP3    H136773   5.891   2.206  15.046  1.9363  1.6025 -0.7335
 5094TIP3    H236774   5.887   2.088  14.952 -1.4173  0.2608  0.9186
 5095TIP3   OH236775   2.962   5.871   3.344  1.0019 -0.5451 -0.4444
 5095TIP3    H136776   3.044   5.843   3.385  0.3093 -0.0566  1.3787
 5095TIP3    H236777   2.895   5.816   3.384  0.2533  0.1591 -0.7026
 5096TIP3   OH236778   5.208   6.455   0.885  0.4228 -0.3592  0.4977
 5096TIP3    H136779   5.229   6.515   0.813  0.4649 -0.5052  0.3875
 5096TIP3    H236780   5.291   6.440   0.929  0.1598  0.8962  1.4925
 5097TIP3   OH236781   5.545   1.142   0.723 -0.3726 -0.5078  0.1947
 5097TIP3    H136782   5.633   1.161   0.756  0.6108 -0.8783 -2.0422
 5097TIP3    H236783   5.508   1.227   0.701 -0.7999 -0.3098  1.5982
 5098TIP3   OH236784   6.675   6.045  17.141  0.5660  0.2865  0.8019
 5098TIP3    H136785   6.669   5.988  17.064  0.2756  0.7093  0.5023
 5098TIP3    H236786   6.683   5.986  17.215  1.6598 -0.1196  0.3773
 5099TIP3   OH236787   3.543   5.159   3.957 -0.5021 -0.7188 -0.3887
 5099TIP3    H136788   3.522   5.253   3.962  1.6518 -0.1849 -0.0461
 5099TIP3    H236789   3.475   5.117   4.009 -0.9228  0.7748  0.3485
 5100TIP3   OH236790   4.765   4.438   0.102  0.4020  0.5566 -0.2719
 5100TIP3    H136791   4.848   4.391   0.112  0.4856 -0.0491 -3.0178
 5100TIP3    H236792   4.738   4.420   0.012 -1.9987  1.9387  0.0859
 5101TIP3   OH236793   2.336   4.589   2.572 -0.9230 -0.4417 -0.1863
 5101TIP3    H136794   2.345   4.596   2.477 -1.7448  1.6540 -0.1800
 5101TIP3    H236795   2.373   4.504   2.595 -1.6197 -1.4350 -2.4971
 5102TIP3   OH236796   2.621   4.766  13.133 -0.2776  0.3865  0.0648
 5102TIP3    H136797   2.532   4.777  13.166  0.2032  0.7494  1.2981
 5102TIP3    H236798   2.641   4.849  13.090 -0.2750  0.5867  0.4486
 5103TIP3   OH236799   3.965   0.744  13.128  0.2447  0.0026 -0.2437
 5103TIP3    H136800   3.933   0.657  13.153  2.5038 -1.0527 -0.8324
 5103TIP3    H236801   3.944   0.752  13.035  1.0409 -0.3998 -0.4626
 5104TIP3   OH236802   3.688   0.033   4.155  0.5872 -0.6324  0.3023
 5104TIP3    H136803   3.731  -0.048   4.130  1.1459 -0.9747  2.2754
 5104TIP3    H236804   3.617   0.007   4.213  0.3553  0.2501  0.4390
 5105TIP3   OH236805   5.419   5.393   5.476  0.1958 -0.1585  0.4635
 5105TIP3    H136806   5.346   5.452   5.457 -0.5997 -0.8664  1.2540
 5105TIP3    H236807   5.381   5.305   5.470  0.9355 -0.5248  1.0980
 5106TIP3   OH236808   1.967   4.357   5.218 -0.5146 -0.4953 -0.2473
 5106TIP3    H136809   1.903   4.325   5.155 -1.4606 -1.5081  1.1558
 5106TIP3    H236810   1.962   4.452   5.211 -0.2437 -0.5786 -2.0055
 5107TIP3   OH236811   0.010   6.625  11.716 -0.1844 -0.1548  0.0408
 5107TIP3    H136812   0.022   6.594  11.627  0.4574  2.0965 -0.7096
 5107TIP3    H236813   0.093   6.604  11.760 -0.6978 -1.7557  0.3105
 5108TIP3   OH236814   5.453   5.201  11.184  0.3264  0.0023 -0.0900
 5108TIP3    H136815   5.518   5.271  11.188 -0.8234  1.2638 -1.9296
 5108TIP3    H236816   5.386   5.227  11.248  1.0745 -0.7374  1.0202
 5109TIP3   OH236817   0.763   4.320  11.917  0.3110 -0.8187 -0.4598
 5109TIP3    H136818   0.772   4.379  11.992  0.6800  0.5923 -1.5599
 5109TIP3    H236819   0.686   4.267  11.937 -1.4297  1.5611 -0.3478
 5110TIP3   OH236820   3.036   4.939   2.131  0.4409  0.3041  0.2103
 5110TIP3    H136821   3.012   4.847   2.117  4.5705 -0.7831 -1.0429
 5110TIP3    H236822   3.014   4.982   2.048  0.2423  0.0216  0.1148
 5111TIP3   OH236823   6.473   4.200   4.297  0.2523  0.0607  0.2025
 5111TIP3    H136824   6.446   4.270   4.238 -1.9224 -1.0206 -0.1811
 5111TIP3    H236825   6.568   4.196   4.288  0.4534  2.8455  0.1562
 5112TIP3   OH236826   6.032   1.032  12.848 -0.2038 -0.1280  0.6072
 5112TIP3    H136827   6.054   0.943  12.819 -0.4122  0.4560 -1.5287
 5112TIP3    H236828   5.937   1.032  12.854 -0.1243 -0.4532  2.1137
 5113TIP3   OH236829   6.060   3.432   1.669 -0.3169 -0.0956 -0.1253
 5113TIP3    H136830   5.972   3.438   1.632 -0.5135 -1.3044  0.1181
 5113TIP3    H236831   6.118   3.426   1.593 -0.4441  0.4916 -0.2790
 5114TIP3   OH236832   6.564   6.176  12.317 -0.1597  0.7633  0.1648
 5114TIP3    H136833   6.581   6.154  12.408  0.2779 -1.3644 -0.3763
 5114TIP3    H236834   6.469   6.170  12.308 -0.1337  0.0604  0.2907
 5115TIP3   OH236835   1.777   5.652  14.587 -0.2560 -0.1591  0.5697
 5115TIP3    H136836   1.870   5.657  14.609 -0.3663 -1.4002  1.4411
 5115TIP3    H236837   1.733   5.701  14.656 -0.2459  0.6361  0.0224
 5116TIP3   OH236838   5.828   3.001  13.075 -0.2189 -0.3923 -0.0027
 5116TIP3    H136839   5.852   2.949  12.999  0.6141 -0.0750  0.0305
 5116TIP3    H236840   5.912   3.023  13.116 -0.6687 -2.7667  2.5227
 5117TIP3   OH236841   3.081   4.484  13.983 -0.3174 -0.1327  0.1612
 5117TIP3    H136842   3.166   4.462  14.020 -0.1687  0.2192  0.0338
 5117TIP3    H236843   3.101   4.543  13.910 -0.5803 -1.0643 -0.6897
 5118TIP3   OH236844   0.785   3.627   4.436 -0.0552 -0.2042 -0.4876
 5118TIP3    H136845   0.785   3.537   4.403  1.8200 -0.9227  1.2971
 5118TIP3    H236846   0.874   3.642   4.467  0.0351  2.7256 -1.7777
 5119TIP3   OH236847   0.557   6.077  11.693 -0.1387 -0.2122 -0.5932
 5119TIP3    H136848   0.646   6.108  11.673  0.6058 -1.1378  1.0577
 5119TIP3    H236849   0.527   6.133  11.764  0.0849 -1.3610  0.4508
 5120TIP3   OH236850   4.467   3.159  12.236  0.0923  0.3499  0.9202
 5120TIP3    H136851   4.515   3.216  12.296  0.2496 -0.0829  1.2051
 5120TIP3    H236852   4.383   3.144  12.279 -0.8177  2.0720 -0.1083
 5121TIP3   OH236853   5.631   1.292  15.578 -0.0817  1.0398 -0.1023
 5121TIP3    H136854   5.573   1.345  15.523 -2.3707 -1.0073  0.1985
 5121TIP3    H236855   5.590   1.294  15.665  2.0824  2.1109  0.9855
 5122TIP3   OH236856   2.676   4.575   4.039 -0.0952  0.0067 -0.0063
 5122TIP3    H136857   2.744   4.615   3.985 -0.2569  0.7579  0.3351
 5122TIP3    H236858   2.638   4.508   3.983  1.2491 -0.7688 -0.0377
 5123TIP3   OH236859   6.208   5.772   3.170 -0.7303 -0.3294 -0.1561
 5123TIP3    H136860   6.303   5.773   3.165 -0.7745 -1.1902 -1.4633
 5123TIP3    H236861   6.185   5.861   3.199  0.5648 -0.9909  3.3962
 5124TIP3   OH236862   3.986   4.104   2.458  0.3608  0.1395  0.4746
 5124TIP3    H136863   3.976   4.066   2.371 -0.1801  1.1215  0.1049
 5124TIP3    H236864   3.965   4.031   2.518  0.9032 -0.5841 -0.1918
 5125TIP3   OH236865   1.818   1.064  15.359  0.1110 -0.3311 -0.6020
 5125TIP3    H136866   1.733   1.022  15.345 -0.7593  0.6600  1.3467
 5125TIP3    H236867   1.818   1.139  15.298 -1.2105  0.6879  0.5853
 5126TIP3   OH236868   4.523   3.915   4.482  1.0109  0.8642 -0.4566
 5126TIP3    H136869   4.487   3.837   4.523  2.1409  0.3354 -0.4377
 5126TIP3    H236870   4.527   3.979   4.553  0.6713  0.7398 -0.3224
 5127TIP3   OH236871   3.967   5.354  15.109 -0.0033  0.2881 -0.2802
 5127TIP3    H136872   3.924   5.298  15.045 -2.5556 -0.4524  1.8800
 5127TIP3    H236873   4.046   5.306  15.134 -0.7557 -1.0847 -0.4249
 5128TIP3   OH236874   5.059   6.291  13.159  0.4382  0.2618 -0.1344
 5128TIP3    H136875   5.048   6.199  13.185  1.0791  0.2039 -0.0516
 5128TIP3    H236876   4.978   6.333  13.187  0.6656 -0.0213  1.0037
 5129TIP3   OH236877   2.111   2.654   0.515 -0.3275  1.1245 -0.4100
 5129TIP3    H136878   2.092   2.748   0.518 -1.2462  0.9747 -1.1797
 5129TIP3    H236879   2.050   2.619   0.451  0.8302  0.1859 -1.0424
 5130TIP3   OH236880   1.035   3.416   3.242  0.0588 -0.2322 -0.0352
 5130TIP3    H136881   0.985   3.367   3.308 -0.8804  2.2477  1.1953
 5130TIP3    H236882   0.971   3.474   3.202  1.4207  1.0814 -0.3599
 5131TIP3   OH236883   5.989   1.132  13.555 -0.6001  0.0177 -0.4892
 5131TIP3    H136884   5.896   1.123  13.535 -0.2635  0.0430 -2.1510
 5131TIP3    H236885   6.020   1.042  13.565 -0.1586 -0.2170 -3.2252
 5132TIP3   OH236886   6.086   6.415  13.502 -0.3760  0.3675  0.0534
 5132TIP3    H136887   6.081   6.390  13.409 -2.4335  0.4735  0.0974
 5132TIP3    H236888   6.007   6.377  13.541 -0.6627  2.1681  1.3107
 5133TIP3   OH236889   1.529   6.085  14.899 -0.0445 -0.5304 -0.0746
 5133TIP3    H136890   1.529   6.174  14.867 -1.8363  0.3441  2.0302
 5133TIP3    H236891   1.550   6.031  14.823  0.4007  1.6134 -1.5481
 5134TIP3   OH236892   6.187   3.499  14.182 -0.3314 -0.2161  0.8151
 5134TIP3    H136893   6.205   3.511  14.275 -0.3911 -2.3877  1.1520
 5134TIP3    H236894   6.095   3.473  14.178 -0.4776  0.3795  0.0798
 5135TIP3   OH236895   6.052   5.587  13.714 -0.2729 -0.3309 -0.9458
 5135TIP3    H136896   6.106   5.643  13.771 -0.8398 -1.3382  0.6724
 5135TIP3    H236897   5.995   5.540  13.775 -0.5576 -1.8657 -2.3341
 5136TIP3   OH236898   1.009   3.558  13.538  0.4530  0.0515 -0.3104
 5136TIP3    H136899   0.933   3.500  13.549  0.5559 -0.0140  0.0385
 5136TIP3    H236900   1.023   3.597  13.624  0.2820  0.7265 -0.5751
 5137TIP3   OH236901   3.433   6.240   4.860  0.4205  0.2901 -0.1416
 5137TIP3    H136902   3.370   6.310   4.883  0.4789  0.7167 -1.2162
 5137TIP3    H236903   3.490   6.281   4.795  0.3323 -0.8202 -0.9355
 5138TIP3   OH236904   4.495   1.220   1.129 -0.3144  0.2830  0.4508
 5138TIP3    H136905   4.569   1.201   1.187  0.1987  1.9364  0.3987
 5138TIP3    H236906   4.490   1.144   1.071  2.3125  0.7452 -0.5139
 5139TIP3   OH236907   2.985   2.746   3.925  0.2858 -0.4858 -0.0618
 5139TIP3    H136908   3.022   2.658   3.916  2.4805 -0.0251  2.8559
 5139TIP3    H236909   3.060   2.804   3.916 -0.6754  0.9028  0.5905
 5140TIP3   OH236910   3.341   2.801   1.661  0.3042 -0.3407  0.3667
 5140TIP3    H136911   3.416   2.860   1.653  0.6966 -0.6791  1.3993
 5140TIP3    H236912   3.355   2.757   1.744 -0.3244 -1.4205 -0.0899
 5141TIP3   OH236913   0.461   6.433   3.938  0.3499 -0.2204  0.2752
 5141TIP3    H136914   0.534   6.448   3.997 -0.1622  1.4713  0.5292
 5141TIP3    H236915   0.387   6.480   3.977 -0.3337 -0.1351 -1.0321
 5142TIP3   OH236916   5.502   0.457  12.755 -0.6638 -0.1709 -0.3257
 5142TIP3    H136917   5.449   0.417  12.824 -0.2971  1.8015  1.1711
 5142TIP3    H236918   5.454   0.536  12.731  0.7535  0.7930 -0.0962
 5143TIP3   OH236919   6.809   0.717  16.995 -0.1184  0.0990  0.2140
 5143TIP3    H136920   6.824   0.735  17.088  1.0970 -1.0768  0.2672
 5143TIP3    H236921   6.896   0.715  16.956 -0.6522  1.6129 -1.1938
 5144TIP3   OH236922   6.622   4.286   3.314  0.6101 -0.4602 -0.6776
 5144TIP3    H136923   6.691   4.270   3.249  2.0015 -0.4955  0.7362
 5144TIP3    H236924   6.601   4.199   3.349 -0.1619 -0.4488 -1.0979
 5145TIP3   OH236925   0.119   0.935   5.627 -0.0920 -0.4576  0.2866
 5145TIP3    H136926   0.028   0.953   5.651  0.4524  1.7971  0.8485
 5145TIP3    H236927   0.136   0.993   5.553  1.6421  1.1868  1.8860
 5146TIP3   OH236928   3.578   0.683   4.094 -0.0696 -0.3039 -1.5546
 5146TIP3    H136929   3.485   0.662   4.097 -0.1154 -0.0354  0.1600
 5146TIP3    H236930   3.583   0.775   4.120  0.6914 -0.4412 -1.1640
 5147TIP3   OH236931   6.409   5.948   0.126  0.4849 -0.1472  0.8565
 5147TIP3    H136932   6.405   5.948   0.031  0.1713 -0.0898  0.8697
 5147TIP3    H236933   6.348   5.879   0.153 -0.0467  0.3848  1.0379
 5148TIP3   OH236934   1.299   2.357  15.465  0.0577  0.5459 -0.3559
 5148TIP3    H136935   1.229   2.291  15.461 -0.6555  1.3543 -1.5727
 5148TIP3    H236936   1.256   2.439  15.443  1.1983  1.2287 -0.1077
 5149TIP3   OH236937   6.038   4.562   4.442 -0.3426  0.3601 -0.0912
 5149TIP3    H136938   6.085   4.607   4.512  2.3885 -1.0331 -0.8693
 5149TIP3    H236939   6.032   4.471   4.472 -1.1838  0.1947 -0.7198
 5150TIP3   OH236940   0.206   5.701  13.504  0.3832 -0.1389 -0.4041
 5150TIP3    H136941   0.166   5.716  13.589  0.8838  0.3768 -0.2482
 5150TIP3    H236942   0.172   5.770  13.448  0.4375 -0.1772 -0.4855
 5151TIP3   OH236943   5.648   0.753  13.886  0.6031 -0.0762 -0.2698
 5151TIP3    H136944   5.563   0.711  13.873  1.2579 -1.9545  1.1499
 5151TIP3    H236945   5.667   0.794  13.801 -0.7354 -1.4238 -1.2831
 5152TIP3   OH236946   4.458   2.763   1.637 -0.7797 -0.2441 -0.1447
 5152TIP3    H136947   4.524   2.748   1.705 -1.5674 -0.9716  0.4712
 5152TIP3    H236948   4.491   2.715   1.561  0.6411  1.4337 -0.6580
 5153TIP3   OH236949   6.113   2.532  14.413  0.1073 -0.3164 -0.8684
 5153TIP3    H136950   6.136   2.597  14.480  1.0837 -1.5954  0.0927
 5153TIP3    H236951   6.029   2.496  14.443  0.6856 -1.0949 -0.1413
 5154TIP3   OH236952   1.353   2.120   5.317 -0.1229 -0.2069  0.6142
 5154TIP3    H136953   1.370   2.157   5.230  0.3918 -0.4722  0.5999
 5154TIP3    H236954   1.294   2.047   5.300 -0.8475  0.3686  0.6035
 5155TIP3   OH236955   0.526   6.669   5.292  0.1864 -0.0470  0.5767
 5155TIP3    H136956   0.558   6.605   5.229 -0.4135  0.5741 -0.3783
 5155TIP3    H236957   0.481   6.735   5.239 -0.8152  0.2051  1.6944
 5156TIP3   OH236958   4.230   6.732  11.028 -0.0375 -0.2290 -0.3583
 5156TIP3    H136959   4.272   6.794  10.969  3.3137  0.8647  2.8073
 5156TIP3    H236960   4.295   6.663  11.041 -0.6608 -0.4747  1.9261
 5157TIP3   OH236961   3.509   5.168  12.254 -0.1394 -0.5912 -0.2571
 5157TIP3    H136962   3.586   5.219  12.279 -0.4637  0.0851 -0.6070
 5157TIP3    H236963   3.543   5.083  12.229  0.3716 -0.6991  0.7765
 5158TIP3   OH236964   1.434   0.557  14.062  0.2218  0.0350 -0.6925
 5158TIP3    H136965   1.482   0.533  13.983 -1.3714 -0.7450 -1.4551
 5158TIP3    H236966   1.501   0.565  14.130  1.3874 -1.2608 -1.6653
 5159TIP3   OH236967   4.150   6.376   1.585  0.2167 -0.0749  0.0761
 5159TIP3    H136968   4.064   6.334   1.589  0.6190 -0.8603  0.9362
 5159TIP3    H236969   4.211   6.307   1.614  1.1467  0.4221 -0.6606
 5160TIP3   OH236970   4.178   2.290  12.741  0.3411  0.4707  0.1504
 5160TIP3    H136971   4.158   2.258  12.829 -1.0564  1.2164  0.1238
 5160TIP3    H236972   4.259   2.339  12.751  0.6721 -0.1915  0.8365
 5161TIP3   OH236973   3.823   2.410   0.341  0.0992 -1.5372  0.4515
 5161TIP3    H136974   3.827   2.380   0.431 -0.2218 -0.6270  0.7823
 5161TIP3    H236975   3.742   2.462   0.336  1.1585  0.1903  0.2233
 5162TIP3   OH236976   2.245   3.708   4.712 -0.0814 -0.0475 -0.8891
 5162TIP3    H136977   2.198   3.625   4.704 -2.3945  1.0907 -0.1356
 5162TIP3    H236978   2.204   3.765   4.646 -0.2768  1.2065  0.2683
 5163TIP3   OH236979   1.285   5.761   1.382 -0.0499  0.2053 -0.1700
 5163TIP3    H136980   1.241   5.788   1.301 -0.2957 -0.2922 -0.2009
 5163TIP3    H236981   1.216   5.763   1.449 -0.2830 -1.1647 -0.3367
 5164TIP3   OH236982   0.151   2.644  13.290  0.2434  0.2311 -0.7258
 5164TIP3    H136983   0.141   2.714  13.354  1.7744  1.3869 -1.6555
 5164TIP3    H236984   0.111   2.679  13.210 -0.3319 -0.5821 -0.7969
 5165TIP3   OH236985   5.855   5.751  15.484 -0.5568 -0.5707 -0.1593
 5165TIP3    H136986   5.843   5.780  15.574 -0.0961  1.1244 -0.5950
 5165TIP3    H236987   5.938   5.703  15.484  0.7076  1.5136 -0.0855
 5166TIP3   OH236988   1.275   0.810  10.685 -0.0899  0.1754  0.6626
 5166TIP3    H136989   1.213   0.738  10.695 -0.9729  0.6747 -0.8583
 5166TIP3    H236990   1.327   0.786  10.608 -0.0533  0.9134  0.4510
 5167TIP3   OH236991   6.000   2.923   5.577  0.3176  0.4004 -0.3563
 5167TIP3    H136992   5.944   2.977   5.632  1.3648  0.2136  0.9385
 5167TIP3    H236993   5.939   2.873   5.522 -0.7844  0.2841  0.9237
 5168TIP3   OH236994   2.473   1.677   0.556 -0.0106  0.1708 -0.4249
 5168TIP3    H136995   2.478   1.762   0.513 -1.3588 -0.4016 -1.7893
 5168TIP3    H236996   2.386   1.643   0.534 -0.7393 -0.2659  2.6265
 5169TIP3   OH236997   5.018   3.814   4.417  0.3481 -0.6122 -0.1277
 5169TIP3    H136998   5.018   3.869   4.339  1.4985 -0.5528 -0.1102
 5169TIP3    H236999   4.952   3.747   4.399  1.9238 -1.7942 -2.0629
 5170TIP3   OH237000   2.415   6.175  15.253 -0.2876 -0.5814  0.7539
 5170TIP3    H137001   2.379   6.248  15.303  2.0893  2.3842 -1.4487
 5170TIP3    H237002   2.494   6.149  15.300  0.8589  0.8592 -0.2814
 5171TIP3   OH237003   3.331   0.120   5.434  0.3189  0.2688 -0.1720
 5171TIP3    H137004   3.356   0.070   5.356 -0.4649 -1.4510  0.6197
 5171TIP3    H237005   3.333   0.211   5.406  1.4708 -0.2108 -1.7908
 5172TIP3   OH237006   5.727   3.772  16.435  0.1491  0.0319  0.1893
 5172TIP3    H137007   5.703   3.800  16.523 -0.4713  1.4109 -0.3821
 5172TIP3    H237008   5.678   3.831  16.377 -0.4249 -1.6325 -1.1012
 5173TIP3   OH237009   2.950   0.120   0.181 -0.5894  0.2586 -0.2738
 5173TIP3    H137010   3.021   0.097   0.121 -1.2499 -0.3694 -0.8356
 5173TIP3    H237011   2.932   0.039   0.228  0.3065  0.8863  1.2135
 5174TIP3   OH237012   5.917   3.913  13.140  0.2959  0.2105  0.2132
 5174TIP3    H137013   5.972   3.836  13.126  0.3124  0.1747  0.4735
 5174TIP3    H237014   5.853   3.886  13.206 -0.1913  0.1793 -0.2685
 5175TIP3   OH237015   5.675   3.324   1.983  0.2630 -0.1202  0.1489
 5175TIP3    H137016   5.756   3.375   1.975  1.4938 -1.2617  3.4286
 5175TIP3    H237017   5.677   3.291   2.073 -3.9619 -0.1265  0.4204
 5176TIP3   OH237018   5.430   6.733   2.189  0.5764 -0.1759 -0.1940
 5176TIP3    H137019   5.479   6.815   2.194  1.5581 -0.7514 -0.1258
 5176TIP3    H237020   5.393   6.722   2.277 -1.6239  1.3934 -0.8315
 5177TIP3   OH237021   0.325   6.066  14.252  0.2001  0.2420  0.6085
 5177TIP3    H137022   0.230   6.067  14.239  0.3499 -0.7662 -0.8803
 5177TIP3    H237023   0.345   5.974  14.271  0.9201  0.3549  0.4122
 5178TIP3   OH237024   5.753   0.185  13.490  0.2064  0.2966 -0.7167
 5178TIP3    H137025   5.670   0.224  13.517  0.1247  0.9519 -1.8348
 5178TIP3    H237026   5.817   0.255  13.501  0.3006  0.3385 -1.4554
 5179TIP3   OH237027   1.911   4.295  13.955  0.6476  0.5121  0.1115
 5179TIP3    H137028   1.830   4.337  13.925  1.8949  1.4036 -2.3194
 5179TIP3    H237029   1.917   4.318  14.048 -1.7241  0.6281  0.3116
 5180TIP3   OH237030   3.710   1.018  12.546 -0.3686 -0.2789 -0.0789
 5180TIP3    H137031   3.618   0.995  12.531 -0.2936 -0.7501  0.1644
 5180TIP3    H237032   3.713   1.113  12.536 -1.4506  0.1255  2.6892
 5181TIP3   OH237033   3.641   1.485   3.570 -0.2928  0.4073  0.2693
 5181TIP3    H137034   3.645   1.441   3.655  2.0220  0.1502  0.0905
 5181TIP3    H237035   3.697   1.433   3.513 -0.8264  1.2639 -1.0938
 5182TIP3   OH237036   2.647   1.511  16.705  0.3057  0.4769 -0.2949
 5182TIP3    H137037   2.703   1.479  16.635 -1.6938 -0.8171 -1.4279
 5182TIP3    H237038   2.606   1.589  16.670  0.0910  0.4221 -0.1711
 5183TIP3   OH237039   3.069   0.032   0.856  0.0557  0.0299 -0.8120
 5183TIP3    H137040   3.064   0.128   0.859 -0.4881 -0.0198  1.6474
 5183TIP3    H237041   3.061   0.005   0.947  1.2500 -2.3338 -1.3425
 5184TIP3   OH237042   3.353   0.218   0.582  0.1912 -0.3716 -0.2763
 5184TIP3    H137043   3.375   0.300   0.627 -1.9976 -0.4129  1.0095
 5184TIP3    H237044   3.261   0.229   0.557 -0.3943 -2.6989  0.6109
 5185TIP3   OH237045   1.762   2.686   2.387  0.5438  0.4913 -0.4438
 5185TIP3    H137046   1.748   2.617   2.452 -0.7508  0.3272 -0.8623
 5185TIP3    H237047   1.827   2.744   2.427  0.4940 -0.1297  0.5806
 5186TIP3   OH237048   5.852   1.870   6.565 -1.0599  0.1318 -0.1787
 5186TIP3    H137049   5.883   1.932   6.499  1.9595 -0.9959 -0.0074
 5186TIP3    H237050   5.891   1.902   6.647 -2.0606 -0.2739  0.4737
 5187TIP3   OH237051   6.147   2.234   4.349  0.1060 -0.2709  0.2224
 5187TIP3    H137052   6.070   2.248   4.404 -0.7166  0.4471 -1.0543
 5187TIP3    H237053   6.113   2.190   4.271  0.6360  1.5578 -1.1348
 5188TIP3   OH237054   3.127   0.889  11.874 -0.0448 -0.1664  0.4569
 5188TIP3    H137055   3.067   0.959  11.848 -2.5887 -1.5963  2.0446
 5188TIP3    H237056   3.142   0.839  11.794 -2.3537 -0.6773  0.2720
 5189TIP3   OH237057   4.459   4.807  16.624 -0.2263 -0.0235 -0.6868
 5189TIP3    H137058   4.548   4.825  16.654 -0.2683 -1.2656  0.2655
 5189TIP3    H237059   4.471   4.752  16.546 -0.1496 -0.7821 -0.1508
 5190TIP3   OH237060   0.887   6.653  12.586  0.1859  0.1893  0.4788
 5190TIP3    H137061   0.794   6.630  12.592  0.4701 -1.5039 -0.6385
 5190TIP3    H237062   0.892   6.713  12.511  0.0732 -0.3259  0.0510
 5191TIP3   OH237063   4.512   3.630  17.162 -0.0853 -0.0904 -0.2879
 5191TIP3    H137064   4.501   3.663  17.251  2.6370 -0.5838  0.2988
 5191TIP3    H237065   4.450   3.557  17.157 -1.3385  0.8573  0.6562
 5192TIP3   OH237066   6.575   4.244  13.086 -0.1365 -0.5458 -0.4532
 5192TIP3    H137067   6.498   4.264  13.033 -1.1142 -1.4018  0.5869
 5192TIP3    H237068   6.647   4.243  13.023 -1.2154 -1.2860 -1.7502
 5193TIP3   OH237069   5.927   5.100  15.569 -0.6853  0.2263 -0.2570
 5193TIP3    H137070   5.903   5.151  15.646  0.8077  3.4163 -1.7153
 5193TIP3    H237071   5.861   5.122  15.504  0.3405  0.8308 -1.1157
 5194TIP3   OH237072   6.659   2.183   4.333  0.0479 -0.8239 -0.3204
 5194TIP3    H137073   6.748   2.219   4.335 -0.5178  0.6223  0.0534
 5194TIP3    H237074   6.619   2.212   4.415 -1.3624  0.1645 -1.3080
 5195TIP3   OH237075   0.201   6.374  11.804  0.6003 -0.1622  0.4543
 5195TIP3    H137076   0.285   6.365  11.850  0.3572 -3.5978  0.4964
 5195TIP3    H237077   0.146   6.306  11.843 -1.1382 -0.1194 -1.7737
 5196TIP3   OH237078   6.139   4.738   4.639 -0.0397 -0.1495  0.4031
 5196TIP3    H137079   6.163   4.827   4.612  0.9217  0.4649  2.9760
 5196TIP3    H237080   6.215   4.707   4.690 -1.0149 -1.8008  0.9281
 5197TIP3   OH237081   4.015   5.207  10.704 -0.0488 -0.0177  0.5889
 5197TIP3    H137082   3.924   5.182  10.688 -0.2864  1.8050 -1.3628
 5197TIP3    H237083   4.011   5.301  10.722  1.4682  0.1102  0.3781
 5198TIP3   OH237084   0.526   4.524  14.292  0.5526  0.0018 -0.3688
 5198TIP3    H137085   0.568   4.485  14.368  1.0117  2.3875  0.7115
 5198TIP3    H237086   0.596   4.571  14.247  0.0557 -0.4298 -1.6461
 5199TIP3   OH237087   0.795   5.290   1.197 -0.4394 -0.2550  0.2091
 5199TIP3    H137088   0.708   5.329   1.201 -0.1304  0.3443  1.9259
 5199TIP3    H237089   0.842   5.327   1.272  1.2700 -0.6334 -0.6167
 5200TIP3   OH237090   0.466   1.888  10.564  0.0219  0.4701  0.5087
 5200TIP3    H137091   0.422   1.949  10.504  0.3845  0.1722 -0.0717
 5200TIP3    H237092   0.395   1.847  10.613 -0.5060 -0.9753 -1.3233
 5201TIP3   OH237093   6.395   0.850  15.581 -0.0134  0.2607 -0.2318
 5201TIP3    H137094   6.475   0.801  15.562 -0.9639 -2.0196  1.1499
 5201TIP3    H237095   6.339   0.835  15.506  0.3105  0.6799 -0.5656
 5202TIP3   OH237096   5.332   4.870   4.475  0.2741 -0.0035  0.7833
 5202TIP3    H137097   5.393   4.943   4.467  1.0307 -0.6762  0.0944
 5202TIP3    H237098   5.356   4.828   4.558  0.6624 -0.1658  0.5966
 5203TIP3   OH237099   0.529   4.830  14.087 -0.5863  0.2778 -0.1839
 5203TIP3    H137100   0.453   4.860  14.136 -0.2764 -0.0500  0.5172
 5203TIP3    H237101   0.598   4.821  14.153 -0.3799 -0.9412 -0.5430
 5204TIP3   OH237102   1.170   2.780   6.130  0.1118  0.1458 -0.3963
 5204TIP3    H137103   1.264   2.769   6.120 -0.2719 -2.3469 -2.2252
 5204TIP3    H237104   1.160   2.852   6.193  3.1892 -0.4554  0.9228
 5205TIP3   OH237105   3.199   5.416  13.748  0.1844  0.0785  0.0973
 5205TIP3    H137106   3.267   5.350  13.733  0.7879  0.5656  0.5991
 5205TIP3    H237107   3.153   5.423  13.665  2.6216  1.8395 -1.2415
 5206TIP3   OH237108   3.500   0.944  15.567 -0.2684 -0.4417  0.0048
 5206TIP3    H137109   3.466   0.867  15.520  1.6716 -0.4842 -1.4670
 5206TIP3    H237110   3.436   1.013  15.548 -1.1524 -1.2487 -0.0686
 5207TIP3   OH237111   4.425   2.941  15.638 -0.3016 -0.2891  0.6670
 5207TIP3    H137112   4.453   2.964  15.549  0.9512 -0.4889  0.9872
 5207TIP3    H237113   4.418   2.846  15.637  0.1773 -0.3291  0.9031
 5208TIP3   OH237114   1.882   4.963  10.867  0.0301 -0.6482 -0.0430
 5208TIP3    H137115   1.891   4.868  10.866  1.0445 -0.5656 -0.2763
 5208TIP3    H237116   1.807   4.981  10.810 -0.6120 -1.3390  0.5605
 5209TIP3   OH237117   5.573   5.770  13.515  0.0555 -0.0422  0.1026
 5209TIP3    H137118   5.520   5.776  13.436 -0.8841  0.0788  0.7292
 5209TIP3    H237119   5.543   5.842  13.570  2.7353  1.7603 -0.5924
 5210TIP3   OH237120   5.202   5.490  11.818 -0.6208  0.1498 -0.3894
 5210TIP3    H137121   5.273   5.460  11.874  0.4596  0.4370 -1.5689
 5210TIP3    H237122   5.131   5.428  11.835 -0.1758 -0.0160  0.9570
 5211TIP3   OH237123   2.808   2.224   3.968 -0.5518 -0.3166  0.5740
 5211TIP3    H137124   2.756   2.219   4.047  0.8717 -1.7677  1.4874
 5211TIP3    H237125   2.792   2.312   3.933 -0.9459  0.4797  2.6462
 5212TIP3   OH237126   3.970   6.603   6.029  0.7179  0.5001  0.5069
 5212TIP3    H137127   3.995   6.535   6.092  0.5524  1.2051  1.3640
 5212TIP3    H237128   4.015   6.682   6.060  1.4854  0.6449 -0.8754
 5213TIP3   OH237129   3.301   1.669   5.087 -0.4539  0.7152  0.2202
 5213TIP3    H137130   3.282   1.743   5.145  0.7936  0.9911  0.3119
 5213TIP3    H237131   3.307   1.709   5.000 -1.4497  0.4401  0.0133
 5214TIP3   OH237132   0.843   3.508  13.203  0.1910 -0.2837 -0.3386
 5214TIP3    H137133   0.826   3.484  13.112 -0.0772  1.1516 -0.6914
 5214TIP3    H237134   0.936   3.533  13.204 -0.1532  1.0340 -0.5366
 5215TIP3   OH237135   0.690   4.803   0.786  0.2090 -0.0677 -0.6997
 5215TIP3    H137136   0.696   4.760   0.701 -1.4056 -0.0612 -0.8537
 5215TIP3    H237137   0.669   4.894   0.766 -0.9169 -0.2192 -0.3201
 5216TIP3   OH237138   5.140   5.095  14.698  0.1314 -0.2425 -0.1796
 5216TIP3    H137139   5.079   5.154  14.653 -0.1672 -0.8967 -0.6467
 5216TIP3    H237140   5.214   5.087  14.638 -0.0559 -0.7451 -0.3414
 5217TIP3   OH237141   3.647   2.468   1.160 -0.1706  0.2512 -0.6183
 5217TIP3    H137142   3.642   2.373   1.154  0.7732  0.2723 -3.1355
 5217TIP3    H237143   3.560   2.498   1.137 -0.0752  0.0058 -1.3186
 5218TIP3   OH237144   3.336   2.184  15.504 -0.2286 -0.1467 -0.0826
 5218TIP3    H137145   3.395   2.156  15.575  0.5261 -1.3747 -1.1616
 5218TIP3    H237146   3.249   2.157  15.534  0.3520 -2.9778 -0.6482
 5219TIP3   OH237147   1.124   0.884   0.286 -0.0498  0.2384  0.3331
 5219TIP3    H137148   1.049   0.838   0.248  0.1014  0.9725 -0.9099
 5219TIP3    H237149   1.086   0.938   0.356 -0.4695 -0.4554  0.6493
 5220TIP3   OH237150   0.253   4.898  12.196  0.4436  0.0935  0.0262
 5220TIP3    H137151   0.328   4.862  12.147 -0.3530 -1.1810 -0.3283
 5220TIP3    H237152   0.280   4.986  12.220  2.2275 -0.4674  0.2758
 5221TIP3   OH237153   6.124   0.798  12.664  0.3357  0.4426  0.3346
 5221TIP3    H137154   6.139   0.748  12.583  0.5488  0.1237  0.5681
 5221TIP3    H237155   6.210   0.832  12.687  0.3177  0.3414  0.5511
 5222TIP3   OH237156   1.216   2.300   5.515  0.1928 -0.4807 -0.1924
 5222TIP3    H137157   1.242   2.244   5.442 -1.1346 -1.8498  0.3416
 5222TIP3    H237158   1.253   2.256   5.592 -2.1887 -1.5970  0.4088
 5223TIP3   OH237159   5.274   4.186  12.030  0.0768 -0.0434  0.0329
 5223TIP3    H137160   5.287   4.260  12.089 -2.3252  0.4843  0.0254
 5223TIP3    H237161   5.296   4.220  11.944 -1.2947  0.8270 -0.0125
 5224TIP3   OH237162   3.232   2.678  10.335  0.2286  0.2575  0.2467
 5224TIP3    H137163   3.194   2.717  10.256  1.7480  0.5506 -0.3933
 5224TIP3    H237164   3.160   2.673  10.397 -0.7507  1.0884 -0.7773
 5225TIP3   OH237165   1.412   2.953   0.721  0.6465  0.5277 -0.1224
 5225TIP3    H137166   1.317   2.948   0.707  0.9621  0.6953 -2.6895
 5225TIP3    H237167   1.424   3.030   0.775 -0.7082  0.1912  0.7222
 5226TIP3   OH237168   4.711   4.271   2.626 -0.4390 -0.2969 -0.0400
 5226TIP3    H137169   4.769   4.336   2.588 -0.1965  0.5511  1.6866
 5226TIP3    H237170   4.769   4.212   2.676 -0.8998 -0.2816  0.5348
 5227TIP3   OH237171   4.105   3.806   1.436 -0.5743 -0.4775  0.3473
 5227TIP3    H137172   4.141   3.757   1.362 -0.0312 -2.3033  1.7553
 5227TIP3    H237173   4.118   3.898   1.412  1.6671 -1.0216 -0.8481
 5228TIP3   OH237174   5.900   6.016  11.016  0.6374 -0.0573  0.2951
 5228TIP3    H137175   5.842   6.036  10.943 -1.2496 -0.4325  1.6069
 5228TIP3    H237176   5.965   6.086  11.016 -0.1982  0.7426 -0.8363
 5229TIP3   OH237177   0.233   5.997  11.164 -0.0658 -0.2722 -0.1513
 5229TIP3    H137178   0.274   6.081  11.142 -0.6292  0.0631  0.0583
 5229TIP3    H237179   0.167   6.019  11.229 -0.1681 -0.8939 -0.0361
 5230TIP3   OH237180   6.078   3.632  13.344 -0.5070  0.1602 -0.2568
 5230TIP3    H137181   6.161   3.680  13.339  0.2202 -0.9726  0.3012
 5230TIP3    H237182   6.025   3.681  13.406 -0.8903  1.7838 -1.8099
 5231TIP3   OH237183   1.206   3.189   2.491 -0.0040 -0.0551  0.4005
 5231TIP3    H137184   1.275   3.242   2.532 -0.4503 -0.0981  1.2317
 5231TIP3    H237185   1.248   3.149   2.416  0.2703  1.7388 -0.4551
 5232TIP3   OH237186   2.461   3.310   1.101 -0.6028  0.1076  0.3502
 5232TIP3    H137187   2.499   3.390   1.138  0.6374 -0.6002  0.6971
 5232TIP3    H237188   2.483   3.242   1.165  0.8504 -0.9999 -1.2117
 5233TIP3   OH237189   3.830   0.067  17.064  0.4552 -0.0824  0.2543
 5233TIP3    H137190   3.762   0.135  17.061  0.3302 -0.2459 -0.7797
 5233TIP3    H237191   3.821   0.020  16.981  1.7116 -0.2345  0.1970
 5234TIP3   OH237192   1.118   4.500   4.158  0.2153  0.4947  0.5294
 5234TIP3    H137193   1.166   4.493   4.240  0.8453 -0.4266  0.1026
 5234TIP3    H237194   1.167   4.563   4.106  2.3163 -1.9894 -0.7417
 5235TIP3   OH237195   1.380   6.076   2.953 -0.0123 -0.0830  0.3438
 5235TIP3    H137196   1.426   6.029   3.022  1.8290  1.4076  0.2080
 5235TIP3    H237197   1.393   6.021   2.875  0.0172 -0.5490  0.6676
 5236TIP3   OH237198   0.636   2.966   3.400  0.3643  0.1627 -0.2079
 5236TIP3    H137199   0.553   2.928   3.429  0.5810  0.5418  0.9913
 5236TIP3    H237200   0.612   3.021   3.325 -0.1440 -1.2586 -1.1234
 5237TIP3   OH237201   1.791   4.388  13.206  0.3895  0.1127  0.1270
 5237TIP3    H137202   1.705   4.428  13.189 -0.0997 -1.0036 -0.0936
 5237TIP3    H237203   1.854   4.453  13.174 -0.4192 -0.0023 -1.8313
 5238TIP3   OH237204   6.805   0.307  16.688  0.7778  0.8417  0.0950
 5238TIP3    H137205   6.818   0.381  16.629 -0.0941  0.9539  0.0233
 5238TIP3    H237206   6.809   0.345  16.776 -0.6393  1.1628  0.0400
 5239TIP3   OH237207   4.303   3.342   1.466 -0.6143 -0.6123 -0.3590
 5239TIP3    H137208   4.257   3.424   1.451 -0.4020 -0.4466 -0.1284
 5239TIP3    H237209   4.288   3.323   1.559 -1.0997 -1.1096 -0.5303
 5240TIP3   OH237210   3.661   0.323   0.540  0.3833  0.0305  0.2195
 5240TIP3    H137211   3.730   0.332   0.475 -0.7127 -0.9150 -1.1227
 5240TIP3    H237212   3.624   0.236   0.524 -0.7832  0.3178  1.2302
 5241TIP3   OH237213   0.655   4.807  16.629 -0.6276 -0.3236  0.0744
 5241TIP3    H137214   0.577   4.786  16.577 -1.4274 -2.2447  1.9080
 5241TIP3    H237215   0.652   4.903  16.638 -1.4666 -0.1235 -1.8013
 5242TIP3   OH237216   4.153   1.764   5.090  0.2380 -0.0931 -0.0186
 5242TIP3    H137217   4.196   1.763   5.176  0.4154  0.8023 -0.0820
 5242TIP3    H237218   4.142   1.857   5.070  0.6782 -0.2828 -1.2095
 5243TIP3   OH237219   0.292   1.686   3.438 -0.5271 -0.3219 -0.0617
 5243TIP3    H137220   0.316   1.779   3.440  0.1414 -0.3548 -2.7105
 5243TIP3    H237221   0.197   1.686   3.448 -0.7984  0.8791 -2.1045
 5244TIP3   OH237222   4.488   5.821  10.845  0.2492  0.2360 -0.2215
 5244TIP3    H137223   4.454   5.910  10.852  1.8532  0.8496 -0.0280
 5244TIP3    H237224   4.509   5.810  10.752  1.6406  0.6785  0.0263
 5245TIP3   OH237225   2.820   0.729   6.191  0.3278 -0.0483 -0.4794
 5245TIP3    H137226   2.787   0.681   6.115 -1.1801  0.4025 -0.1379
 5245TIP3    H237227   2.870   0.802   6.153  1.6180 -1.1511 -1.0014
 5246TIP3   OH237228   5.395   5.428  16.058  0.1727  0.6262  0.3004
 5246TIP3    H137229   5.430   5.508  16.097 -1.3977  2.0717 -1.1167
 5246TIP3    H237230   5.448   5.414  15.980  0.0617  0.6416  0.2214
 5247TIP3   OH237231   1.891   1.332  13.431 -0.1918  0.3978 -0.7587
 5247TIP3    H137232   1.967   1.370  13.475  1.5128  0.4521 -3.5059
 5247TIP3    H237233   1.817   1.386  13.459  0.9445  1.1075  1.0672
 5248TIP3   OH237234   6.096   0.312  13.895  0.4553 -0.4133  0.2368
 5248TIP3    H137235   6.077   0.262  13.815  0.4221 -1.2532  0.7519
 5248TIP3    H237236   6.103   0.403  13.866 -1.5378 -0.4265 -0.4187
 5249TIP3   OH237237   3.493   4.670   3.398  1.0027 -0.0798 -0.0291
 5249TIP3    H137238   3.403   4.688   3.370  0.3092 -0.5272  1.7365
 5249TIP3    H237239   3.485   4.595   3.457  2.6979 -0.8009 -0.6332
 5250TIP3   OH237240   1.044   5.799  12.190 -0.0408  0.0854 -0.1624
 5250TIP3    H137241   0.990   5.813  12.112 -1.1259 -0.4780  0.4630
 5250TIP3    H237242   1.036   5.881  12.239 -0.1052  0.1074 -0.2096
 5251TIP3   OH237243   5.973   5.469   5.417  0.1308 -0.4378  0.1760
 5251TIP3    H137244   6.009   5.541   5.365 -2.4421  1.2343  0.5401
 5251TIP3    H237245   5.920   5.512   5.484  0.2018 -2.6599  1.7638
 5252TIP3   OH237246   2.516   2.668  14.242  0.1256  0.0172 -0.0368
 5252TIP3    H137247   2.462   2.689  14.167  0.9233  2.0867 -0.0947
 5252TIP3    H237248   2.457   2.623  14.303 -1.1820  0.5717 -0.8541
 5253TIP3   OH237249   0.588   5.163  11.118 -0.0121 -0.0748  0.4413
 5253TIP3    H137250   0.671   5.193  11.082 -0.6432 -0.5281 -1.5452
 5253TIP3    H237251   0.570   5.222  11.191  2.1087 -0.0860  1.0111
 5254TIP3   OH237252   5.165   4.510   1.543  0.5971  0.4720 -0.4133
 5254TIP3    H137253   5.234   4.449   1.571  1.9306  2.2487  0.3302
 5254TIP3    H237254   5.135   4.551   1.625  1.2246  2.3228 -1.0672
 5255TIP3   OH237255   3.160   6.425  13.678  0.2005 -0.1037 -0.6524
 5255TIP3    H137256   3.231   6.362  13.685  0.7133  0.5043 -0.3160
 5255TIP3    H237257   3.204   6.510  13.669 -0.4248  0.5713  1.8686
 5256TIP3   OH237258   2.369   1.533  13.303 -0.5651 -0.4064 -0.2293
 5256TIP3    H137259   2.416   1.559  13.382 -0.1744 -2.7928  0.4006
 5256TIP3    H237260   2.298   1.596  13.295  1.6512  2.2531 -0.2216
 5257TIP3   OH237261   4.630   3.296  11.584  0.1528 -0.0633  0.2340
 5257TIP3    H137262   4.659   3.206  11.595 -0.8145 -0.3983  0.0626
 5257TIP3    H237263   4.556   3.306  11.644  0.1336  0.5593  0.1149
 5258TIP3   OH237264   0.521   5.184   4.029  0.0540 -0.1997 -0.0670
 5258TIP3    H137265   0.485   5.100   4.001  1.0806 -0.4976 -0.5481
 5258TIP3    H237266   0.505   5.243   3.955 -0.7804  0.0677  0.3214
 5259TIP3   OH237267   1.556   5.505  11.493 -0.1874  0.2488  0.3695
 5259TIP3    H137268   1.464   5.481  11.486 -0.1331  0.2621 -0.4642
 5259TIP3    H237269   1.596   5.435  11.544  0.0299 -1.6483 -2.1969
 5260TIP3   OH237270   6.667   1.895  13.249 -0.0554 -0.0749  0.0007
 5260TIP3    H137271   6.669   1.897  13.345 -1.2949  2.8711  0.0741
 5260TIP3    H237272   6.751   1.857  13.224  0.1259 -1.3260  2.2422
 5261TIP3   OH237273   4.789   3.517   3.419 -0.5201 -0.3451 -0.0278
 5261TIP3    H137274   4.849   3.527   3.346  0.1426 -1.4370  0.3460
 5261TIP3    H237275   4.703   3.540   3.383 -0.0335  0.2185 -0.8407
 5262TIP3   OH237276   5.944   0.535   5.552 -0.6742 -0.1163 -0.0819
 5262TIP3    H137277   5.939   0.582   5.469  0.6028  0.7754  0.3186
 5262TIP3    H237278   5.913   0.598   5.617  1.5935  0.4522  0.5382
 5263TIP3   OH237279   6.201   1.277   2.208  0.4529 -0.3651  0.0223
 5263TIP3    H137280   6.153   1.199   2.236  1.2051 -0.7829  0.1914
 5263TIP3    H237281   6.279   1.242   2.165  0.4275  0.2967 -0.5577
 5264TIP3   OH237282   5.834   0.053   1.502  0.2742 -0.0226 -0.2561
 5264TIP3    H137283   5.875   0.108   1.569  0.7929 -0.5025 -0.1716
 5264TIP3    H237284   5.815  -0.029   1.547  0.9028 -0.4580 -0.7702
 5265TIP3   OH237285   5.459   4.667   3.314  0.2925 -0.3118  0.3929
 5265TIP3    H137286   5.554   4.668   3.316  0.3046 -0.9475  0.3875
 5265TIP3    H237287   5.433   4.629   3.398  0.0452 -0.1516  0.3914
 5266TIP3   OH237288   0.286   4.115   1.395  1.1482 -0.1217 -0.3968
 5266TIP3    H137289   0.339   4.181   1.441  2.5913 -2.0280  0.8385
 5266TIP3    H237290   0.335   4.097   1.315  1.2667 -0.3744 -0.2687
 5267TIP3   OH237291   3.221   2.141  14.790 -0.5556  0.0390  0.0968
 5267TIP3    H137292   3.265   2.170  14.710  0.7542  1.6523  1.3559
 5267TIP3    H237293   3.281   2.163  14.861 -2.8922  1.3911  1.8163
 5268TIP3   OH237294   6.043   0.449   3.641 -0.2740  0.2178  0.7517
 5268TIP3    H137295   6.108   0.381   3.662 -0.1350  0.1645  0.1738
 5268TIP3    H237296   6.090   0.532   3.654  0.1901  0.1704 -0.4903
 5269TIP3   OH237297   6.317   6.777  10.923 -0.1010 -0.3314 -0.4303
 5269TIP3    H137298   6.279   6.728  10.850  0.7103 -1.1947 -0.2858
 5269TIP3    H237299   6.253   6.768  10.993 -1.6589  1.8288 -1.4703
 5270TIP3   OH237300   4.396   3.373  17.018  0.3036 -0.2504  0.3507
 5270TIP3    H137301   4.416   3.375  16.925 -2.6460 -1.7038 -0.4156
 5270TIP3    H237302   4.427   3.288  17.048  0.8929  0.0571  0.6424
 5271TIP3   OH237303   2.376   5.521   0.043  0.1762  0.0672  0.4218
 5271TIP3    H137304   2.352   5.441  -0.005 -0.1901 -0.4485  1.4207
 5271TIP3    H237305   2.294   5.570   0.049  0.5876  0.9837 -0.9861
 5272TIP3   OH237306   0.514   4.530  12.827 -0.1329 -0.8415 -0.2287
 5272TIP3    H137307   0.542   4.496  12.912 -0.8117 -0.7362  0.0450
 5272TIP3    H237308   0.522   4.625  12.835  3.3688 -0.9016 -1.5518
 5273TIP3   OH237309   5.190   2.417   5.648 -0.0862  0.0280  0.0668
 5273TIP3    H137310   5.234   2.470   5.582 -1.2536  1.7668  0.6120
 5273TIP3    H237311   5.198   2.468   5.729  1.5041 -2.1413  1.3878
 5274TIP3   OH237312   4.855   6.393   1.893 -0.6946  0.3089  0.5160
 5274TIP3    H137313   4.910   6.466   1.867 -0.7812 -0.2038 -1.2629
 5274TIP3    H237314   4.773   6.433   1.922 -0.7268  0.9305 -0.3932
 5275TIP3   OH237315   2.454   6.627   4.356  0.2614 -0.0895 -0.3779
 5275TIP3    H137316   2.403   6.617   4.276  0.0197 -1.1355 -0.1099
 5275TIP3    H237317   2.539   6.587   4.336 -1.0419 -4.1068  1.0178
 5276TIP3   OH237318   0.784   1.093   3.052 -0.2201  0.4500 -0.2160
 5276TIP3    H137319   0.737   1.078   2.970 -0.3925  1.0364 -0.2298
 5276TIP3    H237320   0.746   1.029   3.113 -0.6640  0.5590 -0.3725
 5277TIP3   OH237321   1.825   5.812  16.034 -0.2466  0.1513 -0.2982
 5277TIP3    H137322   1.867   5.898  16.041 -0.1710  0.0193  1.1635
 5277TIP3    H237323   1.784   5.812  15.948 -0.4846  1.7662 -0.2135
 5278TIP3   OH237324   1.248   0.085   5.767  0.0972  0.1853 -0.3485
 5278TIP3    H137325   1.206   0.080   5.681  0.7897 -1.2604 -0.6276
 5278TIP3    H237326   1.341   0.098   5.748 -0.0088  2.2102  0.2514
 5279TIP3   OH237327   6.465   4.757  12.269 -0.3884  0.4543 -0.1310
 5279TIP3    H137328   6.431   4.770  12.180  0.1183 -0.5724 -0.4918
 5279TIP3    H237329   6.559   4.774  12.261  0.0079 -1.5207 -0.2539
 5280TIP3   OH237330   1.965   3.855   0.644 -0.5218 -0.1367  0.4344
 5280TIP3    H137331   1.990   3.943   0.673 -0.5318 -0.1313  0.4266
 5280TIP3    H237332   1.917   3.818   0.719 -1.4862  0.2683  0.0259
 5281TIP3   OH237333   0.627   5.122   1.362  0.2547  0.2762  0.4567
 5281TIP3    H137334   0.703   5.070   1.336 -0.7399 -0.9676 -0.1278
 5281TIP3    H237335   0.663   5.198   1.408  1.8098 -0.5193  0.6115
 5282TIP3   OH237336   1.622   1.932   3.612  0.2934 -0.2009 -0.1487
 5282TIP3    H137337   1.555   1.977   3.664  1.4251 -0.1430  1.3578
 5282TIP3    H237338   1.704   1.955   3.655  1.3677  0.2318 -2.3063
 5283TIP3   OH237339   2.117   5.408  16.474  0.2190  0.6087 -0.4842
 5283TIP3    H137340   2.204   5.380  16.445 -0.4747 -0.4882 -1.5673
 5283TIP3    H237341   2.062   5.331  16.465 -0.6446  0.9503  1.3274
 5284TIP3   OH237342   6.048   0.802   5.459 -0.1512 -0.1060 -0.0137
 5284TIP3    H137343   5.976   0.795   5.523 -1.1343 -2.3935 -1.2118
 5284TIP3    H237344   6.097   0.721   5.470  1.6412  0.9370  0.0126
 5285TIP3   OH237345   5.037   5.382  12.856  0.2120 -0.7279 -0.1516
 5285TIP3    H137346   4.994   5.304  12.819  0.8153 -0.8482 -0.6188
 5285TIP3    H237347   5.082   5.350  12.934  0.5518 -0.8719 -0.4054
 5286TIP3   OH237348   2.613   6.684  15.366  0.7892  0.2419  0.0971
 5286TIP3    H137349   2.699   6.645  15.381  0.9579 -0.3580 -2.0612
 5286TIP3    H237350   2.552   6.612  15.375  0.5390  0.5573  1.0768
 5287TIP3   OH237351   4.646   2.272  14.115 -0.3017 -0.3591  0.2723
 5287TIP3    H137352   4.731   2.277  14.159 -0.2665 -0.3599  0.2035
 5287TIP3    H237353   4.618   2.181  14.126 -0.5060 -0.2523  0.6963
 5288TIP3   OH237354   4.132   3.694   3.888 -0.3207  0.8433 -0.0985
 5288TIP3    H137355   4.183   3.775   3.888  0.1123  0.5866 -1.1940
 5288TIP3    H237356   4.050   3.716   3.844 -0.7836  1.0181  0.8270
 5289TIP3   OH237357   5.080   4.450  17.069 -0.1823 -0.1779 -0.0261
 5289TIP3    H137358   5.073   4.373  17.012 -0.4552 -1.3512  1.5231
 5289TIP3    H237359   5.019   4.513  17.032 -1.3241 -1.3978 -0.3095
 5290TIP3   OH237360   3.776   5.038   3.975 -0.2702 -0.0778  0.0277
 5290TIP3    H137361   3.775   4.968   3.909 -1.1976  0.6243 -0.7227
 5290TIP3    H237362   3.688   5.074   3.973 -0.4867 -0.4018  2.0788
 5291TIP3   OH237363   3.684   1.465  15.358  0.1719 -0.2368 -0.2529
 5291TIP3    H137364   3.733   1.465  15.275  0.6756  1.7073  0.0134
 5291TIP3    H237365   3.654   1.374  15.367  2.2763 -1.1062 -1.2867
 5292TIP3   OH237366   0.550   3.097  12.803 -0.0311 -0.0112 -0.3409
 5292TIP3    H137367   0.543   3.090  12.899  0.6171 -1.4662 -0.3694
 5292TIP3    H237368   0.643   3.113  12.787 -0.3213  1.4282 -0.6992
 5293TIP3   OH237369   6.554   2.260   1.954 -0.1382 -0.2766  0.3675
 5293TIP3    H137370   6.581   2.197   1.888  0.0604 -1.5447  1.6050
 5293TIP3    H237371   6.484   2.310   1.912  0.6171 -0.4046 -1.1042
 5294TIP3   OH237372   2.611   4.295   1.994 -0.1943  0.2951 -0.1432
 5294TIP3    H137373   2.609   4.200   2.006 -2.2040  0.4792  1.4984
 5294TIP3    H237374   2.626   4.307   1.900  3.4285 -1.5433  0.0249
 5295TIP3   OH237375   5.329   4.596  14.592 -0.0389  0.4352  0.3107
 5295TIP3    H137376   5.258   4.656  14.615  0.5540  0.7645  1.3917
 5295TIP3    H237377   5.290   4.508  14.601 -0.0905  0.5778  1.8062
 5296TIP3   OH237378   6.389   4.777  16.540  0.3466  0.1627  0.0980
 5296TIP3    H137379   6.476   4.816  16.531  1.4572 -1.7437  1.6825
 5296TIP3    H237380   6.368   4.787  16.633 -1.2456  0.7468 -0.2878
 5297TIP3   OH237381   4.859   5.640   4.654 -0.0314  0.3280  0.5553
 5297TIP3    H137382   4.885   5.615   4.566  2.1662  2.8614  0.3646
 5297TIP3    H237383   4.789   5.704   4.641 -0.6332 -0.2773  0.7435
 5298TIP3   OH237384   3.326   2.246   4.601 -0.3199  0.2357 -0.2609
 5298TIP3    H137385   3.353   2.197   4.679  0.7075  1.2051  0.0235
 5298TIP3    H237386   3.323   2.337   4.630 -0.9474  0.4882 -1.1005
 5299TIP3   OH237387   6.200   4.379  15.951 -0.2472 -0.0788 -0.0928
 5299TIP3    H137388   6.124   4.366  16.007 -0.4070 -0.9120 -0.4918
 5299TIP3    H237389   6.167   4.435  15.880 -0.4527 -0.3235 -0.1922
 5300TIP3   OH237390   4.572   6.481  13.621  0.2950  0.4030 -0.0512
 5300TIP3    H137391   4.648   6.530  13.651  0.6200 -0.1345  0.0151
 5300TIP3    H237392   4.515   6.474  13.698 -1.3130  3.4626 -0.7950
 5301TIP3   OH237393   0.703   6.039  15.543 -0.5163  0.4633 -0.2802
 5301TIP3    H137394   0.653   6.110  15.502  1.3598  3.9485  2.8134
 5301TIP3    H237395   0.654   6.017  15.622  0.6605  0.9645  0.6273
 5302TIP3   OH237396   6.047   4.961  10.866  0.9769  0.1562  0.7907
 5302TIP3    H137397   6.107   5.024  10.828  2.2551 -0.6619  1.3836
 5302TIP3    H237398   5.978   5.014  10.905  0.7694  1.0718 -0.7551
 5303TIP3   OH237399   2.946   2.189   6.022 -0.0208  0.0706 -0.7784
 5303TIP3    H137400   2.896   2.162   6.099  0.1938 -0.8744 -0.9635
 5303TIP3    H237401   3.024   2.135   6.024 -0.9575 -1.4574 -2.7785
 5304TIP3   OH237402   2.427   1.765   0.193 -0.4567 -0.1375 -0.1066
 5304TIP3    H137403   2.422   1.848   0.147  1.0446 -0.1633 -0.3895
 5304TIP3    H237404   2.339   1.749   0.225 -1.0951  0.8302 -1.3143
 5305TIP3   OH237405   2.376   2.374  12.097 -0.4212  0.4893  0.1660
 5305TIP3    H137406   2.346   2.287  12.123 -1.1463  0.6451 -0.1152
 5305TIP3    H237407   2.451   2.358  12.040 -1.4676 -0.0352 -1.1119
 5306TIP3   OH237408   3.621   6.042  13.488  0.4688 -0.1556  0.1135
 5306TIP3    H137409   3.525   6.042  13.485  0.3894 -1.8770  1.2957
 5306TIP3    H237410   3.643   5.986  13.562  2.4129 -1.3041 -1.2311
 5307TIP3   OH237411   4.819   3.125   1.123 -0.2536 -0.1667 -0.0751
 5307TIP3    H137412   4.879   3.051   1.129 -0.1973  0.0318  2.5369
 5307TIP3    H237413   4.867   3.199   1.159 -1.0627  0.6752 -0.6773
 5308TIP3   OH237414   2.938   4.017  11.957 -0.3423 -0.2520  0.1345
 5308TIP3    H137415   2.926   4.015  11.862  0.4563 -0.3028  0.0263
 5308TIP3    H237416   3.033   4.017  11.969 -0.4232 -1.5966  0.9615
 5309TIP3   OH237417   4.986   0.999   3.903  0.3206  0.2078  0.0350
 5309TIP3    H137418   4.941   0.947   3.835  1.5627 -0.1461 -0.5450
 5309TIP3    H237419   5.028   1.070   3.855  1.4337 -0.1943  0.3929
 5310TIP3   OH237420   3.245   6.016  11.833 -0.4061  0.5024  0.0167
 5310TIP3    H137421   3.174   5.952  11.835 -0.0963  0.1257 -0.5941
 5310TIP3    H237422   3.201   6.101  11.827 -0.8313  0.1979 -2.0452
 5311TIP3   OH237423   3.429   2.034   0.586  0.1480 -0.4790 -0.8575
 5311TIP3    H137424   3.353   2.086   0.614 -0.2348 -1.4358 -0.0724
 5311TIP3    H237425   3.407   1.944   0.609  2.0013 -0.6526  0.4741
 5312TIP3   OH237426   1.378   1.867  11.395  0.1767 -0.0086  0.0563
 5312TIP3    H137427   1.290   1.846  11.426 -0.0951  1.8153  0.6661
 5312TIP3    H237428   1.399   1.798  11.331 -2.9036  1.0501 -2.3505
 5313TIP3   OH237429   1.448   2.329   4.515  0.3094 -0.9232 -0.0434
 5313TIP3    H137430   1.525   2.386   4.511  1.0013 -1.7206  1.3207
 5313TIP3    H237431   1.483   2.240   4.513 -0.5647 -1.3010  0.8276
 5314TIP3   OH237432   6.681   6.437   4.123 -0.5329 -0.0261  0.1273
 5314TIP3    H137433   6.716   6.464   4.208  2.1618 -1.1633 -0.5272
 5314TIP3    H237434   6.608   6.378   4.145 -1.3087  1.3748  1.5743
 5315TIP3   OH237435   5.569   0.382  13.223  0.6496  0.1431  0.9107
 5315TIP3    H137436   5.644   0.340  13.182 -1.6028 -2.0288 -1.3558
 5315TIP3    H237437   5.555   0.334  13.304  1.9656  0.9219  1.6244
 5316TIP3   OH237438   1.376   5.315   5.334  0.2194 -0.2226  0.2488
 5316TIP3    H137439   1.422   5.392   5.366 -0.2203 -0.5534  1.7788
 5316TIP3    H237440   1.286   5.328   5.362  0.2743 -1.5852  1.1751
 5317TIP3   OH237441   5.048   2.802   0.009  0.2700 -0.2113  0.1974
 5317TIP3    H137442   4.984   2.816   0.079 -1.7585 -1.6290 -1.2474
 5317TIP3    H237443   5.122   2.858   0.033 -0.8222  0.2884  2.8013
 5318TIP3   OH237444   6.491   3.578  14.291  0.2634  0.3837  0.4830
 5318TIP3    H137445   6.408   3.551  14.329  0.6382 -0.2023  0.9081
 5318TIP3    H237446   6.468   3.617  14.207 -0.3318 -1.0220 -0.0359
 5319TIP3   OH237447   2.723   6.284   3.700  0.3567 -0.2126  0.4852
 5319TIP3    H137448   2.794   6.348   3.704  1.9859 -1.7681 -1.4357
 5319TIP3    H237449   2.643   6.336   3.705  1.6033  1.7163  1.4225
 5320TIP3   OH237450   3.041   2.483  15.134 -0.8688  0.0059 -0.1298
 5320TIP3    H137451   2.963   2.532  15.109  0.0254  0.8519 -1.4330
 5320TIP3    H237452   3.111   2.549  15.135 -0.3360 -0.4923  2.1276
 5321TIP3   OH237453   6.627   3.341   4.578 -0.0304 -0.9175  0.1676
 5321TIP3    H137454   6.584   3.272   4.528  0.0767 -0.5060 -0.5040
 5321TIP3    H237455   6.702   3.366   4.524 -0.2434 -0.0618  0.2521
 5322TIP3   OH237456   3.029   3.927  14.303  0.1196  0.4807 -0.6174
 5322TIP3    H137457   3.102   3.885  14.349  0.6334  1.5626 -0.4323
 5322TIP3    H237458   3.056   3.931  14.212 -1.2648 -2.4876 -1.3023
 5323TIP3   OH237459   4.481   3.676  16.156  0.1448  0.1953  0.0286
 5323TIP3    H137460   4.521   3.636  16.234  0.4261 -0.9376 -0.6588
 5323TIP3    H237461   4.387   3.658  16.166  0.1736  0.0932  0.1291
 5324TIP3   OH237462   4.253   0.801   2.849 -0.2711  0.1597  0.2267
 5324TIP3    H137463   4.230   0.893   2.833  0.9408  0.1470 -1.8246
 5324TIP3    H237464   4.328   0.805   2.908  0.4340  0.5291 -0.6897
 5325TIP3   OH237465   6.526   1.087  16.854  0.7662 -1.0655 -0.1709
 5325TIP3    H137466   6.519   1.177  16.886  1.9661 -0.7056 -0.8563
 5325TIP3    H237467   6.618   1.064  16.867  0.3763 -2.3706  0.4294
 5326TIP3   OH237468   4.779   5.910  14.237  0.6661 -0.0742  0.5670
 5326TIP3    H137469   4.801   5.825  14.197 -1.4196 -0.6351  0.5044
 5326TIP3    H237470   4.837   5.972  14.194  0.8683 -1.1876 -0.8411
 5327TIP3   OH237471   2.591   6.750   1.667 -0.4951  0.4252  0.1822
 5327TIP3    H137472   2.597   6.669   1.716 -2.8411 -1.1780 -1.9360
 5327TIP3    H237473   2.567   6.816   1.733 -1.2010 -1.1268  1.5491
 5328TIP3   OH237474   2.150   2.418  13.210 -0.2551  0.1464  0.1707
 5328TIP3    H137475   2.213   2.415  13.282 -0.4537 -0.4324  0.3249
 5328TIP3    H237476   2.108   2.333  13.212  0.7422 -0.4264 -1.5354
 5329TIP3   OH237477   6.224   6.095   1.686 -0.3688 -0.6679 -0.2378
 5329TIP3    H137478   6.146   6.083   1.741  1.0918 -0.1716  2.0841
 5329TIP3    H237479   6.296   6.101   1.748  1.3401  0.6533 -2.2192
 5330TIP3   OH237480   0.004   2.982  17.153  0.5713 -0.1507 -0.5891
 5330TIP3    H137481  -0.083   2.980  17.114  1.2180 -0.4038 -2.1020
 5330TIP3    H237482   0.046   2.902  17.120  2.1680  1.1454 -1.9048
 5331TIP3   OH237483   2.689   5.416  13.613  0.4552 -0.1394  0.1949
 5331TIP3    H137484   2.619   5.481  13.617  1.0826  0.5396  0.3073
 5331TIP3    H237485   2.735   5.425  13.697  1.9355  0.8545 -0.6857
 5332TIP3   OH237486   4.130   6.015  14.993  0.2325  0.2807 -0.3081
 5332TIP3    H137487   4.036   5.999  15.004  0.1062  0.4686 -1.0392
 5332TIP3    H237488   4.135   6.103  14.956  0.6924  0.2431 -0.3356
 5333TIP3   OH237489   0.944   0.166  14.735 -0.3687 -0.5740 -0.0913
 5333TIP3    H137490   0.969   0.184  14.644 -2.2762 -1.9296 -0.9723
 5333TIP3    H237491   1.013   0.206  14.788  0.0944  1.4597 -2.0702
 5334TIP3   OH237492   2.664   3.134  14.916  0.0996  0.1270 -0.5192
 5334TIP3    H137493   2.683   3.214  14.964 -0.8662  0.0079  0.1001
 5334TIP3    H237494   2.697   3.150  14.828 -0.7127  1.4861 -0.6027
 5335TIP3   OH237495   1.539   3.790   5.006 -0.1571  0.5782  0.4020
 5335TIP3    H137496   1.599   3.855   5.043 -3.4366  2.6559  2.6335
 5335TIP3    H237497   1.516   3.733   5.080 -2.3290  1.0779  0.1868
 5336TIP3   OH237498   5.315   0.530  15.536  0.3477  0.0535 -0.1737
 5336TIP3    H137499   5.364   0.515  15.455  0.5484  0.8724 -0.2122
 5336TIP3    H237500   5.336   0.620  15.560 -1.4640  0.5642 -0.4113
 5337TIP3   OH237501   2.107   2.357  14.943  0.4835 -0.1286  0.2635
 5337TIP3    H137502   2.107   2.318  14.856  1.2712 -0.5648  0.4434
 5337TIP3    H237503   2.057   2.438  14.934 -0.5174 -0.7935 -0.2973
 5338TIP3   OH237504   1.331   2.825   5.838  0.2471 -0.6016 -0.6109
 5338TIP3    H137505   1.247   2.870   5.833  1.1239  1.0026 -1.4826
 5338TIP3    H237506   1.308   2.733   5.850 -1.5986  0.1165  2.3430
 5339TIP3   OH237507   6.462   5.460   4.225 -0.0884  0.2598  0.6340
 5339TIP3    H137508   6.460   5.422   4.313  0.4459 -0.8550  0.1869
 5339TIP3    H237509   6.546   5.505   4.220 -0.0730  0.2342  0.6625
 5340TIP3   OH237510   2.133   0.789  17.102 -0.4848  0.4338 -0.6108
 5340TIP3    H137511   2.091   0.704  17.109 -0.5600  0.2477 -2.5743
 5340TIP3    H237512   2.226   0.770  17.090 -0.4617  0.6205 -0.7533
 5341TIP3   OH237513   3.933   0.047  11.670 -0.2669  0.2412  0.6197
 5341TIP3    H137514   3.940   0.117  11.605 -0.0776 -0.0158  0.3699
 5341TIP3    H237515   4.006   0.062  11.729  0.2914 -0.2710  0.0663
 5342TIP3   OH237516   6.428   6.426  12.640  0.1910  0.2960 -0.2521
 5342TIP3    H137517   6.502   6.474  12.603  1.4258 -0.9995  0.4477
 5342TIP3    H237518   6.351   6.479  12.617  1.3355  1.7812 -0.8247
 5343TIP3   OH237519   0.919   4.926   5.520 -0.9215 -0.1873 -0.2856
 5343TIP3    H137520   0.833   4.887   5.536 -1.3808  0.8094 -0.2485
 5343TIP3    H237521   0.954   4.878   5.446 -0.6035 -2.0074  0.9692
 5344TIP3   OH237522   2.514   2.129   5.319 -0.1561 -0.3711  0.3545
 5344TIP3    H137523   2.442   2.181   5.354 -1.2323 -2.0518  0.7430
 5344TIP3    H237524   2.497   2.124   5.225  1.8371  2.7550 -0.3236
 5345TIP3   OH237525   5.903   2.247   4.802  0.4276  0.4901 -0.0733
 5345TIP3    H137526   5.886   2.339   4.823  0.9640  0.2914  1.3389
 5345TIP3    H237527   5.853   2.198   4.868  1.1050 -0.1973 -0.0608
 5346TIP3   OH237528   4.706   0.151   2.032  0.1646 -0.0810  1.1169
 5346TIP3    H137529   4.797   0.122   2.027  0.2810  0.1141  2.0001
 5346TIP3    H237530   4.711   0.236   2.077 -0.2115  1.0875 -0.8955
 5347TIP3   OH237531   1.172   5.204   4.901  0.0654  0.1115 -0.0396
 5347TIP3    H137532   1.224   5.239   4.974 -1.0191 -0.9352  1.2905
 5347TIP3    H237533   1.150   5.280   4.848  0.0444  1.0572  1.2871
 5348TIP3   OH237534   6.260   0.956   1.448 -0.1587  1.0121 -0.4612
 5348TIP3    H137535   6.180   0.949   1.499  0.4497  1.0067  0.5236
 5348TIP3    H237536   6.327   0.912   1.501  0.8718  2.5378 -0.4105
 5349TIP3   OH237537   0.297   5.988   1.065 -0.2144 -0.6146  0.3650
 5349TIP3    H137538   0.263   5.922   1.124  1.0014 -1.6434 -0.0335
 5349TIP3    H237539   0.238   6.063   1.074 -1.5595 -1.7205  0.8837
 5350TIP3   OH237540   0.633   3.313  16.319 -0.2950 -0.0940  0.5002
 5350TIP3    H137541   0.685   3.394  16.320 -0.5893  0.2194 -1.8545
 5350TIP3    H237542   0.697   3.244  16.337  0.6334  0.4267 -0.6227
 5351TIP3   OH237543   1.300   1.608  11.489 -0.2054 -0.1754 -0.1793
 5351TIP3    H137544   1.228   1.577  11.543  0.4149 -0.6090  0.4052
 5351TIP3    H237545   1.271   1.592  11.399 -1.2767  0.6202  0.0032
 5352TIP3   OH237546   5.414   2.358  13.254 -0.1024 -0.0004 -0.4135
 5352TIP3    H137547   5.360   2.313  13.189 -0.3644  0.4191 -0.4908
 5352TIP3    H237548   5.429   2.293  13.323  0.9318 -0.7394 -1.3096
 5353TIP3   OH237549   2.388   3.503   0.103  0.0721 -0.2987 -0.1009
 5353TIP3    H137550   2.314   3.451   0.071  2.4922 -3.9177 -0.4321
 5353TIP3    H237551   2.413   3.558   0.029 -0.2527 -1.5383 -1.1777
 5354TIP3   OH237552   5.296   2.909  16.310 -0.5706 -0.2387  0.2023
 5354TIP3    H137553   5.315   2.879  16.221  0.9701 -0.5889  0.6055
 5354TIP3    H237554   5.381   2.937  16.344 -1.3408  1.0875  1.1430
 5355TIP3   OH237555   2.714   1.822  13.898  0.1785 -0.3185 -0.0238
 5355TIP3    H137556   2.746   1.774  13.822  1.1220  0.4711 -0.1415
 5355TIP3    H237557   2.791   1.865  13.934 -0.5649  0.7654  0.3334
 5356TIP3   OH237558   2.142   5.030   3.757  0.1457 -0.4365  0.4223
 5356TIP3    H137559   2.207   5.090   3.792  0.6039 -0.1166 -0.9259
 5356TIP3    H237560   2.094   5.082   3.692 -1.5387 -0.6355  1.4660
 5357TIP3   OH237561   3.853   3.566   5.157 -0.7331 -0.0311  0.3702
 5357TIP3    H137562   3.883   3.598   5.071  2.5765 -3.2214  0.0834
 5357TIP3    H237563   3.923   3.590   5.217 -1.4207 -0.7474  1.4864
 5358TIP3   OH237564   6.448   5.476  13.781  0.0733  0.0453 -0.4118
 5358TIP3    H137565   6.459   5.542  13.849  0.9059 -1.4552  0.9653
 5358TIP3    H237566   6.535   5.466  13.742 -0.0056 -0.3463 -0.4971
 5359TIP3   OH237567   2.978   2.902   5.873 -0.1610 -0.4009 -0.1555
 5359TIP3    H137568   3.068   2.870   5.880  0.2918  1.0502  1.2404
 5359TIP3    H237569   2.930   2.857   5.943  0.3646  1.4158  1.4829
 5360TIP3   OH237570   3.150   0.173  16.733 -0.1653  0.4330  0.0984
 5360TIP3    H137571   3.139   0.259  16.773  0.0521  0.8789 -0.7716
 5360TIP3    H237572   3.176   0.192  16.643  1.9983 -0.5469  0.4556
 5361TIP3   OH237573   4.291   5.389   3.700 -0.4289  0.4905 -0.1952
 5361TIP3    H137574   4.370   5.429   3.736  0.8741  1.9955 -4.1542
 5361TIP3    H237575   4.271   5.317   3.759  3.2683  0.6987  1.5818
 5362TIP3   OH237576   3.666   5.174   3.538  0.3365  0.7097  0.3242
 5362TIP3    H137577   3.724   5.119   3.485  0.7473  0.1866  1.2920
 5362TIP3    H237578   3.637   5.117   3.609 -1.6220  0.8741 -0.2937
 5363TIP3   OH237579   4.733   6.777  13.663  0.0989  0.0739  0.4155
 5363TIP3    H137580   4.726   6.773  13.568  0.3095  2.1797  0.2822
 5363TIP3    H237581   4.815   6.825  13.679  0.8058 -1.4636  1.6966
 5364TIP3   OH237582   4.057   0.981   2.818  0.8435  0.1788 -0.0419
 5364TIP3    H137583   4.023   0.982   2.908 -0.0183  2.3306 -0.3529
 5364TIP3    H237584   3.981   0.959   2.764  0.1569  3.4921 -0.5999
 5365TIP3   OH237585   3.740   1.174  13.000 -0.1394  0.1723 -0.7315
 5365TIP3    H137586   3.795   1.100  13.025 -1.2038 -0.7735 -1.1033
 5365TIP3    H237587   3.802   1.245  12.983  0.8891 -0.5564 -0.1374
 5366TIP3   OH237588   6.449   4.389   4.060 -0.6272  0.3749  0.1415
 5366TIP3    H137589   6.399   4.351   3.988 -1.9857 -1.9520  2.1550
 5366TIP3    H237590   6.537   4.352   4.050 -0.9621 -0.3933 -0.0170
 5367TIP3   OH237591   6.485   1.375  10.728 -0.1136  0.5454 -0.0827
 5367TIP3    H137592   6.573   1.347  10.754  0.0501  0.3493 -0.8363
 5367TIP3    H237593   6.487   1.374  10.632 -1.2215 -0.3543 -0.1138
 5368TIP3   OH237594   4.971   4.175   6.406  0.0154 -0.0935 -0.6025
 5368TIP3    H137595   4.888   4.140   6.372 -0.4461  0.9089 -0.5519
 5368TIP3    H237596   5.010   4.102   6.454 -1.2036 -0.3692  0.0019
 5369TIP3   OH237597   5.756   3.529   5.774  0.2522  0.0914 -0.3765
 5369TIP3    H137598   5.814   3.543   5.699  0.5722  1.4097  0.0845
 5369TIP3    H237599   5.668   3.539   5.738  0.4169  3.6107 -0.1481
 5370TIP3   OH237600   6.754   2.198  17.184 -0.3438  0.3348  0.2238
 5370TIP3    H137601   6.820   2.169  17.247  0.6132  0.8776 -0.5138
 5370TIP3    H237602   6.726   2.284  17.216 -1.3417 -0.2486  1.0025
 5371TIP3   OH237603   6.018   4.517   0.904 -0.4918 -0.1874 -0.1951
 5371TIP3    H137604   6.038   4.461   0.829 -1.0098 -1.5587  0.6628
 5371TIP3    H237605   5.981   4.597   0.865  1.4248  0.1141 -1.5004
 5372TIP3   OH237606   1.885   4.996   4.476 -0.2957 -0.4639  0.7534
 5372TIP3    H137607   1.835   4.961   4.403 -1.7636  0.2561  1.3846
 5372TIP3    H237608   1.852   5.085   4.489  0.5511 -0.2681  1.7299
 5373TIP3   OH237609   5.627   0.245  14.200 -0.5023  0.1985 -0.1864
 5373TIP3    H137610   5.692   0.192  14.154 -2.0163 -1.3555 -0.6470
 5373TIP3    H237611   5.665   0.260  14.286  0.3317 -0.9779 -0.3181
 5374TIP3   OH237612   3.508   5.648   5.952  0.5136 -0.5009  0.4424
 5374TIP3    H137613   3.498   5.560   5.915  0.8222 -0.9374  1.3838
 5374TIP3    H237614   3.419   5.684   5.954  0.3790 -0.8112  0.1225
 5375TIP3   OH237615   2.212   0.206  13.765  0.2763  0.2243  0.0712
 5375TIP3    H137616   2.292   0.178  13.720  1.3028  0.1052  1.8853
 5375TIP3    H237617   2.193   0.136  13.827  0.0974  1.3094  1.2784
 5376TIP3   OH237618   0.690   5.222  17.010 -0.3343 -0.2385  0.1837
 5376TIP3    H137619   0.606   5.266  16.994 -1.9732 -2.6409  1.6152
 5376TIP3    H237620   0.692   5.150  16.947  1.7932  1.0205 -1.3570
 5377TIP3   OH237621   2.124   6.776   4.500  0.1550  0.0465  0.0566
 5377TIP3    H137622   2.169   6.860   4.499  0.5034 -0.1446 -0.6975
 5377TIP3    H237623   2.193   6.711   4.514  0.1750 -0.2645 -1.3285
 5378TIP3   OH237624   3.081   0.371   0.533 -0.6646 -0.9494 -0.1741
 5378TIP3    H137625   3.115   0.438   0.474 -1.6667  1.0015  1.3265
 5378TIP3    H237626   2.986   0.383   0.532 -0.6513  0.7645  3.4313
 5379TIP3   OH237627   3.583   1.205  13.709 -0.4700  0.5647 -0.5962
 5379TIP3    H137628   3.490   1.224  13.692 -0.5104  0.2611 -0.7091
 5379TIP3    H237629   3.603   1.258  13.787 -0.2304  2.1125 -1.6559
 5380TIP3   OH237630   5.364   4.299   5.422 -0.2519 -0.1122  0.1497
 5380TIP3    H137631   5.295   4.335   5.477  0.2008  5.0906 -2.0426
 5380TIP3    H237632   5.329   4.304   5.333  2.4865  1.9180 -0.9450
 5381TIP3   OH237633   5.361   2.423  15.887  0.1495 -0.5047 -0.0739
 5381TIP3    H137634   5.283   2.418  15.832 -0.0521 -0.1111  0.1654
 5381TIP3    H237635   5.407   2.501  15.856 -0.0074 -0.2339  0.3552
 5382TIP3   OH237636   0.905   6.381   0.448  0.2469 -0.1300  0.1103
 5382TIP3    H137637   0.955   6.310   0.407 -1.5088 -1.3285 -0.0443
 5382TIP3    H237638   0.964   6.457   0.443  1.0053 -0.7722 -2.5565
 5383TIP3   OH237639   1.372   2.762   2.189 -0.0199 -0.1210 -0.2708
 5383TIP3    H137640   1.278   2.745   2.191  0.3270 -2.1236  0.4289
 5383TIP3    H237641   1.409   2.688   2.141  1.1679  0.9249 -1.0233
 5384TIP3   OH237642   0.101   2.475  12.085  0.7517 -0.0668  0.0117
 5384TIP3    H137643   0.097   2.569  12.065  2.0291 -0.1370 -0.6765
 5384TIP3    H237644   0.194   2.452  12.074  0.8212 -1.0011  2.1213
 5385TIP3   OH237645   1.069   2.137   2.788 -0.1696  0.2931 -0.3035
 5385TIP3    H137646   1.049   2.065   2.848 -0.9487 -0.0522 -0.9678
 5385TIP3    H237647   1.092   2.210   2.846 -2.7894  0.5674  0.5418
 5386TIP3   OH237648   3.788   3.170   3.487  0.0230 -0.4087  0.5225
 5386TIP3    H137649   3.728   3.241   3.509  0.1944  0.2446 -1.0342
 5386TIP3    H237650   3.748   3.126   3.412  2.0392  0.8484 -1.4121
 5387TIP3   OH237651   4.736   6.606   4.100  0.3708 -0.2528  0.5939
 5387TIP3    H137652   4.755   6.537   4.163 -0.7221  0.4035  1.6737
 5387TIP3    H237653   4.647   6.634   4.120 -0.5149 -0.8763 -2.0645
 5388TIP3   OH237654   0.621   6.811  11.836 -0.9758  0.2628 -0.3930
 5388TIP3    H137655   0.587   6.833  11.923 -1.0067 -0.9980 -0.0639
 5388TIP3    H237656   0.588   6.880  11.779 -1.7336  0.6008  0.4298
 5389TIP3   OH237657   0.518   5.089  12.939  0.1770  0.1440  0.3234
 5389TIP3    H137658   0.596   5.105  12.885  0.5813  0.8191  1.0933
 5389TIP3    H237659   0.459   5.161  12.918  0.1883  0.2100  0.5175
 5390TIP3   OH237660   4.522   1.746  14.895 -0.5501 -0.0850 -0.1778
 5390TIP3    H137661   4.428   1.764  14.901 -0.6419 -0.6417  0.1292
 5390TIP3    H237662   4.529   1.667  14.842 -0.3963 -1.1405  1.3449
 5391TIP3   OH237663   1.967   1.016  16.696 -0.0457 -0.0771  0.9211
 5391TIP3    H137664   1.926   0.972  16.770 -1.6945 -0.5769 -0.2289
 5391TIP3    H237665   2.020   1.084  16.736 -1.5670  0.2420  2.5632
 5392TIP3   OH237666   6.142   3.215   4.580 -0.0674 -0.2798 -0.1899
 5392TIP3    H137667   6.199   3.153   4.535  1.8206  0.1943  1.3979
 5392TIP3    H237668   6.115   3.170   4.659  0.7567  0.6312  0.6357
 5393TIP3   OH237669   3.567   1.334  12.878 -0.0638  0.1808  0.5039
 5393TIP3    H137670   3.504   1.351  12.948  1.1895 -2.0501  2.3558
 5393TIP3    H237671   3.615   1.257  12.909  1.5847  0.0276 -2.1743
 5394TIP3   OH237672   2.993   1.948  11.490  0.1190  0.2577  0.2330
 5394TIP3    H137673   2.949   1.870  11.458 -1.4634  1.1609  0.0874
 5394TIP3    H237674   3.028   1.990  11.411 -0.7122  0.6623  0.0635
 5395TIP3   OH237675   4.918   1.936  12.490  0.2143  0.3693  0.1730
 5395TIP3    H137676   4.865   1.960  12.565 -1.6534 -0.0111 -0.9600
 5395TIP3    H237677   4.861   1.950  12.414  1.5725 -0.4951 -1.0733
 5396TIP3   OH237678   0.942   5.238  16.389 -0.0149  0.3104  0.1768
 5396TIP3    H137679   0.919   5.326  16.419 -1.0200  0.3320 -0.5760
 5396TIP3    H237680   0.968   5.250  16.298 -1.2281 -0.2797 -0.2840
 5397TIP3   OH237681   1.842   3.863  12.013  0.6391  0.6835 -0.2260
 5397TIP3    H137682   1.908   3.867  12.082 -0.3682  0.7280  0.7653
 5397TIP3    H237683   1.761   3.840  12.058 -0.7222  3.6602 -0.9027
 5398TIP3   OH237684   2.162   3.685   2.538  0.3620 -0.5908 -0.1582
 5398TIP3    H137685   2.186   3.599   2.572 -0.9884 -1.3146 -0.9493
 5398TIP3    H237686   2.180   3.745   2.610  0.3282 -1.6780  0.7892
 5399TIP3   OH237687   2.370   5.219  16.139  0.7960  0.2757 -0.3248
 5399TIP3    H137688   2.443   5.266  16.098  1.1945  0.5379  0.6744
 5399TIP3    H237689   2.404   5.188  16.222  0.2089 -0.8873 -0.4876
 5400TIP3   OH237690   1.134   2.978   0.667  0.1843  0.1635 -0.9522
 5400TIP3    H137691   1.120   2.947   0.577 -0.8284  1.3446 -1.2195
 5400TIP3    H237692   1.079   2.920   0.720  1.9333 -1.5363 -0.8590
 5401TIP3   OH237693   2.050   3.992  12.614 -0.5470  0.3052  0.6838
 5401TIP3    H137694   2.060   3.897  12.603 -3.0139 -0.1570  1.7561
 5401TIP3    H237695   1.997   4.001  12.693  1.6126  2.7094  2.0052
 5402TIP3   OH237696   3.021   0.744  17.089  0.1851 -0.6081 -0.3666
 5402TIP3    H137697   3.053   0.741  17.180  1.3825  0.6272 -0.7191
 5402TIP3    H237698   3.099   0.760  17.037 -0.4854 -1.3392 -1.6450
 5403TIP3   OH237699   2.175   0.351  15.022  0.6613  0.4443 -0.3360
 5403TIP3    H137700   2.240   0.416  15.048  3.5377 -3.0010  2.0972
 5403TIP3    H237701   2.120   0.339  15.100 -0.3772  0.5344 -1.0389
 5404TIP3   OH237702   2.295   4.362   4.517 -0.0321  0.6025 -0.4997
 5404TIP3    H137703   2.316   4.277   4.478 -0.9157  0.3310 -0.4144
 5404TIP3    H237704   2.208   4.350   4.555  0.7808  0.8903  1.5283
 5405TIP3   OH237705   3.852   1.194  11.639 -0.3541 -0.4102  0.5134
 5405TIP3    H137706   3.900   1.115  11.618 -1.9891 -0.8864 -1.8435
 5405TIP3    H237707   3.844   1.241  11.556 -0.2044  1.8227  1.6604
 5406TIP3   OH237708   2.476   4.409   5.147 -0.1080 -0.2407  0.1152
 5406TIP3    H137709   2.464   4.423   5.241 -1.4086  0.0878 -0.0787
 5406TIP3    H237710   2.400   4.356   5.121  0.5235 -0.7874 -0.6517
 5407TIP3   OH237711   2.753   1.577  13.107  0.4299  0.4734  0.1097
 5407TIP3    H137712   2.848   1.565  13.117  0.9850  3.7741 -0.1361
 5407TIP3    H237713   2.744   1.664  13.069 -2.6517 -0.9566 -2.8930
 5408TIP3   OH237714   2.208   5.750   1.902 -0.2553 -0.3323  1.0392
 5408TIP3    H137715   2.198   5.655   1.899  0.0856 -0.3652  0.8966
 5408TIP3    H237716   2.292   5.767   1.858 -0.4606  0.0556  0.7903
 5409TIP3   OH237717   1.596   4.932   0.766 -0.2186  0.4128 -0.1101
 5409TIP3    H137718   1.511   4.975   0.772  0.1791  1.5712 -1.8825
 5409TIP3    H237719   1.591   4.880   0.686 -0.0494 -1.4712  1.0406
 5410TIP3   OH237720   2.592   2.857   4.653 -0.3107  0.0748 -0.3608
 5410TIP3    H137721   2.545   2.924   4.604 -0.6424  1.7784  2.1258
 5410TIP3    H237722   2.524   2.803   4.692 -0.2281  1.2277  1.4766
 5411TIP3   OH237723   0.254   3.581  10.464  0.5674 -0.0405  0.3209
 5411TIP3    H137724   0.242   3.487  10.451 -0.9632  0.1973 -0.1986
 5411TIP3    H237725   0.212   3.599  10.548  1.6359  0.0602  0.8553
 5412TIP3   OH237726   3.884   5.518   6.162 -0.2079  0.2951 -0.5738
 5412TIP3    H137727   3.947   5.579   6.201 -0.0102 -0.0101 -0.4062
 5412TIP3    H237728   3.818   5.504   6.231  1.2745 -1.9168  0.5122
 5413TIP3   OH237729   6.088   4.915  13.624  0.1349  0.3753  0.1752
 5413TIP3    H137730   6.144   4.892  13.550  0.8816 -1.6463  1.2988
 5413TIP3    H237731   6.011   4.859  13.615  0.4926 -0.3136  1.2012
 5414TIP3   OH237732   4.049   3.292   3.473 -0.2398  0.0445 -0.4901
 5414TIP3    H137733   3.973   3.301   3.416 -1.1469 -2.0432  0.2563
 5414TIP3    H237734   4.019   3.234   3.543  0.9707  2.0971  1.8869
 5415TIP3   OH237735   0.442   0.283   0.491 -0.0153  0.3154  0.1887
 5415TIP3    H137736   0.499   0.218   0.532 -1.1270 -0.3947  0.6615
 5415TIP3    H237737   0.452   0.269   0.397  0.4788  0.1132  0.2712
 5416TIP3   OH237738   6.549   2.750  15.388  0.2467 -0.1955  0.7304
 5416TIP3    H137739   6.502   2.667  15.379 -1.0649  0.5876  0.0366
 5416TIP3    H237740   6.487   2.807  15.434  0.6107  0.7894  0.0252
 5417TIP3   OH237741   3.709   0.643   1.430 -0.1011 -0.3685 -0.6634
 5417TIP3    H137742   3.777   0.706   1.405 -1.2892  0.9397 -0.6801
 5417TIP3    H237743   3.647   0.693   1.483 -0.0946 -1.9831  0.9776
 5418TIP3   OH237744   5.992   1.890   2.531 -0.0010  0.1378  0.0070
 5418TIP3    H137745   5.996   1.802   2.493  2.9859  0.5535 -0.9485
 5418TIP3    H237746   6.036   1.945   2.466 -0.7719  2.1376  1.1056
 5419TIP3   OH237747   5.940   6.386  15.043  0.2791  0.1230  0.1881
 5419TIP3    H137748   5.915   6.472  15.078 -0.3774 -0.9145  2.4113
 5419TIP3    H237749   5.858   6.346  15.017 -0.1260 -1.5860  3.5119
 5420TIP3   OH237750   5.346   3.447  16.894 -0.0075  0.0941 -0.4281
 5420TIP3    H137751   5.264   3.478  16.933 -1.4342 -2.3365 -1.2436
 5420TIP3    H237752   5.375   3.520  16.839 -2.0996  0.7406 -0.7812
 5421TIP3   OH237753   1.681   0.603  15.415  0.5228 -0.4919 -0.2954
 5421TIP3    H137754   1.761   0.632  15.458 -0.6703 -0.2313  1.9089
 5421TIP3    H237755   1.616   0.670  15.438 -0.8872 -1.9057  0.0585
 5422TIP3   OH237756   6.194   2.394  12.312  0.3220 -0.0693 -0.6105
 5422TIP3    H137757   6.177   2.300  12.322  0.2722  0.1057  1.3167
 5422TIP3    H237758   6.278   2.408  12.356  0.4306  0.7701 -1.0574
 5423TIP3   OH237759   2.354   1.903  11.485 -0.2778 -0.3500  0.2807
 5423TIP3    H137760   2.312   1.817  11.484 -1.0132 -0.0053 -0.8710
 5423TIP3    H237761   2.445   1.885  11.505 -0.0107 -1.6264 -1.7576
 5424TIP3   OH237762   4.647   5.714   1.726 -0.2788  0.4960  0.7078
 5424TIP3    H137763   4.564   5.761   1.720 -0.4431  0.1187 -0.0356
 5424TIP3    H237764   4.647   5.656   1.650  0.0163 -0.5593  1.4991
 5425TIP3   OH237765   4.829   5.877   0.858 -0.1603 -0.2976 -0.1026
 5425TIP3    H137766   4.894   5.832   0.911 -0.2847  0.6457  0.8775
 5425TIP3    H237767   4.863   5.872   0.769 -0.4019 -2.7294 -0.1414
 5426TIP3   OH237768   3.210   6.040   1.991  0.0402 -0.2847  0.0420
 5426TIP3    H137769   3.288   5.984   1.991  0.5995  0.4788  0.7202
 5426TIP3    H237770   3.230   6.110   2.053 -0.5583  0.7937 -0.9416
 5427TIP3   OH237771   4.008   4.412  16.318  0.0412 -0.4119  0.4343
 5427TIP3    H137772   4.088   4.434  16.271  0.1605 -0.6204  0.5393
 5427TIP3    H237773   3.994   4.486  16.377 -0.7612  0.4277 -0.7482
 5428TIP3   OH237774   5.835   2.774   5.411 -0.0507 -0.0690  0.4543
 5428TIP3    H137775   5.908   2.724   5.374  0.1634  1.7185 -1.7219
 5428TIP3    H237776   5.758   2.744   5.362 -0.7817 -1.5470  2.3630
 5429TIP3   OH237777   1.247   1.034   2.732  0.0892 -0.2245  0.0829
 5429TIP3    H137778   1.319   1.066   2.676  1.5646  2.0821  3.0097
 5429TIP3    H237779   1.189   1.110   2.741 -0.8712 -1.0030  0.5160
 5430TIP3   OH237780   3.530   4.788  12.468 -0.1216 -0.4618  0.1638
 5430TIP3    H137781   3.621   4.818  12.468 -0.3502  0.2690  0.6954
 5430TIP3    H237782   3.505   4.790  12.560 -0.5474 -1.0734  0.0614
 5431TIP3   OH237783   5.215   2.015  16.699 -0.2253 -0.3820  0.1527
 5431TIP3    H137784   5.210   2.103  16.661 -1.3321 -0.9410 -1.0635
 5431TIP3    H237785   5.258   1.963  16.631 -1.9460 -1.3279 -0.2712
 5432TIP3   OH237786   6.022   2.764  11.075 -0.3131  0.2548  0.2247
 5432TIP3    H137787   6.017   2.725  10.988 -1.4447  0.4102  0.2070
 5432TIP3    H237788   6.098   2.823  11.071 -0.5293  0.4761 -0.7477
 5433TIP3   OH237789   1.131   1.639  17.055  0.4576 -0.1616 -0.4412
 5433TIP3    H137790   1.135   1.572  16.987 -1.8796 -0.7579 -0.0737
 5433TIP3    H237791   1.118   1.721  17.007  1.0966 -0.2458 -0.7773
 5434TIP3   OH237792   2.646   4.293   4.266 -0.8534  0.1651 -0.2893
 5434TIP3    H137793   2.626   4.204   4.235 -0.8296  0.1807 -0.3513
 5434TIP3    H237794   2.651   4.345   4.186 -1.7261  0.4026 -0.1915
 5435TIP3   OH237795   5.884   3.590  15.153  0.5996  0.2159  0.3380
 5435TIP3    H137796   5.940   3.603  15.229  0.7341 -0.5284  0.3764
 5435TIP3    H237797   5.797   3.616  15.184  0.5200 -0.7633  0.9777
 5436TIP3   OH237798   2.063   2.062   6.256 -0.1488 -0.2795  0.2081
 5436TIP3    H137799   2.039   1.970   6.242  1.7069 -1.0016  1.4379
 5436TIP3    H237800   2.042   2.077   6.348  0.8005  0.1211  0.3603
 5437TIP3   OH237801   3.654   5.082  16.111  0.2351 -0.2209 -0.1337
 5437TIP3    H137802   3.694   5.133  16.040  0.4734  1.3416  1.0777
 5437TIP3    H237803   3.728   5.038  16.153  0.7121  2.1941  1.7298
 5438TIP3   OH237804   3.532   4.443   6.146 -0.8279 -0.0420  0.0937
 5438TIP3    H137805   3.549   4.369   6.204  0.7373  0.4181  0.2649
 5438TIP3    H237806   3.593   4.511   6.174 -0.0499  0.2146 -2.0307
 5439TIP3   OH237807   1.908   4.987   5.673 -0.6205  0.6664 -0.2700
 5439TIP3    H137808   1.896   5.044   5.750 -0.2839  0.6088 -0.1745
 5439TIP3    H237809   1.973   4.922   5.701 -0.4964  0.6444 -0.6047
 5440TIP3   OH237810   0.547   6.289  14.441  0.5607 -1.1551 -0.3430
 5440TIP3    H137811   0.453   6.300  14.429  0.3457 -0.7489  1.4375
 5440TIP3    H237812   0.570   6.215  14.384 -0.9770 -1.7903 -0.1956
 5441TIP3   OH237813   3.800   1.051   1.644  0.4281 -0.0842  0.2430
 5441TIP3    H137814   3.789   0.993   1.570  0.2478  0.7280 -0.3840
 5441TIP3    H237815   3.756   1.132   1.618  1.3052  0.5890  0.7913
 5442TIP3   OH237816   4.249   0.766  12.285 -0.6050  0.1174  0.2266
 5442TIP3    H137817   4.191   0.834  12.319 -0.2005  0.3274  0.5065
 5442TIP3    H237818   4.236   0.769  12.190  0.0215  1.1513  0.1558
 5443TIP3   OH237819   5.856   2.293   1.399  0.1929 -0.3862 -0.3562
 5443TIP3    H137820   5.933   2.249   1.364 -0.1793 -0.5130 -1.0229
 5443TIP3    H237821   5.869   2.292   1.494  0.4999 -1.3589 -0.3991
 5444TIP3   OH237822   5.980   0.162   2.661 -0.1661 -0.0001 -0.1142
 5444TIP3    H137823   5.938   0.146   2.745  2.2169 -0.0987  1.1190
 5444TIP3    H237824   5.979   0.257   2.651  0.5020  0.0849  0.5613
 5445TIP3   OH237825   2.508   5.745  16.187 -0.8110  0.2618 -0.0217
 5445TIP3    H137826   2.603   5.737  16.195 -0.4074  1.4819 -2.6656
 5445TIP3    H237827   2.475   5.718  16.272  1.8457 -0.9714  0.7237
 5446TIP3   OH237828   0.285   4.736   3.454 -0.2789 -0.2203  0.4103
 5446TIP3    H137829   0.329   4.738   3.539  0.5952  0.4711 -0.0453
 5446TIP3    H237830   0.337   4.676   3.401  0.7817  1.4119 -0.4638
 5447TIP3   OH237831   5.459   1.090   5.851 -0.1424 -0.4826  0.0396
 5447TIP3    H137832   5.366   1.068   5.859 -0.7174  1.9409  0.8683
 5447TIP3    H237833   5.495   1.074   5.939  0.1204 -0.8680 -0.1323
 5448TIP3   OH237834   4.258   4.253  10.920  0.0130  0.9974 -0.4200
 5448TIP3    H137835   4.164   4.255  10.903 -0.2200  0.0402  0.6668
 5448TIP3    H237836   4.297   4.298  10.844 -1.1070 -1.0172 -2.2926
 5449TIP3   OH237837   0.629   1.435   5.187 -1.1013 -0.0191 -0.6849
 5449TIP3    H137838   0.653   1.509   5.132  0.1619  0.5471  0.5681
 5449TIP3    H237839   0.593   1.474   5.266  1.9171 -0.5319  1.1037
 5450TIP3   OH237840   2.603   5.083   3.019  0.2271 -0.2299 -0.5554
 5450TIP3    H137841   2.569   5.166   3.054 -1.7624 -1.2724  0.1035
 5450TIP3    H237842   2.538   5.056   2.954  1.8951 -0.3036 -2.2801
 5451TIP3   OH237843   0.569   1.937  14.115 -0.1540 -0.4311  0.0020
 5451TIP3    H137844   0.605   1.995  14.182 -0.1611  1.0558 -1.2539
 5451TIP3    H237845   0.564   1.852  14.159 -0.4322  0.5446  1.9806
 5452TIP3   OH237846   0.935   5.140   5.338  0.9053 -0.1004  0.2832
 5452TIP3    H137847   0.865   5.204   5.323  0.5673 -0.5551 -0.0967
 5452TIP3    H237848   0.928   5.118   5.431 -0.3098 -1.1235 -0.0232
 5453TIP3   OH237849   1.988   4.494  17.074  0.3070  0.0210  0.0673
 5453TIP3    H137850   1.938   4.559  17.025 -0.7771 -0.7081  0.1768
 5453TIP3    H237851   2.053   4.546  17.122  1.0629  0.7917 -1.7075
 5454TIP3   OH237852   2.652   6.716   3.233  0.0962  0.2113 -0.0319
 5454TIP3    H137853   2.716   6.719   3.305  1.0236 -0.4319 -0.7997
 5454TIP3    H237854   2.667   6.631   3.191 -0.7203  0.3975 -0.7300
 5455TIP3   OH237855   3.423   6.699  12.885 -0.0479  0.0305  0.1574
 5455TIP3    H137856   3.432   6.613  12.844 -1.0671  0.2080 -0.4894
 5455TIP3    H237857   3.345   6.736  12.845  0.8535  1.6222 -0.2159
 5456TIP3   OH237858   5.512   5.114   2.580 -0.0023 -0.6190 -0.1791
 5456TIP3    H137859   5.543   5.186   2.525 -1.3780 -0.5141 -0.8725
 5456TIP3    H237860   5.580   5.048   2.575  0.8132  0.2183 -0.3738
 5457TIP3   OH237861   4.681   4.957  16.153 -0.0716  0.1819 -0.1067
 5457TIP3    H137862   4.590   4.969  16.127 -0.0826 -1.2389 -0.7874
 5457TIP3    H237863   4.685   4.987  16.244 -1.0858  0.7709 -0.2482
 5458TIP3   OH237864   3.525   0.269   2.260  0.1185  0.3263  0.1138
 5458TIP3    H137865   3.581   0.253   2.184  1.1507  2.3546  0.3765
 5458TIP3    H237866   3.586   0.288   2.331 -0.8332  2.8406  0.3585
 5459TIP3   OH237867   2.248   2.945  11.210 -0.2692  0.2969  0.2060
 5459TIP3    H137868   2.193   2.951  11.289  2.5746 -0.5642  2.4464
 5459TIP3    H237869   2.269   2.852  11.204  0.1167  0.4603 -1.1908
 5460TIP3   OH237870   5.055   1.573   0.951  0.3803 -0.1132  0.0027
 5460TIP3    H137871   4.964   1.546   0.939 -0.6482  2.6232  0.9208
 5460TIP3    H237872   5.071   1.637   0.883  1.2964  0.1888  0.4831
 5461TIP3   OH237873   1.809   4.665  16.924 -0.1168  0.3870  0.0424
 5461TIP3    H137874   1.820   4.685  16.831 -3.3568  1.2589 -0.2755
 5461TIP3    H237875   1.785   4.749  16.963  3.1887  0.5129  2.1759
 5462TIP3   OH237876   3.965   5.181   2.726 -0.0854  0.0656 -0.3792
 5462TIP3    H137877   3.912   5.256   2.698  0.8893  0.6849 -0.6028
 5462TIP3    H237878   3.945   5.172   2.820  0.8690  1.5484  0.0149
 5463TIP3   OH237879   1.931   6.790   1.777 -0.1700  0.4511 -0.2184
 5463TIP3    H137880   1.873   6.726   1.736 -0.2736 -2.0811  3.3396
 5463TIP3    H237881   1.873   6.846   1.828  0.2207  0.4678  0.2205
 5464TIP3   OH237882   6.536   2.585   0.709 -0.2858  0.6504 -1.0833
 5464TIP3    H137883   6.523   2.507   0.654  2.8010  0.7978 -2.2354
 5464TIP3    H237884   6.578   2.648   0.650  0.5131  1.8795  0.7262
 5465TIP3   OH237885   4.889   5.149  12.851 -0.4125  0.6489  0.2513
 5465TIP3    H137886   4.889   5.100  12.933 -1.0323 -0.2417 -0.2526
 5465TIP3    H237887   4.796   5.153  12.826 -0.1876  0.4669 -0.6495
 5466TIP3   OH237888   5.444   5.179   2.836  0.1583 -0.5117 -0.3581
 5466TIP3    H137889   5.439   5.149   2.745 -1.1016 -1.1796 -0.0956
 5466TIP3    H237890   5.439   5.274   2.830  1.6978 -0.4473 -1.0640
 5467TIP3   OH237891   0.280   3.199   3.357  0.5640  0.2148  0.0048
 5467TIP3    H137892   0.281   3.122   3.414  1.0256  0.7057  0.6686
 5467TIP3    H237893   0.296   3.273   3.415  0.8426  0.7511 -0.7307
 5468TIP3   OH237894   2.383   5.384   3.375 -0.6626  0.0063  0.4931
 5468TIP3    H137895   2.321   5.316   3.402  0.5779 -1.0948  0.6670
 5468TIP3    H237896   2.343   5.422   3.296 -2.5043  0.7193  1.6978
 5469TIP3   OH237897   3.523   3.876   1.822  0.0497 -0.8702  0.0736
 5469TIP3    H137898   3.471   3.799   1.845 -1.1214  0.0597  0.6365
 5469TIP3    H237899   3.553   3.859   1.732 -1.4698 -1.3058 -0.3745
 5470TIP3   OH237900   6.460   0.204  15.174 -0.3733  0.7194  0.1713
 5470TIP3    H137901   6.495   0.177  15.089 -0.8527 -0.0538  0.2074
 5470TIP3    H237902   6.442   0.122  15.220 -0.5964  1.1227  0.8216
 5471TIP3   OH237903   2.757   4.920  11.761  0.4781 -0.0564  0.2235
 5471TIP3    H137904   2.713   4.835  11.765  0.2932 -0.0105 -0.6598
 5471TIP3    H237905   2.717   4.971  11.831 -1.4387  0.2441 -1.0193
 5472TIP3   OH237906   4.207   2.535  13.552 -0.6932 -0.4398  0.3621
 5472TIP3    H137907   4.296   2.544  13.588 -0.9266  0.6607  0.6964
 5472TIP3    H237908   4.219   2.540  13.457 -0.6140  2.3557  0.4352
 5473TIP3   OH237909   6.318   2.552  13.606  0.2529  0.1686  0.7457
 5473TIP3    H137910   6.391   2.505  13.647 -0.0774 -1.1988 -0.1393
 5473TIP3    H237911   6.343   2.560  13.515  0.2287  1.6467  0.8538
 5474TIP3   OH237912   3.576   6.053  11.037 -0.5634 -0.1301  0.7598
 5474TIP3    H137913   3.635   5.993  11.081 -0.3386  0.4283  1.2278
 5474TIP3    H237914   3.588   6.035  10.944 -1.3535 -1.6119  0.9207
 5475TIP3   OH237915   1.155   5.736  17.219 -0.4317  0.2310  0.0886
 5475TIP3    H137916   1.088   5.698  17.162 -0.5638  0.9093 -0.2185
 5475TIP3    H237917   1.238   5.706  17.182 -0.5648 -1.0449  0.7771
 5476TIP3   OH237918   6.274   3.463   5.656 -0.7077  0.4331  0.0025
 5476TIP3    H137919   6.340   3.505   5.710 -1.0571  0.6916  0.2341
 5476TIP3    H237920   6.240   3.392   5.711  0.5320 -0.7729 -0.7255
 5477TIP3   OH237921   0.023   4.473   0.933  0.3970  0.5235  0.2331
 5477TIP3    H137922   0.096   4.532   0.913  2.1436 -1.4437  0.4339
 5477TIP3    H237923   0.013   4.419   0.854 -1.1402  0.9883  0.0681
 5478TIP3   OH237924   3.910   1.796   2.263  0.4182  0.1771  0.5364
 5478TIP3    H137925   3.920   1.703   2.246 -0.1793  0.5068 -2.0687
 5478TIP3    H237926   3.878   1.801   2.353 -0.9044 -2.2014  0.2707
 5479TIP3   OH237927   4.504   4.127   1.276  0.3746 -0.1841  0.2166
 5479TIP3    H137928   4.447   4.190   1.321  0.5631  0.0643  0.1113
 5479TIP3    H237929   4.475   4.128   1.185  1.4505  1.0015 -0.1450
 5480TIP3   OH237930   5.043   5.701  15.326  0.4239 -1.1206 -0.4024
 5480TIP3    H137931   4.947   5.709  15.327  0.5818  2.0290  1.1038
 5480TIP3    H237932   5.070   5.752  15.250  0.9392 -2.0444 -0.8498
 5481TIP3   OH237933   6.253   5.206  12.801 -0.8276 -0.1692  0.0264
 5481TIP3    H137934   6.185   5.245  12.746 -0.4537 -0.7585 -0.8805
 5481TIP3    H237935   6.306   5.280  12.830 -0.4618  0.0768 -1.2126
 5482TIP3   OH237936   5.658   2.760  12.462 -0.6036 -0.0784  0.2957
 5482TIP3    H137937   5.615   2.711  12.392  1.2990 -0.8550 -0.3931
 5482TIP3    H237938   5.671   2.696  12.532  0.8002 -0.2650 -0.1199
 5483TIP3   OH237939   5.310   0.210  12.411 -0.7419  0.3918  0.0057
 5483TIP3    H137940   5.238   0.229  12.472 -0.3538  0.1667  0.5437
 5483TIP3    H237941   5.286   0.127  12.370 -0.2113 -0.3214  1.0936
 5484TIP3   OH237942   0.813   1.138  15.147  0.1366 -0.6844 -0.1379
 5484TIP3    H137943   0.819   1.178  15.060  1.4891 -1.4308 -0.4271
 5484TIP3    H237944   0.823   1.044  15.131  0.4545 -0.8270  0.8185
 5485TIP3   OH237945   0.202   2.208  16.869  0.1756  0.9150  0.8484
 5485TIP3    H137946   0.285   2.197  16.823 -0.8005  1.2252 -1.1185
 5485TIP3    H237947   0.205   2.297  16.904  0.3583  1.2215  0.0683
 5486TIP3   OH237948   4.878   5.210   5.263  0.0870 -0.5203 -0.3181
 5486TIP3    H137949   4.829   5.156   5.201  0.4757 -1.0399 -0.1841
 5486TIP3    H237950   4.929   5.270   5.209 -2.4894  1.7368 -0.4630
 5487TIP3   OH237951   2.425   1.953  13.891  0.5239 -0.0345 -0.0108
 5487TIP3    H137952   2.516   1.931  13.909  1.0512  2.3418  0.5736
 5487TIP3    H237953   2.406   1.912  13.807  1.7496 -1.4964  0.3810
 5488TIP3   OH237954   3.240   1.610   5.832  0.3433 -0.3276 -0.6806
 5488TIP3    H137955   3.267   1.641   5.745 -1.3578 -0.7645 -1.4080
 5488TIP3    H237956   3.272   1.677   5.892 -0.5235  1.2340 -1.8974
 5489TIP3   OH237957   3.624   4.819  16.869  0.5975 -0.1193 -0.6018
 5489TIP3    H137958   3.546   4.779  16.906  1.4112 -1.4957 -0.2837
 5489TIP3    H237959   3.614   4.913  16.884 -0.7890 -0.3161 -0.2162
 5490TIP3   OH237960   4.149   5.216   5.162 -0.4295 -0.0463 -0.0214
 5490TIP3    H137961   4.064   5.222   5.206  0.0780  1.9286  0.8141
 5490TIP3    H237962   4.190   5.139   5.201 -1.2603 -0.1772  0.6375
 5491TIP3   OH237963   3.666   4.130  15.903  0.1414  0.4098  0.1290
 5491TIP3    H137964   3.643   4.223  15.903  0.0858  0.4291 -1.4780
 5491TIP3    H237965   3.761   4.129  15.894  0.1776  0.3001  0.4931
 5492TIP3   OH237966   1.715   3.825  11.741 -0.1560  0.7794  0.0068
 5492TIP3    H137967   1.742   3.852  11.829 -1.6063  0.6140  0.5405
 5492TIP3    H237968   1.626   3.859  11.733 -0.9405 -1.2634 -0.4507
 5493TIP3   OH237969   2.906   0.956   2.593  0.5239  0.0727  0.4682
 5493TIP3    H137970   2.887   0.936   2.501  0.2818  3.5007 -0.3605
 5493TIP3    H237971   2.825   0.935   2.639  0.6474 -1.6907 -0.0513
 5494TIP3   OH237972   4.978   2.913   1.181 -0.5893  0.2090  0.3953
 5494TIP3    H137973   4.925   2.859   1.240 -0.3522 -1.9313 -1.2619
 5494TIP3    H237974   5.045   2.952   1.238 -1.4868 -0.2820  1.8334
 5495TIP3   OH237975   6.361   1.331  12.883  0.5643 -0.1049  0.3263
 5495TIP3    H137976   6.374   1.313  12.976  2.0427 -1.3614 -0.0827
 5495TIP3    H237977   6.449   1.326  12.845  0.1655  1.6158 -0.9612
 5496TIP3   OH237978   2.632   3.938  16.920 -0.4759  0.2076  0.3951
 5496TIP3    H137979   2.572   3.895  16.859 -0.9705  1.8755 -0.3557
 5496TIP3    H237980   2.718   3.898  16.902 -0.2448  1.8265 -2.6852
 5497TIP3   OH237981   0.571   1.961  13.840 -0.0873  0.1260 -0.1810
 5497TIP3    H137982   0.570   1.869  13.816 -0.2310 -0.0540  0.5051
 5497TIP3    H237983   0.599   1.962  13.932 -0.8682  0.7002  0.0631
 5498TIP3   OH237984   4.849   4.967   0.198 -0.0938  0.3074  0.4260
 5498TIP3    H137985   4.918   4.952   0.134  1.2451 -2.6244  2.3397
 5498TIP3    H237986   4.886   5.031   0.259  0.6798 -0.6709  1.0114
 5499TIP3   OH237987   2.539   5.153   2.621 -0.6047  1.0455 -0.4329
 5499TIP3    H137988   2.613   5.094   2.609 -0.7903  0.2258  1.8945
 5499TIP3    H237989   2.577   5.232   2.659 -0.7860  1.0050 -0.1597
 5500TIP3   OH237990   5.542   6.253   6.519 -0.1760 -0.1915 -0.5294
 5500TIP3    H137991   5.541   6.187   6.588 -0.2130  0.6758  0.3172
 5500TIP3    H237992   5.562   6.204   6.439  0.0138 -1.1873  0.1152
 5501TIP3   OH237993   2.004   4.991  13.488  0.0343 -0.4108  0.3369
 5501TIP3    H137994   1.978   5.083  13.480 -0.3302 -0.5305  0.1232
 5501TIP3    H237995   1.987   4.954  13.402 -0.9037 -0.9532  0.7317
 5502TIP3   OH237996   4.622   5.037  12.370  0.1211  0.4278  0.1471
 5502TIP3    H137997   4.653   4.965  12.315 -0.6167 -0.0741  0.3671
 5502TIP3    H237998   4.569   5.091  12.311 -0.3722  0.0852  0.2630
 5503TIP3   OH237999   0.518   5.702  13.111  0.2102  0.2110 -0.2690
 5503TIP3    H138000   0.581   5.635  13.137  0.4293  0.7475  0.6352
 5503TIP3    H238001   0.478   5.731  13.193 -0.2668  0.8110 -0.6981
 5504TIP3   OH238002   1.164   0.242   0.739  0.3370  0.9563  0.6351
 5504TIP3    H138003   1.246   0.292   0.744 -0.1236  1.7872  0.0674
 5504TIP3    H238004   1.190   0.152   0.753  1.6202  0.9698 -1.3496
 5505TIP3   OH238005   3.702   6.755   5.183 -0.3098  0.6759  0.0169
 5505TIP3    H138006   3.782   6.754   5.130  0.1607 -0.2501  0.7156
 5505TIP3    H238007   3.697   6.668   5.220 -0.2874  1.4645  1.9827
 5506TIP3   OH238008   5.227   6.086   1.500 -0.6054  0.5639  0.1789
 5506TIP3    H138009   5.317   6.063   1.523 -0.7861 -1.0095 -0.5293
 5506TIP3    H238010   5.235   6.168   1.451  0.1987  1.5630  1.8984
 5507TIP3   OH238011   0.196   1.321   1.834  0.1322  0.2017  0.5074
 5507TIP3    H138012   0.289   1.305   1.823 -0.3195 -1.9076 -0.8931
 5507TIP3    H238013   0.157   1.233   1.839 -1.7954  1.0267  0.8179
 5508TIP3   OH238014   4.118   2.117   5.403  0.4227 -0.5496 -0.0460
 5508TIP3    H138015   4.172   2.183   5.359  0.1637 -0.7867 -0.7309
 5508TIP3    H238016   4.117   2.043   5.343  1.3769 -1.5150  1.0638
 5509TIP3   OH238017   0.006   2.127  12.723 -0.5982  0.1323  0.4097
 5509TIP3    H138018  -0.070   2.161  12.677  0.1668  0.4470 -0.6489
 5509TIP3    H238019   0.072   2.196  12.715  1.4472 -1.9589 -2.9434
 5510TIP3   OH238020   3.111   3.932  12.257  0.5046 -0.7803 -0.7680
 5510TIP3    H138021   3.143   3.961  12.171 -1.5370  1.3281 -0.9212
 5510TIP3    H238022   3.143   3.999  12.318 -2.0521  0.4910 -0.6964
 5511TIP3   OH238023   1.738   4.045  13.339 -0.3037 -0.2454 -0.5447
 5511TIP3    H138024   1.680   4.019  13.410 -0.2387  2.0726  0.4448
 5511TIP3    H238025   1.683   4.097  13.280  0.7703  2.5479  0.7460
 5512TIP3   OH238026   5.396   4.667   0.868 -0.2961 -0.2095  0.4994
 5512TIP3    H138027   5.363   4.697   0.953 -2.4814 -1.5891  0.1977
 5512TIP3    H238028   5.456   4.737   0.840  1.0916 -0.0575  3.4757
 5513TIP3   OH238029   1.504   1.192   4.687 -0.4972 -0.5500  0.1763
 5513TIP3    H138030   1.478   1.284   4.691  0.4557 -0.2883  0.5736
 5513TIP3    H238031   1.438   1.151   4.631  0.7721  0.9791 -2.6522
 5514TIP3   OH238032   6.197   5.469  14.702  0.1154 -0.1328  0.4773
 5514TIP3    H138033   6.213   5.517  14.620 -0.3501 -0.2329  0.3269
 5514TIP3    H238034   6.202   5.377  14.677  0.9793 -0.1760  0.7612
 5515TIP3   OH238035   1.711   5.710   3.262  0.5671  0.2913 -0.3639
 5515TIP3    H138036   1.731   5.779   3.198 -0.3936  0.6305 -0.3111
 5515TIP3    H238037   1.679   5.757   3.339 -0.3938 -0.2093 -0.4357
 5516TIP3   OH238038   3.923   5.242   4.092 -0.1394  0.4159  0.3147
 5516TIP3    H138039   3.897   5.162   4.046  1.7268 -0.3190  0.4638
 5516TIP3    H238040   3.841   5.280   4.123 -1.2771 -0.1797 -1.7828
 5517TIP3   OH238041   2.124   4.661   0.016 -0.0876 -0.3253  0.3742
 5517TIP3    H138042   2.165   4.575   0.011  1.1948  0.2374  0.7701
 5517TIP3    H238043   2.197   4.722   0.026 -0.9363  0.8637 -0.4161
 5518TIP3   OH238044   6.014   0.592   6.065  0.1981  0.1630 -0.7663
 5518TIP3    H138045   6.106   0.588   6.040  0.3994  0.1113 -0.0370
 5518TIP3    H238046   5.987   0.501   6.074  0.5457  0.1686  0.6499
 5519TIP3   OH238047   5.911   0.964  15.423 -0.0338 -0.4549  0.4906
 5519TIP3    H138048   5.887   0.873  15.410 -0.4614 -0.0792 -1.7003
 5519TIP3    H238049   5.848   0.996  15.488  0.7950 -1.9355  2.1043
 5520TIP3   OH238050   5.079   1.982  13.504 -0.0231  0.6097  0.4359
 5520TIP3    H138051   5.115   1.984  13.592  0.8000 -0.3775  0.1430
 5520TIP3    H238052   5.022   1.905  13.503  1.2977 -0.4099 -0.3501
 5521TIP3   OH238053   3.979   2.338  16.484 -0.2011 -0.3583  0.3689
 5521TIP3    H138054   3.920   2.265  16.499 -0.2759 -0.1131  1.3335
 5521TIP3    H238055   3.923   2.416  16.490  0.0849 -0.1646  0.5769
 5522TIP3   OH238056   0.624   6.569  12.453 -0.6642 -0.1923  0.4025
 5522TIP3    H138057   0.619   6.662  12.477 -1.7325  0.4234 -1.8452
 5522TIP3    H238058   0.547   6.555  12.398 -0.2011 -2.2768  0.2062
 5523TIP3   OH238059   5.483   1.382   1.943  0.1612  0.3224 -0.2557
 5523TIP3    H138060   5.490   1.468   1.900  2.1616  1.3851  1.9701
 5523TIP3    H238061   5.568   1.341   1.928  0.2913  0.0211  1.1604
 5524TIP3   OH238062   2.079   5.492   0.905 -0.1824  0.3616  0.1789
 5524TIP3    H138063   2.015   5.467   0.972 -0.1831 -0.4950 -0.1320
 5524TIP3    H238064   2.139   5.418   0.901 -0.5708  0.1081 -1.2456
 5525TIP3   OH238065   2.876   5.156  16.653 -0.7929 -0.5212  0.5628
 5525TIP3    H138066   2.872   5.145  16.748 -2.3852  1.8074  0.8623
 5525TIP3    H238067   2.902   5.247  16.641 -1.8529 -0.3957 -1.1896
 5526TIP3   OH238068   1.517   1.957   1.591 -0.1951 -0.0300  0.6542
 5526TIP3    H138069   1.453   1.931   1.525  1.2872 -1.6707 -0.2129
 5526TIP3    H238070   1.551   2.041   1.561 -0.4993 -0.1178  0.0637
 5527TIP3   OH238071   2.329   0.637   4.501  0.4644  0.5598 -0.0144
 5527TIP3    H138072   2.247   0.590   4.512 -0.5588  2.4127  0.8323
 5527TIP3    H238073   2.397   0.571   4.510 -0.9248 -1.0558 -0.9491
 5528TIP3   OH238074   5.974   2.536   5.892 -0.0777  0.7414  0.0254
 5528TIP3    H138075   5.953   2.524   5.799 -0.9463 -0.5622  0.3527
 5528TIP3    H238076   6.070   2.535   5.895  0.1387 -3.7070 -0.4893
 5529TIP3   OH238077   3.677   1.492   4.263  0.5559  0.0516  0.4076
 5529TIP3    H138078   3.730   1.427   4.308 -1.1549 -1.0083  0.9753
 5529TIP3    H238079   3.608   1.442   4.220  0.9880  1.2173 -1.8389
 5530TIP3   OH238080   0.962   0.529  14.595 -0.5627 -0.4550 -0.3964
 5530TIP3    H138081   0.931   0.544  14.506 -1.3432 -2.6169 -0.5403
 5530TIP3    H238082   1.048   0.488  14.585 -0.0410  0.5141 -0.0918
 5531TIP3   OH238083   3.329   4.461   6.398  0.3073  0.4963 -0.2409
 5531TIP3    H138084   3.355   4.536   6.344 -0.0707  1.5844  1.0506
 5531TIP3    H238085   3.247   4.487   6.440 -2.0314 -2.1474 -2.7255
 5532TIP3   OH238086   2.271   0.934   6.573  0.4038 -0.1091 -0.1923
 5532TIP3    H138087   2.232   0.863   6.522  0.6202 -0.6378  0.3667
 5532TIP3    H238088   2.196   0.982   6.608  0.1871 -1.8210  1.8627
 5533TIP3   OH238089   4.326   0.726  16.978 -0.2389 -0.4871 -0.4287
 5533TIP3    H138090   4.309   0.701  17.069  1.3646  0.9273  0.2994
 5533TIP3    H238091   4.281   0.659  16.926 -1.8453 -0.9025  1.3708
 5534TIP3   OH238092   1.842   1.370  16.623 -0.4081  0.3216  0.2356
 5534TIP3    H138093   1.776   1.308  16.653 -1.2771  0.2289 -1.7567
 5534TIP3    H238094   1.791   1.444  16.589  0.5271  0.6272 -0.5399
 5535TIP3   OH238095   6.437   6.050   3.505 -0.1176 -0.0304 -0.2174
 5535TIP3    H138096   6.358   5.999   3.487 -0.4600  1.0118 -1.8843
 5535TIP3    H238097   6.507   5.984   3.511 -0.8160 -0.8316 -0.6235
 5536TIP3   OH238098   4.822   2.404  16.649  0.1036  0.3971 -0.3725
 5536TIP3    H138099   4.880   2.367  16.716 -1.3480  0.6076  1.0702
 5536TIP3    H238100   4.860   2.489  16.629  0.6199  0.2850  0.1018
 5537TIP3   OH238101   6.340   3.707  17.230  0.3416 -0.3099  0.1252
 5537TIP3    H138102   6.263   3.651  17.224 -1.0389  1.5653 -0.1725
 5537TIP3    H238103   6.312   3.782  17.282  2.1695  0.1131  0.5869
 5538TIP3   OH238104   0.999   3.527   5.810 -0.2269  0.0949 -0.0381
 5538TIP3    H138105   0.950   3.593   5.762 -0.3815 -1.1264 -1.6320
 5538TIP3    H238106   1.066   3.577   5.858 -1.9535  1.6214  0.8879
 5539TIP3   OH238107   4.856   0.699   1.195 -0.0020 -0.3177 -0.0532
 5539TIP3    H138108   4.889   0.635   1.258 -1.6231  0.7683  2.0350
 5539TIP3    H238109   4.768   0.669   1.174  0.6518 -0.8921 -2.2452
 5540TIP3   OH238110   3.657   1.442   2.027 -0.6867 -0.4215 -0.0912
 5540TIP3    H138111   3.707   1.471   2.104 -0.5923 -0.7172 -0.0415
 5540TIP3    H238112   3.712   1.376   1.986 -0.9194 -0.5564 -0.1867
 5541TIP3   OH238113   5.345   6.024   2.138 -0.2483 -0.0422  0.2434
 5541TIP3    H138114   5.373   6.045   2.049 -2.6750 -0.6483 -0.7380
 5541TIP3    H238115   5.375   5.934   2.152  1.0824  0.4230  0.4757
 5542TIP3   OH238116   5.409   0.268   6.877  0.5641  0.6323  0.1282
 5542TIP3    H138117   5.423   0.345   6.822 -0.4352 -0.4862 -1.7527
 5542TIP3    H238118   5.462   0.199   6.836  1.5348  0.2839  1.8517
 5543TIP3   OH238119   5.830   2.520   4.128 -0.4874  0.5867 -0.1578
 5543TIP3    H138120   5.900   2.550   4.070 -0.1885 -0.5775 -0.4204
 5543TIP3    H238121   5.837   2.425   4.127 -3.1035  0.2902 -1.5012
 5544TIP3   OH238122   2.580   4.604   1.131  0.6780 -0.6233  0.2030
 5544TIP3    H138123   2.594   4.574   1.041 -2.2582  1.7098 -1.2462
 5544TIP3    H238124   2.567   4.524   1.181  0.6316 -1.9799 -1.8451
 5545TIP3   OH238125   2.527   5.991   3.743 -0.2631 -0.0589  0.9086
 5545TIP3    H138126   2.470   6.039   3.803 -2.1535  0.8982 -1.4829
 5545TIP3    H238127   2.576   6.058   3.697  0.7572 -0.7447  0.9550
 5546TIP3   OH238128   5.775   4.002  17.211 -0.1025  0.2227 -0.6615
 5546TIP3    H138129   5.692   3.963  17.237 -0.7571  2.1827  0.4392
 5546TIP3    H238130   5.841   3.961  17.267 -0.3349 -1.1034 -1.3193
 5547TIP3   OH238131   3.806   1.116   4.108 -0.4686 -0.0618 -0.3800
 5547TIP3    H138132   3.886   1.074   4.139 -0.2086  0.7681  0.0968
 5547TIP3    H238133   3.765   1.050   4.051  0.8324 -0.2736 -1.0968
 5548TIP3   OH238134   3.753   5.476   0.812  0.4208  0.2111  0.2224
 5548TIP3    H138135   3.757   5.568   0.836  1.7469  0.2364  0.0050
 5548TIP3    H238136   3.808   5.432   0.877  0.1784 -0.3704  0.0453
 5549TIP3   OH238137   5.441   6.803   0.108 -0.0691  0.1852 -0.1690
 5549TIP3    H138138   5.473   6.823   0.196  1.1171  1.3588 -0.8372
 5549TIP3    H238139   5.387   6.878   0.085 -1.1770 -0.5568 -0.1082
 5550TIP3   OH238140   5.147   3.220   3.016  0.0015 -0.0206 -0.2426
 5550TIP3    H138141   5.064   3.261   2.992  1.1359  3.0374  0.5135
 5550TIP3    H238142   5.123   3.143   3.066 -2.4599  1.7814  1.5765
 5551TIP3   OH238143   1.510   6.038  11.769  0.1211  0.0708 -0.0757
 5551TIP3    H138144   1.568   5.968  11.740 -1.2088 -0.8048 -0.7253
 5551TIP3    H238145   1.516   6.038  11.864  0.7164 -0.4164 -0.1164
 5552TIP3   OH238146   4.592   4.646   5.536  0.6906 -0.2944 -0.1605
 5552TIP3    H138147   4.533   4.576   5.562  0.3561  0.2030  0.4660
 5552TIP3    H238148   4.582   4.713   5.605  0.3283  0.7483 -1.1912
 5553TIP3   OH238149   2.851   6.035   3.659 -0.0654 -0.5032  0.8041
 5553TIP3    H138150   2.798   5.997   3.588  1.8828  0.4818 -1.3292
 5553TIP3    H238151   2.812   6.120   3.675  1.0317  0.4368 -1.1178
 5554TIP3   OH238152   6.235   5.232   2.287  0.3208 -0.5946  0.1734
 5554TIP3    H138153   6.290   5.274   2.221 -1.2536 -0.0861 -0.8741
 5554TIP3    H238154   6.241   5.289   2.363 -1.3375  1.3653 -1.0361
 5555TIP3   OH238155   3.131   2.632   1.912 -0.6397  0.0671 -0.3162
 5555TIP3    H138156   3.175   2.618   1.829 -0.2520  0.6215 -0.2090
 5555TIP3    H238157   3.041   2.605   1.897 -0.8428  1.2003 -1.2439
 5556TIP3   OH238158   4.281   6.098  17.220 -0.6953  0.1924 -0.4590
 5556TIP3    H138159   4.252   6.021  17.269 -1.3914  0.1978 -0.8443
 5556TIP3    H238160   4.203   6.153  17.214 -0.7716 -0.0558 -2.0412
 5557TIP3   OH238161   0.067   0.535   3.113  0.2066 -0.6213  0.9894
 5557TIP3    H138162   0.050   0.629   3.112  1.4919 -0.3760  0.0585
 5557TIP3    H238163   0.105   0.517   3.199  2.3577  0.2017  0.2700
 5558TIP3   OH238164   4.846   2.621  16.350  0.6496 -0.2371 -0.5212
 5558TIP3    H138165   4.812   2.624  16.261 -1.6152  0.4266  0.2764
 5558TIP3    H238166   4.863   2.712  16.373  1.2929 -0.4080 -0.3046
 5559TIP3   OH238167   1.475   6.485  14.235  0.3298  0.2594 -0.3432
 5559TIP3    H138168   1.390   6.453  14.205  0.8828 -2.3525  0.6078
 5559TIP3    H238169   1.534   6.468  14.161  0.5073 -0.3087 -0.0707
 5560TIP3   OH238170   5.602   6.033   6.327 -0.1086 -0.3124  0.6756
 5560TIP3    H138171   5.629   6.013   6.237 -0.5641  1.6947  0.0434
 5560TIP3    H238172   5.578   5.948   6.364  0.0607 -1.1851 -1.1053
 5561TIP3   OH238173   5.018   1.339   0.060  0.1698 -0.3859  0.4455
 5561TIP3    H138174   5.031   1.245   0.050 -0.7323 -0.4731  0.0186
 5561TIP3    H238175   4.976   1.348   0.146  2.5500 -0.1366  1.6531
 5562TIP3   OH238176   3.849   4.886  15.195  0.3469  0.0368  0.2159
 5562TIP3    H138177   3.845   4.797  15.159 -0.8018  0.3198 -0.3973
 5562TIP3    H238178   3.853   4.874  15.290  3.2025 -0.7262  0.1056
 5563TIP3   OH238179   4.788   6.415  12.735 -0.1334  0.3472 -0.0989
 5563TIP3    H138180   4.721   6.374  12.680 -0.3241  0.5768 -0.0385
 5563TIP3    H238181   4.854   6.447  12.673 -0.3469  0.6044 -0.1958
 5564TIP3   OH238182   5.473   1.005   1.680  0.3918  0.1617  0.6710
 5564TIP3    H138183   5.486   0.918   1.641  2.8894  1.0091 -0.5728
 5564TIP3    H238184   5.548   1.017   1.738  0.7319  1.9658 -0.0871
 5565TIP3   OH238185   5.795   1.544   3.076  0.3476  0.1665  0.4807
 5565TIP3    H138186   5.764   1.487   3.146  1.6803 -0.0492  0.9330
 5565TIP3    H238187   5.756   1.509   2.996 -0.3126 -0.2478  0.9828
 5566TIP3   OH238188   1.748   0.289  11.754 -0.1746 -0.2119  0.1404
 5566TIP3    H138189   1.720   0.197  11.760  0.1759 -0.3251  0.0592
 5566TIP3    H238190   1.682   0.330  11.698  0.2179 -0.6475 -0.6597
 5567TIP3   OH238191   3.109   6.654   5.051  0.2004  0.5521 -1.0748
 5567TIP3    H138192   3.137   6.598   4.979 -0.9022  0.1289 -1.1880
 5567TIP3    H238193   3.019   6.628   5.069  0.5259  0.4478  0.6385
 5568TIP3   OH238194   4.369   4.418  14.512  0.0772 -0.0023 -0.6743
 5568TIP3    H138195   4.409   4.332  14.527  0.7589 -0.1323 -2.9398
 5568TIP3    H238196   4.443   4.478  14.503 -0.3893  0.7692  0.4389
 5569TIP3   OH238197   3.095   1.867   2.676  0.3687  0.0805 -0.8788
 5569TIP3    H138198   3.047   1.941   2.714 -0.9555  0.2113 -2.7082
 5569TIP3    H238199   3.051   1.849   2.593  1.5816 -1.8361 -1.1690
 5570TIP3   OH238200   4.729   2.313  13.339  0.4162 -0.5714 -0.3660
 5570TIP3    H138201   4.783   2.332  13.416  0.7866 -0.0512 -0.7491
 5570TIP3    H238202   4.791   2.301  13.268  0.1260 -1.9943 -0.4113
 5571TIP3   OH238203   1.098   2.890   1.496 -0.1565 -0.6961  0.3385
 5571TIP3    H138204   1.049   2.815   1.460 -2.4125  0.4290  0.8640
 5571TIP3    H238205   1.149   2.923   1.423 -1.7590 -0.7305 -0.8427
 5572TIP3   OH238206   4.060   0.302  16.499 -0.1464 -0.3160  0.1759
 5572TIP3    H138207   3.987   0.252  16.536 -2.4878  3.4065  1.0859
 5572TIP3    H238208   4.032   0.323  16.410 -0.3737  1.3675  0.6206
 5573TIP3   OH238209   5.277   0.385  15.261 -0.4905  0.4028  0.8713
 5573TIP3    H138210   5.263   0.292  15.279 -0.3137 -0.2920 -2.1216
 5573TIP3    H238211   5.194   0.426  15.284 -1.8194 -1.0818 -1.0031
 5574TIP3   OH238212   3.313   2.756  16.499 -0.4698  0.0111  0.2803
 5574TIP3    H138213   3.269   2.810  16.433  0.3361 -0.2573 -0.4957
 5574TIP3    H238214   3.269   2.671  16.494 -0.4795  0.0229  0.1666
 5575TIP3   OH238215   3.069   6.649  13.174 -0.3918 -0.8842  0.1474
 5575TIP3    H138216   3.105   6.690  13.252 -1.2984  1.0362 -0.3815
 5575TIP3    H238217   3.012   6.580  13.207 -0.0968 -0.6681  1.1440
 5576TIP3   OH238218   2.142   5.030   0.349 -0.5850  0.1198  0.0959
 5576TIP3    H138219   2.180   5.083   0.419  0.6577  1.3901 -1.4480
 5576TIP3    H238220   2.216   4.985   0.310 -1.3037 -0.8262 -0.2057
 5577TIP3   OH238221   4.856   0.105   0.930  0.0204 -0.5917  0.5098
 5577TIP3    H138222   4.931   0.105   0.870 -0.7871 -4.8270 -0.8934
 5577TIP3    H238223   4.783   0.074   0.876 -1.6454 -1.0426  2.8734
 5578TIP3   OH238224   3.785   6.143   0.644 -0.3492  0.0915  0.1516
 5578TIP3    H138225   3.700   6.114   0.610 -0.2101 -1.1617  0.8222
 5578TIP3    H238226   3.769   6.233   0.674 -0.5346  1.2218 -2.9808
 5579TIP3   OH238227   2.198   3.482   5.851 -0.0574 -0.2999  0.2037
 5579TIP3    H138228   2.264   3.448   5.912  0.1861  1.5002  1.0068
 5579TIP3    H238229   2.248   3.514   5.776  0.2030  2.2727  1.3753
 5580TIP3   OH238230   2.728   4.355  14.703 -0.2939 -0.1502 -0.3356
 5580TIP3    H138231   2.818   4.387  14.718 -0.6673 -0.1147  2.3995
 5580TIP3    H238232   2.697   4.406  14.629  0.1634  3.8787  1.9565
 5581TIP3   OH238233   1.538   5.852   0.521  0.3488  0.7489  0.0360
 5581TIP3    H138234   1.604   5.844   0.589 -1.8712 -0.4330  2.1837
 5581TIP3    H238235   1.565   5.788   0.454  1.3782  0.2982  0.8530
 5582TIP3   OH238236   2.158   2.064  11.575  0.1478  0.2539 -0.2798
 5582TIP3    H138237   2.229   2.008  11.542  0.8235  1.4228 -0.8951
 5582TIP3    H238238   2.203   2.139  11.614 -0.6972 -0.2003  1.7051
 5583TIP3   OH238239   0.717   6.209   0.727  0.3662 -0.0088  0.1314
 5583TIP3    H138240   0.667   6.255   0.793  0.4742 -0.5692  0.6141
 5583TIP3    H238241   0.714   6.117   0.754  0.8765 -0.1714 -0.3364
 5584TIP3   OH238242   2.383   6.109  14.608  0.4370  0.2081  0.3618
 5584TIP3    H138243   2.388   6.084  14.516  0.6546  1.6647 -0.0562
 5584TIP3    H238244   2.328   6.042  14.649 -0.5881  0.1501 -1.0643
 5585TIP3   OH238245   0.681   2.721  11.512  0.3906 -0.2063 -0.2204
 5585TIP3    H138246   0.719   2.714  11.424 -0.0731 -0.0796 -0.4318
 5585TIP3    H238247   0.684   2.632  11.546  1.6378 -0.0596  0.0890
 5586TIP3   OH238248   5.049   5.821   1.012  0.5361 -0.6264 -0.9206
 5586TIP3    H138249   5.046   5.857   1.101 -0.1711 -3.2648  0.2310
 5586TIP3    H238250   5.126   5.764   1.013  0.6701 -0.4793 -2.1147
 5587TIP3   OH238251   2.146   0.066  15.364 -0.4167  0.6706  0.5503
 5587TIP3    H138252   2.201   0.140  15.338 -0.5027 -0.0095 -1.7320
 5587TIP3    H238253   2.173   0.046  15.454  2.4882  0.8635 -0.2037
 5588TIP3   OH238254   2.517   3.039  14.055  0.5918 -0.1816 -0.0519
 5588TIP3    H138255   2.558   3.019  14.139  0.1775  1.2934  0.5250
 5588TIP3    H238256   2.572   2.994  13.991  1.5588 -0.4232  0.9179
 5589TIP3   OH238257   3.823   1.855   2.000 -0.2836 -0.0953 -0.1973
 5589TIP3    H138258   3.867   1.847   2.085  0.1620 -3.1007 -0.6068
 5589TIP3    H238259   3.735   1.885   2.021 -0.5092 -1.7682  1.4749
 5590TIP3   OH238260   4.838   5.085   0.944  0.0561  0.3229 -0.2798
 5590TIP3    H138261   4.831   5.156   1.008 -1.3719  0.6398 -0.7655
 5590TIP3    H238262   4.861   5.008   0.996 -1.0442  0.5805  0.6299
 5591TIP3   OH238263   0.689   5.753  11.034  0.3475 -0.1811  0.5093
 5591TIP3    H138264   0.774   5.763  11.079  0.0200  0.4352  1.0095
 5591TIP3    H238265   0.706   5.787  10.946  0.1633  1.7249  1.1593
 5592TIP3   OH238266   0.750   5.632  16.929 -0.5145 -0.3682 -0.3619
 5592TIP3    H138267   0.695   5.626  17.006 -0.3812  1.1395 -0.1154
 5592TIP3    H238268   0.716   5.707  16.880 -0.6318 -1.3123 -1.8070
 5593TIP3   OH238269   3.095   5.788  11.836  0.3296  0.6048 -0.1008
 5593TIP3    H138270   3.171   5.741  11.803  2.6803  3.5761  0.6756
 5593TIP3    H238271   3.051   5.726  11.894  1.9638 -1.2851 -0.7761
 5594TIP3   OH238272   1.541   0.134   4.928 -0.5526 -0.0154 -0.0506
 5594TIP3    H138273   1.597   0.094   4.994 -0.6229  1.4957  0.9817
 5594TIP3    H238274   1.600   0.158   4.856  0.3447  2.1487  1.2909
 5595TIP3   OH238275   3.330   0.718   0.150 -0.3729  0.3749 -0.4445
 5595TIP3    H138276   3.400   0.734   0.213 -0.9793 -0.9458  0.6109
 5595TIP3    H238277   3.373   0.724   0.065  0.8033  0.6268  0.1453
 5596TIP3   OH238278   0.702   6.737   1.013 -0.0251 -0.2894  0.1009
 5596TIP3    H138279   0.658   6.782   0.941  0.3316 -0.8173 -0.4542
 5596TIP3    H238280   0.633   6.688   1.058 -0.8159  2.2608  1.9038
 5597TIP3   OH238281   2.143   0.343   4.336  0.2771  0.0648 -0.3614
 5597TIP3    H138282   2.152   0.387   4.420 -0.7098  0.8675 -0.6473
 5597TIP3    H238283   2.201   0.392   4.277  0.5762 -0.1744 -0.2670
 5598TIP3   OH238284   0.976   3.223   5.557  0.2229 -0.0204  0.1089
 5598TIP3    H138285   0.948   3.142   5.514 -0.6339  0.7629 -0.8662
 5598TIP3    H238286   1.070   3.211   5.570  0.4625 -0.4560 -1.6850
 5599TIP3   OH238287   5.216   5.360   2.596 -0.0364  0.3445 -0.1462
 5599TIP3    H138288   5.179   5.281   2.635  2.7267 -0.5103  0.9922
 5599TIP3    H238289   5.295   5.377   2.647 -1.8586  5.5244  1.5266
 5600TIP3   OH238290   3.958   3.860  11.277  0.0187  0.1668 -0.1695
 5600TIP3    H138291   3.995   3.835  11.362 -0.0259 -0.5298 -0.3435
 5600TIP3    H238292   3.911   3.781  11.248  1.0783 -0.0416 -1.4055
 5601TIP3   OH238293   4.958   5.035   3.894 -0.4882  0.2977  0.6404
 5601TIP3    H138294   5.049   5.064   3.902  0.1588 -0.7204 -2.1333
 5601TIP3    H238295   4.954   4.952   3.943 -0.2153  0.8051  1.5520
 5602TIP3   OH238296   6.201   3.086   5.914 -0.4618 -0.7041  0.3131
 5602TIP3    H138297   6.175   3.091   6.006 -1.4811 -1.4156  0.0837
 5602TIP3    H238298   6.210   3.177   5.886  0.3012 -0.4817  1.2213
 5603TIP3   OH238299   2.162   4.718  16.681  0.0391 -0.2309 -0.1835
 5603TIP3    H138300   2.248   4.699  16.643 -0.0961 -0.5921 -0.3157
 5603TIP3    H238301   2.103   4.721  16.605 -0.3907 -1.8412  0.0665
 5604TIP3   OH238302   4.788   0.155  12.253  0.0214 -0.4605  0.3169
 5604TIP3    H138303   4.828   0.239  12.231  0.9696 -1.2871 -1.3457
 5604TIP3    H238304   4.713   0.148  12.194  1.0780 -1.5866 -0.9596
 5605TIP3   OH238305   1.148   4.231   3.237 -0.0177 -0.1877 -0.8430
 5605TIP3    H138306   1.224   4.176   3.218 -0.4743 -0.9571 -0.4621
 5605TIP3    H238307   1.075   4.188   3.194 -0.5336 -0.3626  0.1798
 5606TIP3   OH238308   6.109   0.127  13.691  0.4526  0.2043 -0.1192
 5606TIP3    H138309   6.138   0.195  13.630  0.0199  0.0905 -0.4660
 5606TIP3    H238310   6.185   0.070  13.702  0.2850 -0.2606 -1.2459
 5607TIP3   OH238311   6.095   3.527  11.630 -0.3843 -0.4410 -0.1762
 5607TIP3    H138312   6.029   3.535  11.699  0.1889 -0.3243  0.3602
 5607TIP3    H238313   6.072   3.446  11.585 -0.6021 -0.6581  0.3209
 5608TIP3   OH238314   6.542   3.072  16.559  0.1853  0.1291  0.2085
 5608TIP3    H138315   6.590   3.144  16.600  2.0255 -0.2317 -1.2013
 5608TIP3    H238316   6.581   2.993  16.597  2.6180 -0.2592 -2.7175
 5609TIP3   OH238317   3.584   0.218   2.780  0.6589 -0.5657 -0.1343
 5609TIP3    H138318   3.537   0.299   2.797  2.3537  0.2887  0.6884
 5609TIP3    H238319   3.633   0.234   2.699  1.4524 -0.5338  0.3397
 5610TIP3   OH238320   2.193   4.901  13.148 -0.4603 -0.2519  0.2634
 5610TIP3    H138321   2.107   4.885  13.187 -0.5111 -0.0436  0.2359
 5610TIP3    H238322   2.218   4.988  13.180  0.0453 -0.5974  0.8338
 5611TIP3   OH238323   3.315   0.867   3.197 -0.2653  0.1530 -0.2122
 5611TIP3    H138324   3.315   0.902   3.108  0.3227  2.1962  0.5266
 5611TIP3    H238325   3.373   0.926   3.246 -1.0276 -0.5527  1.6432
 5612TIP3   OH238326   3.112   5.582  12.366  0.2141 -0.0908 -0.6972
 5612TIP3    H138327   3.207   5.571  12.372 -0.0180 -1.5774  2.6441
 5612TIP3    H238328   3.096   5.668  12.404  0.1782 -0.3135 -0.1973
 5613TIP3   OH238329   5.330   0.300  11.278 -0.4194 -0.1177  0.3730
 5613TIP3    H138330   5.355   0.230  11.217 -0.7928  1.9950 -2.4340
 5613TIP3    H238331   5.282   0.256  11.347 -1.0980 -2.5986 -1.5232
 5614TIP3   OH238332   2.214   6.072   5.758  0.1037  0.1000 -0.6430
 5614TIP3    H138333   2.275   6.139   5.728  0.9004  0.6032  1.9146
 5614TIP3    H238334   2.268   6.006   5.800 -0.8592 -1.1553 -1.3031
 5615TIP3   OH238335   1.533   2.352   1.682  0.1020  0.2803 -0.1423
 5615TIP3    H138336   1.542   2.310   1.767 -0.2952 -0.5288 -0.4938
 5615TIP3    H238337   1.563   2.286   1.619 -1.4660  0.1483 -0.7824
 5616TIP3   OH238338   6.353   6.093  10.580 -0.1207  0.1296  0.1087
 5616TIP3    H138339   6.341   6.006  10.543 -1.0920  1.5102 -3.1666
 5616TIP3    H238340   6.447   6.109  10.572 -0.0692 -0.2838 -0.1472
 5617TIP3   OH238341   3.618   3.498   6.324 -0.4283 -0.0023  0.2027
 5617TIP3    H138342   3.564   3.533   6.253  0.0914 -0.5194 -0.4586
 5617TIP3    H238343   3.649   3.575   6.371 -1.7334  0.3029  0.5950
 5618TIP3   OH238344   4.806   6.559   6.208  0.2145 -0.1296  0.4801
 5618TIP3    H138345   4.778   6.596   6.292 -2.6337 -2.2777  0.6144
 5618TIP3    H238346   4.851   6.478   6.231  1.8795  0.6048 -0.0247
 5619TIP3   OH238347   2.179   6.419   6.202 -0.1002 -0.1416 -0.0719
 5619TIP3    H138348   2.107   6.360   6.226  1.4652 -2.0208  0.2025
 5619TIP3    H238349   2.212   6.385   6.119  0.8312  0.3616  0.0824
 5620TIP3   OH238350   1.512   6.267  15.522  0.1400  0.5207 -0.3130
 5620TIP3    H138351   1.416   6.270  15.513  0.1141 -2.3079 -1.9635
 5620TIP3    H238352   1.544   6.255  15.433  2.0320  0.7316  0.2977
 5621TIP3   OH238353   3.821   0.246  14.530 -0.5903 -0.0063  0.1996
 5621TIP3    H138354   3.908   0.246  14.489 -0.5123 -0.3872  0.3628
 5621TIP3    H238355   3.820   0.327  14.581  1.8091 -2.3700  4.6406
 5622TIP3   OH238356   3.050   5.936   1.587  0.1763 -0.4347  0.1817
 5622TIP3    H138357   3.022   5.928   1.495  0.3892  0.1768  0.0553
 5622TIP3    H238358   3.139   5.902   1.588 -0.2572 -1.6121  0.4202
 5623TIP3   OH238359   1.453   3.937  11.007  0.0445  0.5747  0.2550
 5623TIP3    H138360   1.379   3.961  11.062 -0.7226 -0.1954 -0.4051
 5623TIP3    H238361   1.421   3.948  10.917 -0.1528 -2.0973 -0.1037
 5624TIP3   OH238362   0.706   2.801   1.916  0.1245 -0.2680 -0.0808
 5624TIP3    H138363   0.711   2.886   1.961  0.5266 -0.7864  0.8834
 5624TIP3    H238364   0.797   2.781   1.894 -0.0637 -0.0411 -1.1205
 5625TIP3   OH238365   1.445   1.225   5.643 -0.1268  0.4763  0.0047
 5625TIP3    H138366   1.481   1.137   5.644  0.5135  0.7375  0.5383
 5625TIP3    H238367   1.400   1.232   5.558  0.0358 -0.2682 -0.1446
 5626TIP3   OH238368   5.170   1.805   5.526 -0.6550 -0.0788 -0.7138
 5626TIP3    H138369   5.124   1.732   5.567  0.2272 -0.3006 -0.0832
 5626TIP3    H238370   5.185   1.867   5.597  0.9629 -0.5014 -0.6390
 5627TIP3   OH238371   1.924   0.530   1.921 -0.1378  0.5360  0.4415
 5627TIP3    H138372   1.837   0.554   1.953  0.2243  0.9450  1.1292
 5627TIP3    H238373   1.937   0.441   1.954  0.2326  0.9560  1.4371
 5628TIP3   OH238374   6.565   0.851   3.646 -0.0813 -0.6657 -0.2190
 5628TIP3    H138375   6.488   0.893   3.608 -0.4842  0.7010  1.8929
 5628TIP3    H238376   6.558   0.759   3.619 -1.4865 -0.2285 -1.5149
 5629TIP3   OH238377   5.975   5.971  12.243 -0.5676  0.3231  0.2701
 5629TIP3    H138378   5.892   5.991  12.285 -0.8367  0.5713 -0.3618
 5629TIP3    H238379   5.969   5.879  12.217 -0.5882  0.3015  0.3537
 5630TIP3   OH238380   4.518   2.748  12.305 -0.0597 -0.1121  0.1828
 5630TIP3    H138381   4.447   2.700  12.346 -0.8381  1.5398  0.8544
 5630TIP3    H238382   4.589   2.684  12.296 -0.9937 -1.3208  1.1463
 5631TIP3   OH238383   3.296   3.262   2.117 -0.2988  0.6489 -0.6444
 5631TIP3    H138384   3.211   3.230   2.087 -0.9203  1.8661 -0.2148
 5631TIP3    H238385   3.306   3.347   2.074  1.0217  0.2229 -1.2281
 5632TIP3   OH238386   0.702   4.326   3.861  0.3927  0.3588  0.1884
 5632TIP3    H138387   0.690   4.331   3.956 -0.3041  0.0102  0.1308
 5632TIP3    H238388   0.614   4.309   3.827  0.5308  1.1201 -0.5746
 5633TIP3   OH238389   0.141   5.856   3.458  0.0261  0.2526  0.0441
 5633TIP3    H138390   0.187   5.773   3.462  1.0648  0.8543  1.2520
 5633TIP3    H238391   0.131   5.883   3.549  1.3216  2.2883 -0.3564
 5634TIP3   OH238392   1.542   3.110   4.702 -0.1082 -0.6626  0.1761
 5634TIP3    H138393   1.506   3.039   4.649  3.4281 -1.1209 -1.8981
 5634TIP3    H238394   1.571   3.067   4.783 -2.2229 -0.6195  1.0187
 5635TIP3   OH238395   1.521   4.243   2.064  0.5292 -0.3601  0.2510
 5635TIP3    H138396   1.527   4.277   2.153 -1.1896  1.0197 -0.1208
 5635TIP3    H238397   1.434   4.203   2.059 -0.1991  1.3032 -1.3473
 5636TIP3   OH238398   4.863   1.023  14.139  0.4051  0.3306 -0.4100
 5636TIP3    H138399   4.826   0.954  14.084 -0.3052 -0.8181  1.4322
 5636TIP3    H238400   4.812   1.101  14.116  0.2531 -0.0711 -1.5040
 5637TIP3   OH238401   0.183   5.843   0.035  0.4082 -0.2057 -0.0820
 5637TIP3    H138402   0.259   5.829  -0.020  1.5972  1.4141  1.0493
 5637TIP3    H238403   0.208   5.809   0.121 -0.7337 -1.0544 -0.0597
 5638TIP3   OH238404   0.001   5.489  14.470  0.1920  0.2742  0.0077
 5638TIP3    H138405  -0.071   5.499  14.408  0.6529  2.6351 -0.2609
 5638TIP3    H238406  -0.040   5.482  14.556 -0.3966 -1.4213 -0.3723
 5639TIP3   OH238407   4.684   0.743  15.554 -0.4769 -0.1928  0.2931
 5639TIP3    H138408   4.657   0.832  15.534  2.6470  0.7073 -0.4273
 5639TIP3    H238409   4.697   0.742  15.649  0.0466  0.3128  0.2302
 5640TIP3   OH238410   1.736   3.101  11.368 -0.3453  0.4778 -0.2568
 5640TIP3    H138411   1.799   3.037  11.402  0.9425  1.8535  0.0529
 5640TIP3    H238412   1.678   3.119  11.442 -1.4679 -1.1582 -0.6831
 5641TIP3   OH238413   2.157   4.556   3.921  0.5712  0.4146  0.2532
 5641TIP3    H138414   2.244   4.542   3.882 -0.3855 -1.3932 -1.4115
 5641TIP3    H238415   2.144   4.481   3.978 -0.1370  0.3416  0.0057
 5642TIP3   OH238416   1.427   5.100   1.365 -0.1692  0.4756 -0.0829
 5642TIP3    H138417   1.490   5.133   1.301  2.4043 -0.7675  1.6412
 5642TIP3    H238418   1.350   5.075   1.313  1.6720 -0.2258 -2.6482
 5643TIP3   OH238419   1.792   5.037  13.912 -0.3768 -0.3585  0.0852
 5643TIP3    H138420   1.731   5.075  13.849 -0.9916 -1.0911  0.2225
 5643TIP3    H238421   1.822   4.957  13.871 -1.3524 -1.2309  1.0042
 5644TIP3   OH238422   4.980   1.358   1.780 -0.2013  0.0363 -0.0154
 5644TIP3    H138423   4.991   1.359   1.685  1.0927  1.4670  0.1053
 5644TIP3    H238424   5.049   1.416   1.812 -0.0289 -1.1464  1.8703
 5645TIP3   OH238425   6.555   3.781  12.648  0.0680  0.5420 -0.0663
 5645TIP3    H138426   6.603   3.786  12.565 -2.7423  0.9796 -1.8224
 5645TIP3    H238427   6.536   3.871  12.671 -0.8946  0.3449 -0.0566
 5646TIP3   OH238428   6.385   4.050  12.075 -0.0325 -0.2919  0.2865
 5646TIP3    H138429   6.404   3.975  12.019  1.6209  0.4370 -0.1902
 5646TIP3    H238430   6.309   4.023  12.126 -1.7325 -0.9386 -2.3743
 5647TIP3   OH238431   1.923   3.237   4.230 -0.2520  0.3764 -0.2791
 5647TIP3    H138432   1.858   3.270   4.167 -0.3753 -0.8381 -0.8163
 5647TIP3    H238433   1.881   3.160   4.268  0.2701  0.4714  0.5005
 5648TIP3   OH238434   3.662   0.157   5.357 -0.6121 -0.0634  0.3075
 5648TIP3    H138435   3.674   0.082   5.299  3.4648  1.4307 -1.1575
 5648TIP3    H238436   3.716   0.136   5.434 -0.0186  1.0226  0.2049
 5649TIP3   OH238437   1.346   1.177  16.693 -0.2977 -0.4108 -0.3628
 5649TIP3    H138438   1.299   1.184  16.776  0.6454  0.4223  0.1171
 5649TIP3    H238439   1.280   1.144  16.631 -1.4621  0.5056  0.3316
 5650TIP3   OH238440   4.846   2.688   6.265 -0.0847 -0.2405  0.0049
 5650TIP3    H138441   4.935   2.713   6.289 -0.6369  2.2140 -0.2240
 5650TIP3    H238442   4.802   2.672   6.348  0.1201  0.2010  0.1985
 5651TIP3   OH238443   1.615   6.590   4.925 -0.1203 -0.4550 -0.4430
 5651TIP3    H138444   1.707   6.618   4.922 -0.1212 -0.2126  1.1598
 5651TIP3    H238445   1.595   6.584   5.018 -2.2097  1.0622 -0.7408
 5652TIP3   OH238446   5.268   0.457  15.835 -0.2989  0.0683 -0.2967
 5652TIP3    H138447   5.328   0.479  15.764 -0.7637 -0.1307 -0.7531
 5652TIP3    H238448   5.235   0.370  15.813 -0.1768 -0.1476  0.3465
 5653TIP3   OH238449   4.393   4.636   6.851  0.1344 -0.0440  0.0665
 5653TIP3    H138450   4.350   4.666   6.771 -0.8007 -4.0201 -1.1440
 5653TIP3    H238451   4.481   4.673   6.847 -0.4721  1.3192 -1.8270
 5654TIP3   OH238452   3.733   5.943   3.052 -0.0142  0.1607  0.2708
 5654TIP3    H138453   3.658   5.884   3.052  0.4833 -0.4816 -0.3475
 5654TIP3    H238454   3.809   5.886   3.042  0.4069  0.9548 -1.5041
 5655TIP3   OH238455   2.675   0.102  12.466 -0.9823  0.3042  0.1363
 5655TIP3    H138456   2.642   0.186  12.436 -2.0660  0.1553  0.8505
 5655TIP3    H238457   2.713   0.121  12.552  0.2426  0.3545 -0.4049
 5656TIP3   OH238458   6.610   0.010   3.256 -0.1003  0.2835 -0.3687
 5656TIP3    H138459   6.659  -0.058   3.209 -0.5560  0.4053 -1.0379
 5656TIP3    H238460   6.563   0.057   3.187  1.6691  2.5251 -0.1228
 5657TIP3   OH238461   0.197   2.335   1.063  0.1016 -0.5070  0.9557
 5657TIP3    H138462   0.150   2.254   1.082 -0.7043 -0.1542  0.5028
 5657TIP3    H238463   0.142   2.404   1.100  0.4514 -0.1164  0.7524
 5658TIP3   OH238464   6.615   1.177   1.447 -0.5253 -0.0609  0.2449
 5658TIP3    H138465   6.570   1.260   1.428 -0.9434 -0.5697 -1.1400
 5658TIP3    H238466   6.602   1.125   1.367  1.1904 -0.8183  0.4313
 5659TIP3   OH238467   4.932   5.887   0.593 -0.4563 -0.3245  0.0529
 5659TIP3    H138468   5.017   5.932   0.585 -0.6082 -0.1756 -0.9154
 5659TIP3    H238469   4.934   5.821   0.523 -0.6268 -1.1936  0.8485
 5660TIP3   OH238470   1.458   6.025   3.272 -0.5256 -0.4676  0.2880
 5660TIP3    H138471   1.389   5.960   3.287  0.7999 -2.3829 -1.4129
 5660TIP3    H238472   1.512   6.019   3.351 -0.6218 -1.1598  0.3105
 5661TIP3   OH238473   6.774   1.915  10.993  0.2123  0.4720 -0.0280
 5661TIP3    H138474   6.849   1.875  10.949 -0.4830  0.6584 -1.4461
 5661TIP3    H238475   6.782   2.008  10.975 -0.2518  0.5140 -0.0388
 5662TIP3   OH238476   2.358   2.592   1.911  0.4886  0.6373  0.0481
 5662TIP3    H138477   2.408   2.555   1.838  0.1490 -0.8989  0.5648
 5662TIP3    H238478   2.267   2.571   1.891  0.3774  0.3470  0.8238
 5663TIP3   OH238479   1.416   2.236   2.549 -0.8403 -0.0480 -0.8907
 5663TIP3    H138480   1.326   2.264   2.563 -0.8312 -0.0641 -0.7947
 5663TIP3    H238481   1.467   2.289   2.612 -0.9303 -0.9564 -0.0257
 5664TIP3   OH238482   3.849   5.885  14.708  0.5046  0.0715 -0.2593
 5664TIP3    H138483   3.764   5.878  14.664  0.7946 -0.9495 -0.6666
 5664TIP3    H238484   3.850   5.975  14.742 -0.9674 -0.0593  0.2227
 5665TIP3   OH238485   3.258   3.232  11.786  0.3118  0.1819 -0.0864
 5665TIP3    H138486   3.168   3.218  11.815  0.0415 -0.4068 -1.1484
 5665TIP3    H238487   3.260   3.324  11.760 -0.3033 -0.0470 -1.0368
 5666TIP3   OH238488   5.704   0.205  12.978  0.6873  0.1115 -0.2614
 5666TIP3    H138489   5.729   0.227  13.067 -0.6549 -1.0155  0.4390
 5666TIP3    H238490   5.678   0.113  12.982  2.6630 -0.6283 -2.2815
 5667TIP3   OH238491   2.042   5.970  13.088 -0.2991  0.4157  0.1616
 5667TIP3    H138492   2.014   6.060  13.105  1.7186  0.8748  1.4283
 5667TIP3    H238493   1.980   5.937  13.023 -1.2317  2.6306 -0.1548
 5668TIP3   OH238494   6.073   5.455   1.039  0.3269 -0.3206  0.1169
 5668TIP3    H138495   5.986   5.463   0.999  1.3919 -0.2349 -2.3691
 5668TIP3    H238496   6.092   5.361   1.037 -0.5323 -0.6151  2.6988
 5669TIP3   OH238497   5.805   2.600   3.033 -0.3771  0.3504  0.4683
 5669TIP3    H138498   5.864   2.656   3.083 -1.4440 -0.3023  2.5976
 5669TIP3    H238499   5.724   2.650   3.026 -0.0054  0.7563 -1.3861
 5670TIP3   OH238500   2.711   2.977   4.860  0.4711 -0.2785 -0.3595
 5670TIP3    H138501   2.682   2.896   4.819 -0.9028  0.2585 -0.4916
 5670TIP3    H238502   2.805   2.981   4.840  0.5286 -1.7360 -0.4900
 5671TIP3   OH238503   5.694   4.449  13.564 -0.0744  0.2317 -0.1394
 5671TIP3    H138504   5.730   4.510  13.629  0.5529 -1.3964  1.0853
 5671TIP3    H238505   5.600   4.467  13.565 -0.1662 -0.1689  1.7003
 5672TIP3   OH238506   0.176   4.251   5.448 -0.7264  0.6086  0.3345
 5672TIP3    H138507   0.199   4.302   5.369 -0.2764 -2.2561 -1.5315
 5672TIP3    H238508   0.081   4.256   5.452 -0.7544  0.8806 -0.3545
 5673TIP3   OH238509   0.110   2.103  11.214 -0.5946  0.5727  0.7179
 5673TIP3    H138510   0.088   2.156  11.137 -0.7354  1.1138  1.1278
 5673TIP3    H238511   0.033   2.111  11.270 -1.3924 -1.5091  0.0221
 5674TIP3   OH238512   4.683   6.662  11.629  0.4308 -0.2257  0.3842
 5674TIP3    H138513   4.596   6.650  11.667 -0.5270 -1.2049 -1.9401
 5674TIP3    H238514   4.736   6.592  11.667 -0.3583 -0.8831  0.3003
 5675TIP3   OH238515   2.533   0.351  11.982 -0.6341 -0.8064 -0.1920
 5675TIP3    H138516   2.596   0.326  12.049  0.1978 -0.2374 -0.7378
 5675TIP3    H238517   2.492   0.269  11.955  1.8126 -1.6396 -1.7409
 5676TIP3   OH238518   6.696   2.612   6.441  0.3241 -0.0492  0.2826
 5676TIP3    H138519   6.667   2.537   6.493  0.7878  0.4176  1.2505
 5676TIP3    H238520   6.790   2.600   6.431  0.6358  1.0104  1.5441
 5677TIP3   OH238521   2.947   4.449  10.683 -0.2462  0.1497  0.0313
 5677TIP3    H138522   2.856   4.422  10.697  0.0121 -0.3024  0.8652
 5677TIP3    H238523   2.942   4.509  10.608 -1.4843  1.4469  1.0695
 5678TIP3   OH238524   4.843   6.448  13.256 -0.2132 -0.8267 -0.2353
 5678TIP3    H138525   4.902   6.466  13.329  1.2381 -0.3849 -1.4699
 5678TIP3    H238526   4.783   6.381  13.289  0.6152 -0.8662  1.2468
 5679TIP3   OH238527   1.703   3.795   4.186  0.5291 -0.1889 -0.1195
 5679TIP3    H138528   1.732   3.734   4.254  1.5265 -0.6963 -0.9765
 5679TIP3    H238529   1.658   3.864   4.234 -0.1490 -1.3071  0.9282
 5680TIP3   OH238530   6.128   4.444  12.790  0.4040  0.9342 -0.0383
 5680TIP3    H138531   6.088   4.358  12.771  0.8225  0.5415  0.8067
 5680TIP3    H238532   6.055   4.497  12.822  0.3819  0.4675  0.7229
 5681TIP3   OH238533   0.803   2.232  11.599 -0.7014 -0.0464  0.0477
 5681TIP3    H138534   0.841   2.292  11.663  0.6146 -1.3160  0.5116
 5681TIP3    H238535   0.777   2.155  11.650 -1.6760 -0.1995 -0.6389
 5682TIP3   OH238536   3.816   1.263   6.396  0.1253 -0.2746  0.4401
 5682TIP3    H138537   3.902   1.221   6.405 -0.6501 -2.0979 -0.2108
 5682TIP3    H238538   3.760   1.196   6.358 -1.1749  1.4241 -0.8240
 5683TIP3   OH238539   4.710   3.570   2.147  0.0044  0.2986  0.4173
 5683TIP3    H138540   4.684   3.555   2.056  2.9098  0.4784 -0.5652
 5683TIP3    H238541   4.644   3.525   2.199 -1.8837  0.3846 -1.7589
 5684TIP3   OH238542   0.837   4.182   2.853 -0.2235  0.0419 -0.0499
 5684TIP3    H138543   0.871   4.271   2.851  3.4354 -1.1344  1.2485
 5684TIP3    H238544   0.844   4.152   2.762 -0.3687  0.7100 -0.2868
 5685TIP3   OH238545   2.832   2.841  16.784 -0.7572  0.6091  0.1227
 5685TIP3    H138546   2.884   2.765  16.813 -2.3700  0.1527  2.0289
 5685TIP3    H238547   2.841   2.840  16.689 -0.2318 -1.6197  0.1266
 5686TIP3   OH238548   1.892   3.229  15.803 -0.3209  0.2732  0.2156
 5686TIP3    H138549   1.921   3.319  15.791  2.4609 -0.4396  0.9067
 5686TIP3    H238550   1.803   3.228  15.768  0.3173  2.7802 -1.8138
 5687TIP3   OH238551   2.876   3.807  16.871  0.1644 -0.2285 -0.6992
 5687TIP3    H138552   2.971   3.798  16.875  0.0875 -0.6740  1.2074
 5687TIP3    H238553   2.844   3.742  16.934 -1.3607  0.4628 -0.7280
 5688TIP3   OH238554   4.519   1.653   2.518  0.3006  0.2971  0.0158
 5688TIP3    H138555   4.522   1.736   2.565 -0.2070 -0.2512  1.0815
 5688TIP3    H238556   4.459   1.599   2.570  1.0838 -0.9341 -0.3063
 5689TIP3   OH238557   1.778   4.294  16.260 -0.4829  0.6422 -0.0500
 5689TIP3    H138558   1.778   4.227  16.192 -1.8322  1.7195 -1.1484
 5689TIP3    H238559   1.701   4.274  16.313 -0.4639  0.8893  0.0694
 5690TIP3   OH238560   2.326   6.272  10.538  0.2460  0.0848  0.8708
 5690TIP3    H138561   2.313   6.366  10.527  3.4265  0.7053  1.1949
 5690TIP3    H238562   2.412   6.265  10.579  0.3735 -2.9973  0.3374
 5691TIP3   OH238563   6.768   4.490  15.212 -0.0603 -0.0007  0.3300
 5691TIP3    H138564   6.688   4.520  15.256  1.1115  1.7036  1.4220
 5691TIP3    H238565   6.738   4.462  15.125 -1.8935  0.2037  0.8525
 5692TIP3   OH238566   5.616   0.530   3.228  0.0947 -0.1752  0.5879
 5692TIP3    H138567   5.642   0.587   3.301 -1.7367 -0.6245  1.6754
 5692TIP3    H238568   5.690   0.471   3.217  0.7245  0.3768  1.5976
 5693TIP3   OH238569   1.579   1.780  12.778  0.1996  0.3494 -0.3037
 5693TIP3    H138570   1.520   1.707  12.797  0.4251  0.7659  2.3860
 5693TIP3    H238571   1.522   1.848  12.743 -0.9286  0.5955  1.8637
 5694TIP3   OH238572   0.352   0.893   1.783  0.1024 -0.0106 -0.1888
 5694TIP3    H138573   0.431   0.870   1.734  1.4743  0.6290  1.6064
 5694TIP3    H238574   0.358   0.840   1.863  0.3370  2.2242  1.3677
 5695TIP3   OH238575   2.817   3.501  12.040  0.5427  0.0089 -0.6905
 5695TIP3    H138576   2.769   3.564  12.095  2.0769  1.3936 -0.8743
 5695TIP3    H238577   2.850   3.553  11.967  0.5158 -1.3493 -1.7051
 5696TIP3   OH238578   3.086   6.762  16.948  0.1743  0.9853  0.1310
 5696TIP3    H138579   3.089   6.815  16.868 -0.2075 -0.0176 -0.5792
 5696TIP3    H238580   3.096   6.672  16.916  2.6142  0.7288  1.4488
 5697TIP3   OH238581   4.488   3.731  12.577  0.1197 -0.3990  0.7299
 5697TIP3    H138582   4.437   3.663  12.533  0.8984  0.3113 -1.4080
 5697TIP3    H238583   4.433   3.759  12.650 -0.7856 -2.3719  0.8839
 5698TIP3   OH238584   5.329   0.068  12.741 -0.3394 -0.6922 -0.3653
 5698TIP3    H138585   5.247   0.107  12.773 -0.2656 -0.3564 -0.5870
 5698TIP3    H238586   5.303   0.021  12.662 -0.2702 -0.3676 -0.5808
 5699TIP3   OH238587   1.346   6.759  12.545 -0.3890 -0.0499 -0.0232
 5699TIP3    H138588   1.310   6.753  12.456 -0.9906 -0.6487  0.2542
 5699TIP3    H238589   1.388   6.845  12.548 -1.5007  0.5269 -0.4628
 5700TIP3   OH238590   2.290   6.398   4.793 -0.1731 -0.2649  0.6227
 5700TIP3    H138591   2.260   6.342   4.864  1.0285 -3.0756 -0.9187
 5700TIP3    H238592   2.364   6.350   4.754  0.9185  2.4034 -0.8741
 5701TIP3   OH238593   1.951   2.059  14.198  0.2156 -0.2847 -0.1575
 5701TIP3    H138594   1.958   1.980  14.145 -1.5019 -0.1686 -0.5931
 5701TIP3    H238595   1.974   2.030  14.286 -1.0158 -1.4319 -0.1822
 5702TIP3   OH238596   6.359   0.627  15.068  0.0420  0.4954 -0.0656
 5702TIP3    H138597   6.266   0.606  15.079 -0.2422  1.5480 -0.3500
 5702TIP3    H238598   6.378   0.601  14.977  0.1455 -0.1117  0.1235
 5703TIP3   OH238599   1.002   5.775  14.428  0.6773 -0.1379 -0.4451
 5703TIP3    H138600   1.022   5.683  14.413  1.2601  0.0163 -0.6152
 5703TIP3    H238601   0.958   5.776  14.514  1.4343 -0.4680 -0.0470
 5704TIP3   OH238602   1.945   6.596   3.536  0.3692  0.3662  0.1267
 5704TIP3    H138603   2.027   6.584   3.583  0.1789 -2.9891 -0.1420
 5704TIP3    H238604   1.879   6.605   3.606  0.5277 -0.9126  0.4624
 5705TIP3   OH238605   3.020   3.193  11.932  0.3986 -0.4641  0.5965
 5705TIP3    H138606   2.938   3.157  11.967  1.1326 -2.0119  0.7823
 5705TIP3    H238607   3.023   3.282  11.967 -1.0057 -0.5084  0.9048
 5706TIP3   OH238608   3.941   1.405   5.459  0.2491  0.0821  0.1919
 5706TIP3    H138609   3.976   1.419   5.547 -0.0176  2.8079 -0.0667
 5706TIP3    H238610   3.872   1.340   5.471  0.4196  0.1691  1.9269
 5707TIP3   OH238611   5.778   2.129   2.603 -0.3254  0.4346  0.4394
 5707TIP3    H138612   5.715   2.139   2.532  2.6352  3.3023 -2.1213
 5707TIP3    H238613   5.840   2.063   2.571 -0.6583 -0.6064  1.8470
 5708TIP3   OH238614   0.529   5.557  10.416  0.5222 -0.3139 -0.3005
 5708TIP3    H138615   0.595   5.525  10.478  0.2446 -1.7307 -0.6870
 5708TIP3    H238616   0.532   5.494  10.344 -0.8763 -0.0990 -0.5762
 5709TIP3   OH238617   2.311   6.272   0.405  0.4029  0.0218 -0.0521
 5709TIP3    H138618   2.316   6.271   0.309  0.2126 -1.2371 -0.0642
 5709TIP3    H238619   2.222   6.245   0.424 -0.1708  2.1134  0.4780
 5710TIP3   OH238620   0.940   6.399  14.172  0.2212  0.1175  0.3673
 5710TIP3    H138621   0.905   6.334  14.111 -1.2317 -0.0440  1.3182
 5710TIP3    H238622   0.990   6.347  14.235 -0.1489  0.0150  0.5823
 5711TIP3   OH238623   6.391   2.339   4.407 -0.2895  0.6880 -0.1316
 5711TIP3    H138624   6.425   2.265   4.457 -1.0539 -1.9256 -3.1326
 5711TIP3    H238625   6.301   2.314   4.385  0.1074  1.4049 -3.0636
 5712TIP3   OH238626   3.991   4.604  12.783  0.4489  0.3993 -0.1101
 5712TIP3    H138627   3.912   4.652  12.757 -0.3561 -1.8638 -2.2490
 5712TIP3    H238628   4.048   4.609  12.707  1.5695  0.3379  0.7015
 5713TIP3   OH238629   6.026   3.241   4.953  0.3997 -0.1764  0.0844
 5713TIP3    H138630   6.088   3.274   5.018  0.4460 -0.4279  0.1660
 5713TIP3    H238631   6.068   3.163   4.917  0.9414  0.6269 -1.1193
 5714TIP3   OH238632   0.494   2.969   6.001  0.4568 -0.8125 -0.5675
 5714TIP3    H138633   0.553   2.903   6.039 -1.3216 -1.6477  0.8677
 5714TIP3    H238634   0.433   2.919   5.948  0.5910 -0.0260 -1.4875
 5715TIP3   OH238635   0.631   2.722   5.306 -0.0913 -0.4144  0.0556
 5715TIP3    H138636   0.695   2.656   5.331  0.1496 -0.4857 -0.7508
 5715TIP3    H238637   0.633   2.786   5.378  0.8654 -0.4300  0.0488
 5716TIP3   OH238638   5.101   3.112  10.630 -0.3214 -0.5474 -0.4496
 5716TIP3    H138639   5.130   3.157  10.551 -0.4578 -0.3106 -0.3662
 5716TIP3    H238640   5.006   3.105  10.620 -0.4051 -0.0301 -0.0573
 5717TIP3   OH238641   4.626   2.285  16.831  0.4478  0.7079  0.1102
 5717TIP3    H138642   4.683   2.327  16.766 -0.6698  1.6393 -0.3056
 5717TIP3    H238643   4.547   2.340  16.832 -0.1928 -0.2050  1.1087
 5718TIP3   OH238644   4.952   0.592  17.121  0.0492  0.1520 -0.1071
 5718TIP3    H138645   4.893   0.631  17.057  0.3715  0.6878 -0.0806
 5718TIP3    H238646   4.939   0.643  17.200  0.1989 -0.0339  0.0384
 5719TIP3   OH238647   2.778   6.635   5.935 -0.3787  0.3277 -0.6457
 5719TIP3    H138648   2.858   6.598   5.974  0.6031  3.0499  0.1105
 5719TIP3    H238649   2.726   6.664   6.010 -1.3420  0.0801 -1.2012
 5720TIP3   OH238650   0.530   4.885  12.097 -0.9765  0.3184  0.4193
 5720TIP3    H138651   0.553   4.963  12.048  0.3075 -0.2041  0.1495
 5720TIP3    H238652   0.525   4.816  12.031 -1.8994  0.1292  0.6777
 5721TIP3   OH238653   4.143   2.156  14.253 -0.6453  0.1047 -0.2755
 5721TIP3    H138654   4.158   2.208  14.332 -0.3982  0.1730 -0.3648
 5721TIP3    H238655   4.052   2.175  14.229 -0.6928  0.1557 -0.0606
 5722TIP3   OH238656   4.150   1.440   1.534 -0.2578 -0.2218 -0.3016
 5722TIP3    H138657   4.150   1.535   1.536  0.8016 -0.2177  0.9021
 5722TIP3    H238658   4.159   1.414   1.626  1.5655 -1.4575 -0.7753
 5723TIP3   OH238659   3.825   4.279  13.856 -0.0834  0.3983  0.0507
 5723TIP3    H138660   3.835   4.366  13.896  2.0946 -0.7461  2.1973
 5723TIP3    H238661   3.764   4.233  13.914 -1.3981  0.4729 -1.1973
 5724TIP3   OH238662   1.114   2.078   4.810  0.9872 -0.1627  0.1377
 5724TIP3    H138663   1.021   2.064   4.794  0.8590 -2.9818  2.5673
 5724TIP3    H238664   1.155   2.069   4.724 -0.9220  1.2623 -0.9951
 5725TIP3   OH238665   2.158   5.313  15.685  0.1760  0.3614 -0.2234
 5725TIP3    H138666   2.109   5.362  15.619 -1.9238  1.6074  2.0551
 5725TIP3    H238667   2.109   5.232  15.697  0.5934  0.1010 -0.2611
 5726TIP3   OH238668   2.533   4.498  12.946  0.2342 -0.4492 -0.0428
 5726TIP3    H138669   2.526   4.593  12.958 -0.2420 -0.6192  1.2692
 5726TIP3    H238670   2.489   4.481  12.863 -1.4946  0.2885  0.6599
 5727TIP3   OH238671   3.835   3.667   4.818  0.1161 -0.8362  0.5013
 5727TIP3    H138672   3.841   3.572   4.833 -0.7920 -1.1406 -0.8808
 5727TIP3    H238673   3.903   3.686   4.754  0.3218 -0.5234  0.8039
 5728TIP3   OH238674   5.659   4.103   2.546 -0.2879 -0.0551  0.3578
 5728TIP3    H138675   5.648   4.008   2.537 -0.9312 -0.1308  1.6694
 5728TIP3    H238676   5.572   4.139   2.530 -0.3010  0.2113  1.0019
 5729TIP3   OH238677   4.008   0.869  16.907 -0.3391 -0.4084  0.5580
 5729TIP3    H138678   4.026   0.962  16.900 -1.1380 -0.2749  0.1678
 5729TIP3    H238679   4.059   0.840  16.983 -0.1758  0.3642  0.7464
 5730TIP3   OH238680   3.526   0.152  12.650  0.0797 -0.2672 -0.3338
 5730TIP3    H138681   3.568   0.070  12.675 -0.5710 -0.3674  0.4660
 5730TIP3    H238682   3.556   0.168  12.560 -2.9339 -3.4876 -2.1769
 5731TIP3   OH238683   1.716   5.669  11.347  0.1107  0.2492  0.8427
 5731TIP3    H138684   1.741   5.608  11.278  2.4287  1.3943  0.5790
 5731TIP3    H238685   1.643   5.626  11.391  0.7834 -2.0901 -0.1520
 5732TIP3   OH238686   5.432   4.547  14.148  0.2501 -0.3174  0.0972
 5732TIP3    H138687   5.465   4.464  14.112  2.1571  0.6014 -0.3930
 5732TIP3    H238688   5.402   4.596  14.071  0.0784 -0.1357  0.2793
 5733TIP3   OH238689   1.777   1.224  15.149 -0.5012 -0.0237  0.2606
 5733TIP3    H138690   1.762   1.309  15.108  0.2260 -0.9712 -2.1167
 5733TIP3    H238691   1.855   1.190  15.106 -1.0411 -2.0959  0.8049
 5734TIP3   OH238692   3.710   3.309  10.272  0.4841  0.1057 -0.0669
 5734TIP3    H138693   3.775   3.374  10.248 -0.6842  1.2528 -0.1822
 5734TIP3    H238694   3.657   3.296  10.194 -0.4762  0.4626  0.4976
 5735TIP3   OH238695   3.015   2.185  16.009 -0.4694  0.5403 -0.2682
 5735TIP3    H138696   3.062   2.102  16.006 -0.8531  0.3394 -0.9856
 5735TIP3    H238697   3.034   2.221  16.096  1.9004  1.0126 -0.9315
 5736TIP3   OH238698   0.559   5.876   1.249  0.6687 -0.4377 -0.8037
 5736TIP3    H138699   0.636   5.821   1.238 -0.1600 -2.1699  1.3082
 5736TIP3    H238700   0.485   5.819   1.228 -0.2323 -0.2946  1.6628
 5737TIP3   OH238701   4.199   0.772   0.990 -0.3205  0.0403 -0.0256
 5737TIP3    H138702   4.270   0.800   0.932  0.7333  0.6776  1.4946
 5737TIP3    H238703   4.214   0.821   1.071 -1.4056 -1.2330  0.9924
 5738TIP3   OH238704   2.736   1.946  14.988  0.4758  0.2707 -0.0571
 5738TIP3    H138705   2.750   1.941  15.082  3.9268  1.4363 -0.3881
 5738TIP3    H238706   2.682   2.025  14.976  0.2491  0.2720  0.9203
 5739TIP3   OH238707   3.661   2.368  14.587 -0.0380 -0.0633  0.5000
 5739TIP3    H138708   3.579   2.326  14.562 -0.8948 -0.3979  3.4292
 5739TIP3    H238709   3.679   2.431  14.517 -3.9067  1.5321  0.6882
 5740TIP3   OH238710   0.275   0.668   0.610  0.0675  0.7472 -0.7535
 5740TIP3    H138711   0.272   0.737   0.676 -1.3906  1.0796 -1.1343
 5740TIP3    H238712   0.265   0.714   0.527 -0.1192  0.1480 -1.0693
 5741TIP3   OH238713   2.729   4.166   4.935  0.7233  0.1199 -0.2278
 5741TIP3    H138714   2.676   4.160   4.856 -1.2050 -0.4619  1.0339
 5741TIP3    H238715   2.699   4.093   4.990  0.8668  1.4095  1.6661
 5742TIP3   OH238716   2.097   5.956  12.430 -0.0757  0.4784  0.1535
 5742TIP3    H138717   2.125   6.013  12.359  0.9417 -1.1342 -0.7948
 5742TIP3    H238718   2.140   5.873  12.413 -0.5055 -0.2280  2.1852
 5743TIP3   OH238719   6.456   0.621  10.966 -0.1141  0.1171 -0.2559
 5743TIP3    H138720   6.378   0.646  10.917  0.1295  2.0244  0.2576
 5743TIP3    H238721   6.508   0.701  10.970  1.1605 -0.7313  0.7234
 5744TIP3   OH238722   2.444   4.353  12.402  0.1195 -0.5738 -0.6419
 5744TIP3    H138723   2.529   4.316  12.379 -0.2614 -1.7750 -0.2335
 5744TIP3    H238724   2.381   4.300  12.353 -0.4397 -0.3072 -0.2306
 5745TIP3   OH238725   6.017   0.295  16.958  0.1942 -0.1004 -0.4496
 5745TIP3    H138726   5.976   0.378  16.936 -1.4252 -0.8368 -0.4175
 5745TIP3    H238727   5.964   0.260  17.030  1.5175 -0.6574  0.3024
 5746TIP3   OH238728   3.806   1.956   4.391 -0.4328  0.2699  0.9263
 5746TIP3    H138729   3.872   1.991   4.331 -1.5891 -0.6816 -1.0062
 5746TIP3    H238730   3.854   1.891   4.443  0.5017  0.7442  0.6787
 5747TIP3   OH238731   3.286   1.784  16.708  0.3491 -0.7772  0.1519
 5747TIP3    H138732   3.355   1.722  16.684  1.6382  0.3075  0.9812
 5747TIP3    H238733   3.271   1.768  16.801 -0.9850 -1.4161 -0.1409
 5748TIP3   OH238734   5.523   3.546   4.644  0.3819  0.4551 -0.0090
 5748TIP3    H138735   5.504   3.595   4.564  1.7369 -0.4195 -0.9141
 5748TIP3    H238736   5.513   3.610   4.715 -4.0103  0.5430 -0.4288
 5749TIP3   OH238737   6.316   1.253  13.768 -0.6041  0.1260  0.2134
 5749TIP3    H138738   6.391   1.312  13.771 -1.3302  1.0295  2.3313
 5749TIP3    H238739   6.311   1.225  13.677  0.6133  2.2454 -0.5725
 5750TIP3   OH238740   1.970   0.029   2.879 -0.0951 -0.8837 -0.2008
 5750TIP3    H138741   2.013  -0.053   2.903 -1.6181 -1.9394 -0.9288
 5750TIP3    H238742   1.972   0.031   2.784 -0.7627 -0.4786 -0.2146
 5751TIP3   OH238743   6.243   2.427  12.724 -0.5187 -0.0440 -0.2569
 5751TIP3    H138744   6.150   2.413  12.743 -0.4560  0.1735  0.2045
 5751TIP3    H238745   6.266   2.508  12.769 -0.4580  0.6847 -1.5427
 5752TIP3   OH238746   2.870   4.344  13.327 -0.0466  0.3256 -0.4849
 5752TIP3    H138747   2.803   4.278  13.346 -0.6927  1.5318  1.7514
 5752TIP3    H238748   2.825   4.408  13.272 -1.1043  1.5768  1.7069
 5753TIP3   OH238749   1.052   5.893   4.126 -0.1659  0.0133 -0.4263
 5753TIP3    H138750   1.078   5.984   4.141  1.0908 -0.1762 -1.2884
 5753TIP3    H238751   1.115   5.861   4.062  0.6040 -2.0117  1.2239
 5754TIP3   OH238752   3.797   1.847   3.666  0.1878  0.3770  0.3842
 5754TIP3    H138753   3.778   1.826   3.758  0.7334 -2.2866 -0.0316
 5754TIP3    H238754   3.715   1.829   3.620  0.2614  0.5657  0.1794
 5755TIP3   OH238755   5.979   5.011  11.945 -0.1884  0.1597 -0.5183
 5755TIP3    H138756   6.009   4.986  11.858  1.5761  1.4411 -0.3192
 5755TIP3    H238757   5.977   5.106  11.944 -3.9691  0.2388 -0.3334
 5756TIP3   OH238758   2.539   2.913   6.728  0.0680 -0.5003  0.0868
 5756TIP3    H138759   2.485   2.938   6.653  0.4543 -1.4144 -0.5198
 5756TIP3    H238760   2.555   2.819   6.716 -0.8046 -0.9350  1.9211
 5757TIP3   OH238761   2.276   5.957  11.166 -0.0142 -0.5615 -1.2320
 5757TIP3    H138762   2.236   6.040  11.141  0.1347  0.1229  0.6688
 5757TIP3    H238763   2.235   5.892  11.109 -1.5303  0.5540 -1.4594
 5758TIP3   OH238764   1.632   4.926   1.124 -0.0043 -0.0058  0.0024
 5758TIP3    H138765   1.562   4.935   1.060 -0.3705 -1.7829  0.1027
 5758TIP3    H238766   1.701   4.878   1.077 -0.4610 -1.7267  1.0460
 5759TIP3   OH238767   6.780   5.339   6.253 -0.6256  0.8351 -0.0923
 5759TIP3    H138768   6.817   5.413   6.205 -1.6119  1.4344  0.0411
 5759TIP3    H238769   6.850   5.312   6.314 -0.6533  2.4247  0.6993
 5760TIP3   OH238770   2.366   6.718   3.551 -0.6708 -0.6983  0.2330
 5760TIP3    H138771   2.405   6.742   3.635  1.5705  2.6717 -1.5257
 5760TIP3    H238772   2.397   6.629   3.534  1.1464 -0.4095  1.7494
 5761TIP3   OH238773   3.966   4.801   2.070 -0.4534 -0.1853 -0.6403
 5761TIP3    H138774   4.061   4.799   2.083 -0.6898  0.3890  1.6983
 5761TIP3    H238775   3.954   4.821   1.977  1.7024 -0.0584 -0.9356
 5762TIP3   OH238776   4.093   2.428   2.181  0.1546 -0.4612 -0.0208
 5762TIP3    H138777   4.016   2.466   2.224 -1.0648 -0.6828 -1.8845
 5762TIP3    H238778   4.143   2.504   2.150 -0.7543 -0.3121 -1.1768
 5763TIP3   OH238779   2.224   6.433   2.817 -0.4410  0.2656 -0.2027
 5763TIP3    H138780   2.196   6.342   2.818 -0.4750  0.2065 -2.2873
 5763TIP3    H238781   2.280   6.442   2.894 -0.9649 -1.3345  0.3890
 5764TIP3   OH238782   5.729   2.023  17.028 -0.0007  0.1037 -0.2513
 5764TIP3    H138783   5.666   2.002  17.098 -0.2139  1.6320  0.0541
 5764TIP3    H238784   5.781   2.095  17.064  1.6479 -0.8378 -0.6773
 5765TIP3   OH238785   3.955   6.575   6.777  0.6442  0.3121 -0.7706
 5765TIP3    H138786   3.929   6.556   6.687  0.9435  1.9321 -1.2280
 5765TIP3    H238787   3.952   6.490   6.821 -0.6214 -0.3251 -2.0113
 5766TIP3   OH238788   1.048   5.644   2.774  0.3751  0.3158 -0.3746
 5766TIP3    H138789   1.062   5.739   2.768  3.5465  0.3444  3.1160
 5766TIP3    H238790   1.128   5.607   2.737  1.1134 -0.7000  2.0584
 5767TIP3   OH238791   5.604   1.738   0.634  0.5724  0.7768 -0.2427
 5767TIP3    H138792   5.689   1.776   0.613  1.3209 -0.5010  0.3418
 5767TIP3    H238793   5.549   1.760   0.559  1.7796  0.5305 -1.2357
 5768TIP3   OH238794   5.993   6.418  17.000 -0.1400  0.0013 -0.3933
 5768TIP3    H138795   6.068   6.446  17.052 -0.0712  0.2209 -0.6064
 5768TIP3    H238796   5.949   6.500  16.975 -0.2295 -0.1058 -0.5925
 5769TIP3   OH238797   0.772   1.710  15.749 -0.3643  0.1343 -0.2107
 5769TIP3    H138798   0.700   1.655  15.778 -0.1049  1.0202  2.3792
 5769TIP3    H238799   0.738   1.799  15.755  0.2844  0.4448 -1.0081
 5770TIP3   OH238800   3.041   0.372  16.856  0.4544 -0.5338 -0.8996
 5770TIP3    H138801   3.024   0.323  16.937  1.8610  0.2667 -0.0698
 5770TIP3    H238802   2.967   0.432  16.848 -0.5616 -1.7774 -1.1568
 5771TIP3   OH238803   1.908   3.966   4.398  0.0970 -0.1589 -0.0159
 5771TIP3    H138804   1.907   4.009   4.312 -0.0629 -1.5369 -0.7451
 5771TIP3    H238805   1.817   3.942   4.413  0.2743 -0.7800  0.0811
 5772TIP3   OH238806   5.676   3.921  10.600  0.1165 -0.5079 -0.4604
 5772TIP3    H138807   5.712   3.842  10.559 -0.6692 -1.5106  0.7182
 5772TIP3    H238808   5.739   3.942  10.668  0.9534  0.6288 -1.5438
 5773TIP3   OH238809   5.491   3.356  14.191  0.0462  0.1572 -0.1193
 5773TIP3    H138810   5.414   3.301  14.178 -0.5683  1.2927 -1.7494
 5773TIP3    H238811   5.458   3.446  14.182  1.4716  0.6849 -0.3942
 5774TIP3   OH238812   5.996   1.197  11.660  0.3686  0.4569 -0.0473
 5774TIP3    H138813   6.042   1.226  11.739 -0.8614  2.7031 -0.0822
 5774TIP3    H238814   6.055   1.132  11.621  1.6640  0.3462  1.9367
 5775TIP3   OH238815   4.709   4.594   1.145  0.1050  0.4980  0.4537
 5775TIP3    H138816   4.717   4.665   1.082 -0.7985  0.0752 -0.1580
 5775TIP3    H238817   4.790   4.544   1.136  0.7572  1.4371  0.8990
 5776TIP3   OH238818   2.848   4.054   0.536 -0.0650 -0.0784  0.2075
 5776TIP3    H138819   2.908   4.119   0.573 -0.0108  0.7519 -1.2772
 5776TIP3    H238820   2.813   4.008   0.612  1.8280 -0.0445  1.1712
 5777TIP3   OH238821   4.601   5.521   4.342 -0.3338  0.5358  0.2990
 5777TIP3    H138822   4.565   5.603   4.375 -1.4106  0.2229 -0.0516
 5777TIP3    H238823   4.586   5.458   4.412  0.9218  0.7344  0.7577
 5778TIP3   OH238824   6.621   0.822  11.063 -0.1668 -0.1691 -0.2392
 5778TIP3    H138825   6.705   0.817  11.019  0.8240 -0.1654  1.5517
 5778TIP3    H238826   6.613   0.914  11.090  0.1459 -0.5466  1.2076
 5779TIP3   OH238827   4.112   2.024  11.388 -0.5085 -0.4882  0.2316
 5779TIP3    H138828   4.132   1.964  11.316 -0.9892 -0.0942 -0.2377
 5779TIP3    H238829   4.080   1.967  11.458 -0.0577 -0.8717  0.1347
 5780TIP3   OH238830   4.104   4.579   0.755  0.5294  0.3638 -0.4388
 5780TIP3    H138831   4.103   4.495   0.709  0.6267  0.6825 -1.0385
 5780TIP3    H238832   4.052   4.637   0.699  0.1367  0.6022  0.1688
 5781TIP3   OH238833   0.061   4.452   2.202  0.2431 -0.3450 -0.0719
 5781TIP3    H138834   0.122   4.524   2.188 -1.0254  0.8419  0.2779
 5781TIP3    H238835   0.016   4.474   2.284 -2.1332 -0.0487 -1.3795
 5782TIP3   OH238836   1.774   2.709  16.350  0.0582  0.2047 -0.0648
 5782TIP3    H138837   1.795   2.624  16.388 -0.3057  0.0841 -0.1272
 5782TIP3    H238838   1.858   2.745  16.322  0.2024 -0.1784 -0.1269
 5783TIP3   OH238839   4.075   5.980  15.659  0.3238 -0.4150 -0.2919
 5783TIP3    H138840   4.150   5.977  15.600  0.9522  1.2095  0.3478
 5783TIP3    H238841   4.077   5.897  15.706  3.9505  0.8564  2.2695
 5784TIP3   OH238842   1.192   0.403  14.581 -0.0179  0.6286  0.5305
 5784TIP3    H138843   1.143   0.332  14.539  0.1787  1.2815 -0.8958
 5784TIP3    H238844   1.284   0.381  14.565  0.0986  0.3485  1.5686
 5785TIP3   OH238845   6.242   0.316   3.476 -0.5896  0.2290 -0.0730
 5785TIP3    H138846   6.243   0.384   3.410  2.9372  0.1713 -0.2597
 5785TIP3    H238847   6.256   0.362   3.559 -1.8216  0.0097  0.2794
 5786TIP3   OH238848   5.606   4.154  16.653 -0.3324 -0.3326 -0.6750
 5786TIP3    H138849   5.609   4.059  16.661  0.4217 -0.4061 -1.6190
 5786TIP3    H238850   5.690   4.184  16.688 -0.7148  0.0150 -0.0524
 5787TIP3   OH238851   2.207   1.437  15.043 -0.6498 -0.5171  0.4552
 5787TIP3    H138852   2.153   1.456  14.965 -2.8484  2.1753  2.4094
 5787TIP3    H238853   2.285   1.491  15.030 -0.0618 -1.5894 -0.7100
 5788TIP3   OH238854   0.579   5.064   3.471  0.0072 -0.2544 -0.7162
 5788TIP3    H138855   0.592   5.106   3.556 -0.7376 -0.8986 -0.2789
 5788TIP3    H238856   0.485   5.071   3.454  0.4087  1.8584 -2.5520
 5789TIP3   OH238857   1.280   4.060   6.523 -0.1856  0.1586 -0.5144
 5789TIP3    H138858   1.320   3.990   6.471  0.0927 -0.5046  0.5684
 5789TIP3    H238859   1.337   4.070   6.598 -1.2646  0.1978  0.3319
 5790TIP3   OH238860   1.259   0.575   3.376 -0.0687  0.0457 -0.8359
 5790TIP3    H138861   1.346   0.594   3.411 -0.3609  0.7583 -0.4915
 5790TIP3    H238862   1.206   0.650   3.401 -1.3145 -1.2963  0.7684
 5791TIP3   OH238863   2.051   6.194  15.882 -0.5407  0.0391  0.0119
 5791TIP3    H138864   2.009   6.258  15.825 -1.2686 -0.3512  0.0979
 5791TIP3    H238865   2.111   6.146  15.824 -0.8053  0.0669 -0.2883
 5792TIP3   OH238866   3.526   5.248  13.232 -0.1736 -0.6415  0.1717
 5792TIP3    H138867   3.433   5.243  13.254 -0.0993  0.3444  0.8094
 5792TIP3    H238868   3.565   5.171  13.273 -0.1847  0.6924  2.9430
 5793TIP3   OH238869   5.541   4.661  11.902 -0.7861  0.4254 -0.3208
 5793TIP3    H138870   5.540   4.652  11.806  0.9421 -1.7385 -0.2041
 5793TIP3    H238871   5.596   4.738  11.917 -0.3442  0.2629 -1.0442
 5794TIP3   OH238872   2.375   4.479  16.571  0.4094 -0.0973  0.3369
 5794TIP3    H138873   2.378   4.507  16.480  1.8114 -0.7436  0.1639
 5794TIP3    H238874   2.294   4.429  16.578 -0.1571  0.7080 -0.3169
 5795TIP3   OH238875   1.641   5.767   3.525 -0.0074  0.1985  0.2362
 5795TIP3    H138876   1.615   5.744   3.614 -1.6726 -0.3944 -0.3614
 5795TIP3    H238877   1.724   5.814   3.535 -0.2432  0.2793  2.1010
 5796TIP3   OH238878   0.938   0.119   1.813  0.2326 -0.1939  0.0449
 5796TIP3    H138879   0.912   0.115   1.905 -1.2310 -3.3372 -0.3722
 5796TIP3    H238880   0.914   0.208   1.785  0.8828  0.9011  2.6701
 5797TIP3   OH238881   0.601   1.330  12.187 -0.2016 -0.2360 -0.4334
 5797TIP3    H138882   0.672   1.364  12.241 -0.2704 -0.0641 -0.4519
 5797TIP3    H238883   0.534   1.301  12.250 -0.6111  0.6717 -0.4372
 5798TIP3   OH238884   4.737   0.830  15.205 -0.3547  0.7431  0.0379
 5798TIP3    H138885   4.738   0.890  15.279 -1.0816 -0.0418  0.7141
 5798TIP3    H238886   4.752   0.744  15.244 -0.6723  0.3263 -0.7354
 5799TIP3   OH238887   2.414   5.660  13.959  0.9591  0.1733 -0.5443
 5799TIP3    H138888   2.412   5.649  14.054 -3.5395 -1.1697 -0.5433
 5799TIP3    H238889   2.393   5.752  13.945 -0.7466 -0.1218 -0.1360
 5800TIP3   OH238890   6.021   3.023   3.858 -0.7216  0.0231  0.4230
 5800TIP3    H138891   6.008   3.093   3.922 -0.9457  0.9048 -0.5445
 5800TIP3    H238892   6.042   3.069   3.776 -1.0330 -1.0378 -0.2792
 5801TIP3   OH238893   3.903   2.456  11.488  0.5835 -0.3393 -0.1258
 5801TIP3    H138894   3.913   2.452  11.583 -0.0330 -1.0129 -0.0805
 5801TIP3    H238895   3.940   2.374  11.456 -0.0526 -0.5342 -0.3781
 5802TIP3   OH238896   4.204   4.349  10.237  0.1286  0.4219 -0.6758
 5802TIP3    H138897   4.192   4.338  10.331  1.5508 -1.2665 -0.6296
 5802TIP3    H238898   4.223   4.442  10.225 -2.1081  1.0797  0.4095
 5803TIP3   OH238899   2.787   3.582   4.004 -0.4424  0.1171  0.5166
 5803TIP3    H138900   2.717   3.640   3.975 -0.1856  0.8263  1.2838
 5803TIP3    H238901   2.866   3.619   3.966 -0.5696 -1.2581 -1.1924
 5804TIP3   OH238902   1.109   5.478   3.285  0.0807  0.0255  0.4611
 5804TIP3    H138903   1.045   5.419   3.246  0.6957  0.1636 -0.8138
 5804TIP3    H238904   1.108   5.555   3.229  0.5017  0.5282  1.1289
 5805TIP3   OH238905   4.979   1.115  16.035  0.8990  0.0641  0.7685
 5805TIP3    H138906   4.921   1.142  16.106  1.7638 -0.8589  1.8685
 5805TIP3    H238907   4.920   1.080  15.968 -0.0861  2.6016  0.1866
 5806TIP3   OH238908   1.600   4.244   1.022 -0.0244 -0.0628  0.0743
 5806TIP3    H138909   1.655   4.322   1.023  0.9240 -0.7212  0.1583
 5806TIP3    H238910   1.660   4.173   1.000 -1.1932 -0.5394 -1.7934
 5807TIP3   OH238911   4.293   3.361  11.448 -0.9045 -0.2973  0.4688
 5807TIP3    H138912   4.218   3.371  11.506 -0.9783 -0.8400  0.4642
 5807TIP3    H238913   4.346   3.293  11.489 -0.9486 -0.6690 -0.0916
 5808TIP3   OH238914   2.075   6.571  15.109 -0.0047  0.9292  0.2949
 5808TIP3    H138915   2.050   6.614  15.191 -0.1379  1.5403 -0.0539
 5808TIP3    H238916   2.059   6.638  15.042  0.0861  0.4311 -0.2289
 5809TIP3   OH238917   5.720   1.068  13.425  0.6134 -0.2750  0.0359
 5809TIP3    H138918   5.714   0.978  13.458 -1.2733 -0.8104 -1.6056
 5809TIP3    H238919   5.633   1.105  13.440  1.5698  1.6229  1.4269
 5810TIP3   OH238920   3.926   2.063  16.006  0.3706  0.4887 -0.2516
 5810TIP3    H138921   3.972   1.986  16.041  2.9951  0.5854 -3.0919
 5810TIP3    H238922   3.837   2.032  15.991  0.8356 -1.3861  0.5447
 5811TIP3   OH238923   5.310   2.857  13.717 -0.1414 -0.0114 -0.4294
 5811TIP3    H138924   5.304   2.765  13.693 -0.3769  0.5339 -2.6530
 5811TIP3    H238925   5.378   2.860  13.784  0.6154 -1.6631 -1.0812
 5812TIP3   OH238926   6.822   0.497  16.138 -0.5072 -0.1249  0.5204
 5812TIP3    H138927   6.871   0.415  16.145 -1.3101 -0.5069  2.0702
 5812TIP3    H238928   6.731   0.470  16.125 -0.7158  0.5282  0.5894
 5813TIP3   OH238929   4.021   4.552   2.178  0.2063  0.0232  0.4342
 5813TIP3    H138930   3.999   4.640   2.146  1.3932  0.5945  1.1001
 5813TIP3    H238931   3.937   4.516   2.206 -0.1598  1.4061  1.2413
 5814TIP3   OH238932   5.359   3.261   1.586 -0.1618 -0.3064  0.1623
 5814TIP3    H138933   5.406   3.257   1.669  0.1490 -2.5241 -0.0549
 5814TIP3    H238934   5.405   3.329   1.536  1.4544 -0.8914  0.7794
 5815TIP3   OH238935   4.590   0.930   4.786  0.4096  0.0382  0.0362
 5815TIP3    H138936   4.602   1.025   4.790  0.9558 -0.0518  1.0240
 5815TIP3    H238937   4.498   0.916   4.810 -0.3660  0.4291 -2.4278
 5816TIP3   OH238938   6.586   5.178   5.883 -0.1248  0.1404 -0.0031
 5816TIP3    H138939   6.516   5.115   5.863  0.0737  0.5444 -2.3036
 5816TIP3    H238940   6.549   5.263   5.857  0.8158  0.5098 -0.1655
 5817TIP3   OH238941   4.297   6.112   1.346  0.1775  0.1152 -0.0121
 5817TIP3    H138942   4.209   6.119   1.383  0.9926  1.7673  1.7622
 5817TIP3    H238943   4.347   6.063   1.412  0.8989  0.2677 -0.4338
 5818TIP3   OH238944   0.096   0.749   4.040 -0.7649  0.6423  0.0347
 5818TIP3    H138945   0.012   0.768   4.000 -0.6537  0.2807 -0.3802
 5818TIP3    H238946   0.144   0.832   4.037 -0.0320  0.2077 -2.3667
 5819TIP3   OH238947   2.997   3.523   1.841 -0.5626  0.5173  0.5015
 5819TIP3    H138948   2.939   3.589   1.801  0.6399  0.7615 -0.9313
 5819TIP3    H238949   3.034   3.476   1.766  0.1407 -0.4541  1.4374
 5820TIP3   OH238950   0.993   6.183   2.783  0.0038  0.4879  0.4805
 5820TIP3    H138951   1.055   6.226   2.842  1.1386 -0.2438 -0.1517
 5820TIP3    H238952   0.915   6.168   2.837  1.2388 -0.7520  2.0152
 5821TIP3   OH238953   4.757   0.514  11.961 -0.5011 -0.0880 -0.0022
 5821TIP3    H138954   4.690   0.555  12.016 -1.0990 -0.9702 -0.0519
 5821TIP3    H238955   4.709   0.486  11.883  0.0298 -0.2767 -0.2636
 5822TIP3   OH238956   2.059   5.679  14.651 -0.1409  0.6671  0.2665
 5822TIP3    H138957   2.105   5.614  14.596 -0.8607  0.7564 -0.4603
 5822TIP3    H238958   2.081   5.654  14.740  1.3974  0.7518 -0.0557
 5823TIP3   OH238959   1.229   1.399  13.218 -0.4447  0.3870 -0.0267
 5823TIP3    H138960   1.306   1.407  13.276 -1.7130  0.9769  1.6720
 5823TIP3    H238961   1.233   1.309  13.186 -0.2357 -0.3404  1.8674
 5824TIP3   OH238962   2.457   1.429  14.060  0.4859 -0.0254  0.1257
 5824TIP3    H138963   2.544   1.462  14.085  1.1036 -2.1091  0.9560
 5824TIP3    H238964   2.398   1.463  14.127  0.9033  0.2332  0.3641
 5825TIP3   OH238965   2.278   0.130   4.067  0.5482 -0.1974 -0.1185
 5825TIP3    H138966   2.305   0.204   4.121  0.3435 -0.1552 -0.0725
 5825TIP3    H238967   2.294   0.053   4.122  0.4999 -0.1670 -0.0623
 5826TIP3   OH238968   4.932   3.662   1.521 -0.2445  0.6829  0.3366
 5826TIP3    H138969   4.917   3.719   1.447 -1.5873 -0.3788 -0.2488
 5826TIP3    H238970   4.931   3.720   1.597 -0.9236  1.5035 -0.2886
 5827TIP3   OH238971   2.540   4.628  13.880  0.4520  0.0386 -0.0641
 5827TIP3    H138972   2.635   4.626  13.870  0.5496  2.6653 -0.3264
 5827TIP3    H238973   2.512   4.538  13.864  3.0340 -1.2525  1.9121
 5828TIP3   OH238974   3.288   2.536  15.577 -0.0342 -0.1018 -0.7208
 5828TIP3    H138975   3.197   2.523  15.605 -0.0612  0.1741 -0.6744
 5828TIP3    H238976   3.336   2.465  15.619 -0.5634 -1.6413 -2.5657
 5829TIP3   OH238977   1.584   4.991   4.701  0.0050  0.0670 -0.3795
 5829TIP3    H138978   1.495   5.018   4.726  0.1588 -0.1098  0.3582
 5829TIP3    H238979   1.606   5.049   4.627  0.9021  3.1089  2.0379
 5830TIP3   OH238980   3.310   6.320   1.845 -0.3327  0.0063  0.1641
 5830TIP3    H138981   3.263   6.394   1.883 -1.2020 -0.2211 -0.4172
 5830TIP3    H238982   3.240   6.262   1.814  0.3210  0.0603 -1.5141
 5831TIP3   OH238983   6.061   3.225   2.017  0.0411 -0.0976 -0.0772
 5831TIP3    H138984   6.116   3.173   2.076 -1.4833 -1.1048  0.5101
 5831TIP3    H238985   5.996   3.266   2.074 -0.8088 -0.2348 -0.9189
 5832TIP3   OH238986   0.225   4.983  16.289 -0.5997  0.2375 -0.0684
 5832TIP3    H138987   0.131   4.976  16.299 -0.4598 -2.6101  0.0290
 5832TIP3    H238988   0.238   5.059  16.232 -3.0096 -0.0767 -1.1353
 5833TIP3   OH238989   1.120   3.633   4.103 -0.1915 -0.1324  0.3152
 5833TIP3    H138990   1.154   3.589   4.025  0.8877  0.3870  0.4703
 5833TIP3    H238991   1.199   3.657   4.153 -0.7505  1.4012  0.5346
 5834TIP3   OH238992   5.335   2.500  12.462 -0.1777  0.3207 -0.3326
 5834TIP3    H138993   5.299   2.413  12.445  0.9936 -0.1873 -0.2893
 5834TIP3    H238994   5.269   2.560  12.429 -0.0922 -0.6007 -2.2839
 5835TIP3   OH238995   4.382   4.133  14.059  0.6228 -0.5264  0.1157
 5835TIP3    H138996   4.388   4.042  14.032  1.6175 -1.0229  1.8117
 5835TIP3    H238997   4.369   4.182  13.978  2.1947 -1.9906 -1.0864
 5836TIP3   OH238998   6.144   4.576   1.947 -0.5935 -0.0507 -0.3724
 5836TIP3    H138999   6.059   4.619   1.954 -0.1744  0.7540 -0.0590
 5836TIP3    H239000   6.164   4.578   1.854  0.0779  1.7898 -0.2287
 5837TIP3   OH239001   2.515   3.735  14.395  0.9086 -0.2119 -0.0572
 5837TIP3    H139002   2.575   3.797  14.437 -0.5309  1.1717  0.0760
 5837TIP3    H239003   2.464   3.789  14.334 -0.4927 -1.2356  0.1539
 5838TIP3   OH239004   5.008   5.698  14.960 -0.4310 -0.4623 -0.2670
 5838TIP3    H139005   4.995   5.611  14.922  0.6019  0.3527 -2.6679
 5838TIP3    H239006   5.046   5.750  14.889  1.4783  1.2535  1.8668
 5839TIP3   OH239007   6.412   2.700   3.953 -0.1232  0.3101  0.3294
 5839TIP3    H139008   6.432   2.791   3.932  0.1541 -0.1254 -1.4273
 5839TIP3    H239009   6.327   2.703   3.996 -0.6290  1.3154 -0.6939
 5840TIP3   OH239010   2.934   6.310  14.460 -0.1644  0.1915  0.6609
 5840TIP3    H139011   2.980   6.375  14.406 -0.3735 -1.0174 -1.0489
 5840TIP3    H239012   2.995   6.291  14.532  0.3085  1.5240  0.6438
 5841TIP3   OH239013   4.798   4.602   0.473  0.3128 -0.0683 -0.9007
 5841TIP3    H139014   4.758   4.689   0.476  0.4419 -0.0191 -0.6386
 5841TIP3    H239015   4.869   4.611   0.409 -0.2046 -0.2049 -1.5149
 5842TIP3   OH239016   2.240   2.739  10.709  0.3582  0.1048  0.4447
 5842TIP3    H139017   2.310   2.740  10.643  1.1857  2.3425  1.2860
 5842TIP3    H239018   2.163   2.707  10.662  1.6434 -1.3077 -0.7965
 5843TIP3   OH239019   2.772   5.649   0.856 -0.0326 -0.2209 -0.2887
 5843TIP3    H139020   2.739   5.733   0.887 -2.5278 -0.8804 -0.9939
 5843TIP3    H239021   2.811   5.668   0.771  0.8829  0.4631  0.2679
 5844TIP3   OH239022   2.033   4.526  10.864 -0.1894 -0.4755 -0.3950
 5844TIP3    H139023   2.039   4.438  10.901  1.0828  0.1082  0.9114
 5844TIP3    H239024   2.109   4.533  10.807 -1.4187 -0.9009 -2.1615
 5845TIP3   OH239025   1.247   5.674  15.564 -0.2090 -0.1423  0.0367
 5845TIP3    H139026   1.327   5.637  15.526  0.3642 -0.0797  1.1271
 5845TIP3    H239027   1.279   5.747  15.618 -0.9777 -0.3355  0.7571
 5846TIP3   OH239028   4.360   2.385   4.095 -0.0787 -0.3039 -0.4762
 5846TIP3    H139029   4.421   2.414   4.163 -1.3672  1.5169 -0.0272
 5846TIP3    H239030   4.405   2.312   4.052  2.5164  1.0702 -0.3063
 5847TIP3   OH239031   0.465   4.824  16.373 -0.5115  0.6626 -0.2151
 5847TIP3    H139032   0.496   4.908  16.341 -1.0439  1.6370  1.6460
 5847TIP3    H239033   0.370   4.832  16.373 -0.5475  0.7874  1.6166
 5848TIP3   OH239034   5.234   4.457   3.354  0.1514 -0.1865  0.0871
 5848TIP3    H139035   5.208   4.545   3.326  4.6820  0.9072 -1.4073
 5848TIP3    H239036   5.264   4.415   3.274 -1.8865 -3.2724  0.7679
 5849TIP3   OH239037   0.373   2.359  14.863 -0.4192  0.3022  0.7750
 5849TIP3    H139038   0.298   2.418  14.860  1.6817  3.1455  0.4106
 5849TIP3    H239039   0.396   2.345  14.771  0.0427  0.1925  0.9057
 5850TIP3   OH239040   2.958   6.658  11.601 -0.0694 -0.0740  0.3513
 5850TIP3    H139041   2.944   6.733  11.543 -0.7410  0.1259  0.7561
 5850TIP3    H239042   3.051   6.661  11.623  0.5012 -0.9207 -1.7364
 5851TIP3   OH239043   5.932   2.612   1.820  0.1926  0.0294 -0.0045
 5851TIP3    H139044   6.007   2.671   1.809  1.9717 -1.9942  0.4230
 5851TIP3    H239045   5.946   2.573   1.907 -1.2513 -0.5758 -0.0208
 5852TIP3   OH239046   5.152   3.821  14.221 -0.0088  0.2920 -0.1098
 5852TIP3    H139047   5.198   3.839  14.139 -3.0379  2.2370 -1.5779
 5852TIP3    H239048   5.184   3.735  14.248  4.2404  1.3650 -0.9572
 5853TIP3   OH239049   0.490   6.391   4.411  0.0145 -0.3568 -0.0585
 5853TIP3    H139050   0.518   6.318   4.356 -0.3544 -0.2042 -0.4561
 5853TIP3    H239051   0.414   6.428   4.366 -0.8839 -0.8100  1.0229
 5854TIP3   OH239052   2.971   1.739  14.936  0.3182  0.0204  0.2230
 5854TIP3    H139053   2.979   1.718  15.029 -1.7492 -1.6346  0.0972
 5854TIP3    H239054   2.907   1.811  14.933 -0.0351 -0.2993  0.0561
 5855TIP3   OH239055   4.379   1.170  12.612 -0.2241  0.5097 -0.0663
 5855TIP3    H139056   4.361   1.264  12.609 -2.3387  0.1308 -2.2152
 5855TIP3    H239057   4.430   1.152  12.533  1.0582 -0.0548  0.8440
 5856TIP3   OH239058   2.087   4.982   4.123 -0.0905 -0.0506 -0.1412
 5856TIP3    H139059   2.102   4.906   4.179  0.3555  0.6305  0.6866
 5856TIP3    H239060   2.159   5.042   4.143 -1.3774  1.3503  0.5665
 5857TIP3   OH239061   1.169   4.832  15.046  0.4141 -0.1697  0.2122
 5857TIP3    H139062   1.074   4.824  15.049  0.3844  0.1009  0.0504
 5857TIP3    H239063   1.197   4.762  14.986  0.5457 -1.9259  2.2048
 5858TIP3   OH239064   5.062   5.313   1.269 -0.3136 -0.1536  0.0323
 5858TIP3    H139065   5.095   5.264   1.344 -0.6433 -1.2261 -0.5155
 5858TIP3    H239066   5.136   5.316   1.208 -0.0533  0.6966  0.3756
 5859TIP3   OH239067   3.892   2.658  12.819 -0.3090 -0.4900 -0.0489
 5859TIP3    H139068   3.820   2.707  12.859 -0.1151 -0.1202 -0.1450
 5859TIP3    H239069   3.935   2.614  12.892  0.7230  1.0643  0.3395
 5860TIP3   OH239070   4.943   0.318   2.662 -0.1280 -0.4586  0.9608
 5860TIP3    H139071   4.957   0.351   2.751 -2.7005 -1.1811  1.7234
 5860TIP3    H239072   4.939   0.223   2.672  2.5613 -0.7903 -0.4661
 5861TIP3   OH239073   0.513   3.319  14.030 -0.5846  0.2044  0.0489
 5861TIP3    H139074   0.560   3.282  13.956  1.2000  2.3170  0.0403
 5861TIP3    H239075   0.521   3.414  14.020  1.3154  0.6471  3.8350
 5862TIP3   OH239076   0.452   0.137   1.129 -0.3824 -0.2853 -0.0063
 5862TIP3    H139077   0.542   0.107   1.140  0.1757  0.9874 -0.8433
 5862TIP3    H239078   0.422   0.158   1.217 -0.1605 -1.5066  0.3717
 5863TIP3   OH239079   3.169   5.686  16.952  0.3359 -0.1493 -0.3020
 5863TIP3    H139080   3.084   5.642  16.942  0.1229 -0.0729  0.9539
 5863TIP3    H239081   3.232   5.625  16.912 -0.2837 -0.2541 -1.1539
 5864TIP3   OH239082   3.622   2.729   0.173 -0.0959 -0.2325  0.1567
 5864TIP3    H139083   3.560   2.801   0.182  1.7414  1.1808  3.3505
 5864TIP3    H239084   3.574   2.652   0.203 -1.0039  0.3715  0.2700
 5865TIP3   OH239085   2.394   2.811   5.400 -0.1376  0.7423  0.2703
 5865TIP3    H139086   2.333   2.880   5.376 -1.0337 -0.7412 -2.0199
 5865TIP3    H239087   2.348   2.760   5.467 -0.7487  0.5812 -0.2681
 5866TIP3   OH239088   4.654   4.086  12.560 -0.2841  0.3512  0.1413
 5866TIP3    H139089   4.630   4.118  12.473 -2.0953  1.8493  1.1067
 5866TIP3    H239090   4.615   3.999  12.565  1.5941 -0.6440 -1.2195
 5867TIP3   OH239091   0.691   1.907  13.415  0.2942 -1.0080 -0.3458
 5867TIP3    H139092   0.716   1.974  13.351 -0.2997 -1.0520 -0.6307
 5867TIP3    H239093   0.700   1.950  13.500  0.2433 -0.6735 -0.5074
 5868TIP3   OH239094   5.991   4.335  15.136  0.1804  0.0840  0.4644
 5868TIP3    H139095   6.034   4.273  15.195 -0.7579 -0.4971  0.5605
 5868TIP3    H239096   5.899   4.308  15.136 -0.0545  0.8438 -0.3037
 5869TIP3   OH239097   4.870   1.690   4.265 -0.1088 -0.2419  0.4160
 5869TIP3    H139098   4.884   1.707   4.358  0.2149 -0.1383  0.3478
 5869TIP3    H239099   4.956   1.668   4.231 -0.6906 -3.5251  0.7696
 5870TIP3   OH239100   6.110   4.347   5.765  0.3571 -0.4530  0.3995
 5870TIP3    H139101   6.045   4.360   5.697  0.7274 -0.7945 -0.0250
 5870TIP3    H239102   6.115   4.252   5.776 -0.3583 -0.3806  1.5468
 5871TIP3   OH239103   4.180   5.373  14.727  0.4478  0.0678 -0.4130
 5871TIP3    H139104   4.172   5.290  14.679  1.0615  0.5143 -1.3062
 5871TIP3    H239105   4.092   5.387  14.764  0.2526 -0.8233 -0.4981
 5872TIP3   OH239106   1.377   2.898  11.845  0.1623 -0.0712  0.3241
 5872TIP3    H139107   1.404   2.854  11.925  1.3186  0.9890  0.5497
 5872TIP3    H239108   1.364   2.828  11.781  0.4334 -0.8324  1.0881
 5873TIP3   OH239109   5.345   1.407   1.087  0.3241  0.6395 -0.1102
 5873TIP3    H139110   5.314   1.440   1.172 -0.4096  0.6901 -0.3879
 5873TIP3    H239111   5.296   1.458   1.023 -0.3229 -0.5137 -0.5558
 5874TIP3   OH239112   0.041   6.079  12.644 -0.0017  0.4801  0.0068
 5874TIP3    H139113   0.046   6.071  12.549 -0.8622  0.5553 -0.0450
 5874TIP3    H239114   0.110   6.020  12.676 -1.5605 -1.7830 -0.5939
 5875TIP3   OH239115   5.606   6.402   3.985 -0.2890  0.4457 -0.1008
 5875TIP3    H139116   5.538   6.464   3.956  0.2223 -0.0794 -2.6240
 5875TIP3    H239117   5.558   6.323   4.010 -0.6717  0.0232 -2.0140
 5876TIP3   OH239118   5.983   2.166  14.671  0.2178 -0.2410 -0.0568
 5876TIP3    H139119   6.049   2.219  14.626 -0.8341  0.4889 -0.7651
 5876TIP3    H239120   5.937   2.228  14.727 -0.5545 -0.5313 -0.3567
 5877TIP3   OH239121   1.904   1.485  11.972  0.4976 -0.7282 -0.0058
 5877TIP3    H139122   1.949   1.459  11.892 -0.0882 -1.0261 -0.2443
 5877TIP3    H239123   1.831   1.539  11.942  0.4248 -0.6273  0.3432
 5878TIP3   OH239124   0.284   1.408   3.271  0.5099 -0.5970 -0.1517
 5878TIP3    H139125   0.216   1.359   3.225 -1.1053 -0.3074  1.8436
 5878TIP3    H239126   0.237   1.474   3.322  2.4500  1.1169 -0.4417
 5879TIP3   OH239127   5.089   1.729  16.387  0.0120  0.4547 -0.1496
 5879TIP3    H139128   5.135   1.667  16.444 -0.6065  0.5304  0.4532
 5879TIP3    H239129   5.134   1.812  16.400 -0.9005  0.7729  1.2390
 5880TIP3   OH239130   2.212   6.756   1.752  0.2619 -0.4786 -0.4715
 5880TIP3    H139131   2.123   6.776   1.725  0.1947 -2.1123 -1.6804
 5880TIP3    H239132   2.266   6.820   1.706 -0.1822 -0.5612 -1.1330
 5881TIP3   OH239133   3.409   0.293   0.281  0.2637  0.2565 -0.0570
 5881TIP3    H139134   3.491   0.250   0.304 -0.1596  0.4630  2.0651
 5881TIP3    H239135   3.341   0.230   0.306 -0.2527  0.4154 -1.0325
 5882TIP3   OH239136   5.141   2.438   3.424 -0.2459 -0.3031 -0.2779
 5882TIP3    H139137   5.129   2.511   3.484  1.1408  0.5893 -1.0303
 5882TIP3    H239138   5.182   2.370   3.477  0.0008  0.0874  0.0403
 5883TIP3   OH239139   2.301   4.225  12.223  0.0024 -0.5103 -0.2986
 5883TIP3    H139140   2.341   4.150  12.179 -0.9801 -0.4694 -1.2974
 5883TIP3    H239141   2.217   4.193  12.256  0.7924 -0.5913  1.7703
 5884TIP3   OH239142   5.799   6.190  12.918 -0.0833  0.3390  0.0106
 5884TIP3    H139143   5.713   6.229  12.934 -0.0804  0.1691  0.4764
 5884TIP3    H239144   5.848   6.207  12.999  0.3947  0.6285 -0.3375
 5885TIP3   OH239145   3.898   3.963   5.272 -0.4719  0.1399 -0.2589
 5885TIP3    H139146   3.901   3.907   5.349 -1.0801  0.6224  0.1265
 5885TIP3    H239147   3.891   3.902   5.198 -0.5173 -0.3032  0.1077
 5886TIP3   OH239148   1.881   4.141   4.133  0.2390  0.2730 -0.2734
 5886TIP3    H139149   1.971   4.162   4.158  0.8717  1.2208 -2.9834
 5886TIP3    H239150   1.890   4.068   4.071 -1.0592 -0.8331  0.7829
 5887TIP3   OH239151   4.723   4.256  14.394  0.8105 -0.1154  0.6747
 5887TIP3    H139152   4.671   4.176  14.405  1.2306 -0.3484  1.0149
 5887TIP3    H239153   4.670   4.312  14.337  0.4232 -0.5568  0.5950
 5888TIP3   OH239154   6.273   5.130   5.358 -0.1085 -0.6331 -0.3781
 5888TIP3    H139155   6.368   5.121   5.353 -0.1147 -0.7253 -0.3403
 5888TIP3    H239156   6.248   5.179   5.280  0.0315 -0.1208 -0.1006
 5889TIP3   OH239157   1.579   0.042  11.735  0.2399 -0.4217  0.0613
 5889TIP3    H139158   1.595  -0.035  11.789  1.1105  0.2742  0.8182
 5889TIP3    H239159   1.610   0.017  11.648  0.0130 -1.1006  0.1672
 5890TIP3   OH239160   2.300   4.288   3.612 -0.7217  0.1910  0.0818
 5890TIP3    H139161   2.214   4.250   3.594 -0.9161  0.3649  0.6388
 5890TIP3    H239162   2.362   4.221   3.583 -1.0504 -0.1441  0.1387
 5891TIP3   OH239163   3.565   2.708   4.015  0.1685 -0.1783  0.1930
 5891TIP3    H139164   3.657   2.703   4.041  0.5471  1.4316 -0.7155
 5891TIP3    H239165   3.543   2.618   3.991  2.1624 -0.2519 -1.6495
 5892TIP3   OH239166   3.694   5.516  14.913 -0.1256  0.0853 -0.0768
 5892TIP3    H139167   3.662   5.547  14.828 -0.0841 -0.6464 -0.3633
 5892TIP3    H239168   3.760   5.581  14.939  0.4162 -0.0876 -0.9654
 5893TIP3   OH239169   3.563   1.042  17.011  0.2201  0.6909  0.2696
 5893TIP3    H139170   3.597   1.131  17.009 -0.7480  1.0729 -0.4762
 5893TIP3    H239171   3.599   1.000  16.933  0.9619  0.3109  0.8130
 5894TIP3   OH239172   2.532   3.534  16.866 -0.1538 -0.2429 -0.0744
 5894TIP3    H139173   2.584   3.580  16.932 -1.2199  0.0220  0.6078
 5894TIP3    H239174   2.596   3.487  16.814  0.8430  0.7966  0.1716
 5895TIP3   OH239175   0.887   3.734  15.145  0.2679 -0.0659 -0.0093
 5895TIP3    H139176   0.983   3.732  15.150  0.2302 -0.2131  0.8715
 5895TIP3    H239177   0.866   3.695  15.061  0.9731 -0.3117 -0.0784
 5896TIP3   OH239178   0.360   3.581   2.309 -0.2482 -0.8037  0.7081
 5896TIP3    H139179   0.430   3.534   2.263 -0.4605 -0.0980 -0.3519
 5896TIP3    H239180   0.390   3.672   2.312 -1.8062 -0.1479 -1.2406
 5897TIP3   OH239181   1.857   3.610   4.886  0.0784 -0.1586 -0.3042
 5897TIP3    H139182   1.769   3.580   4.908 -0.0475  1.3824  1.4919
 5897TIP3    H239183   1.846   3.702   4.861  1.0068 -0.3596 -1.5800
 5898TIP3   OH239184   5.035   3.982   4.214 -0.2165 -0.5962 -0.3545
 5898TIP3    H139185   5.048   4.007   4.123 -0.8879  1.0891 -0.0317
 5898TIP3    H239186   5.110   4.018   4.260 -0.6871 -0.0064 -0.0263
 5899TIP3   OH239187   0.814   3.194   0.149 -0.2616  0.0915 -0.3569
 5899TIP3    H139188   0.902   3.220   0.175 -0.4760  1.1286 -0.6267
 5899TIP3    H239189   0.792   3.251   0.075 -0.8408 -0.7272 -0.8369
 5900TIP3   OH239190   2.722   3.742  12.756 -0.6716  0.1594 -0.7148
 5900TIP3    H139191   2.800   3.724  12.808 -1.2302  0.8789  0.3886
 5900TIP3    H239192   2.662   3.670  12.777 -0.3996 -0.2924 -1.4233
 5901TIP3   OH239193   2.829   4.003  13.062  0.4909  0.2590 -0.1890
 5901TIP3    H139194   2.886   4.058  13.116 -1.1624 -0.2256  2.1998
 5901TIP3    H239195   2.874   3.919  13.058  0.5749  0.2615  0.5761
 5902TIP3   OH239196   1.171   2.095  13.417  0.3090  0.3767  0.2979
 5902TIP3    H139197   1.220   2.015  13.434  0.3799  0.1060 -1.0813
 5902TIP3    H239198   1.216   2.163  13.467  0.6697 -0.3013  0.9077
 5903TIP3   OH239199   6.145   1.580  16.687  0.2057  0.8076  0.6291
 5903TIP3    H139200   6.150   1.601  16.594 -0.5510  1.1573  0.6620
 5903TIP3    H239201   6.172   1.660  16.731 -1.1508  1.2347  0.7290
 5904TIP3   OH239202   4.482   1.686   5.137  0.0082 -0.2839  0.1374
 5904TIP3    H139203   4.555   1.747   5.137  1.1787 -1.6045  1.5577
 5904TIP3    H239204   4.413   1.729   5.187  0.3661  0.3626  0.0767
 5905TIP3   OH239205   0.952   4.932  13.878 -0.2726 -0.2110  0.2414
 5905TIP3    H139206   0.871   4.882  13.872 -0.0444 -0.9925  2.5470
 5905TIP3    H239207   0.935   5.012  13.828 -1.7269 -1.2288 -0.9648
 5906TIP3   OH239208   5.804   3.974   3.621 -0.1132 -0.2670  0.0346
 5906TIP3    H139209   5.838   3.889   3.649 -0.4859 -0.6937 -0.7507
 5906TIP3    H239210   5.812   4.031   3.697 -0.2572 -1.1325  0.7048
 5907TIP3   OH239211   0.000   2.063   5.307  0.1602 -0.2193  0.5627
 5907TIP3    H139212   0.067   2.090   5.245 -0.6644 -1.0249 -0.7287
 5907TIP3    H239213   0.030   1.978   5.339 -0.7718 -1.1713 -0.9438
 5908TIP3   OH239214   1.622   1.044  13.014  0.2891  0.8091 -0.2565
 5908TIP3    H139215   1.633   1.023  12.921  1.5350 -0.2330  0.1042
 5908TIP3    H239216   1.557   0.982  13.045  0.0508  0.9989 -0.3730
 5909TIP3   OH239217   1.007   6.622   3.850  0.1559 -0.4306 -0.1343
 5909TIP3    H139218   1.065   6.629   3.775  0.2128 -0.0044 -0.0531
 5909TIP3    H239219   1.048   6.556   3.907 -0.4064 -1.4996 -0.9340
 5910TIP3   OH239220   0.001   4.912   2.543  0.0162  0.2975  0.3846
 5910TIP3    H139221  -0.076   4.961   2.571  1.3926  3.5954 -1.0492
 5910TIP3    H239222  -0.020   4.882   2.454 -0.1495 -0.1989  0.5842
 5911TIP3   OH239223   5.553   1.708   1.019 -0.0662  0.7056  0.7307
 5911TIP3    H139224   5.590   1.637   0.966 -2.6574 -0.0685 -0.2379
 5911TIP3    H239225   5.527   1.775   0.955 -1.6702  0.5222  1.1401
 5912TIP3   OH239226   5.058   5.802  14.701  0.2183  0.3157  0.2213
 5912TIP3    H139227   4.968   5.809  14.669  0.4187 -0.2968 -0.5068
 5912TIP3    H239228   5.112   5.801  14.622  0.7138 -1.4063  0.5383
 5913TIP3   OH239229   5.162   1.517   6.068  0.0451 -0.0599 -0.0781
 5913TIP3    H139230   5.220   1.469   6.008 -1.3171 -2.0179  0.0805
 5913TIP3    H239231   5.185   1.482   6.155 -0.7861 -0.2520  0.0692
 5914TIP3   OH239232   6.150   2.048  13.297 -0.0087  0.2626  0.4988
 5914TIP3    H139233   6.207   1.979  13.330 -0.9888 -2.0947 -2.2893
 5914TIP3    H239234   6.149   2.036  13.203 -4.0149  0.9692  0.2442
 5915TIP3   OH239235   1.343   4.999   5.507  0.1975 -0.1625 -0.5393
 5915TIP3    H139236   1.370   4.908   5.488  0.4602  0.0953 -1.4565
 5915TIP3    H239237   1.426   5.048   5.508 -0.0527  0.3213 -1.5796
 5916TIP3   OH239238   4.744   5.615  14.510 -0.2174  0.4373  0.0432
 5916TIP3    H139239   4.676   5.634  14.575  0.6798  1.3763  0.7400
 5916TIP3    H239240   4.769   5.525  14.528 -1.2590  0.0815 -0.2125
 5917TIP3   OH239241   3.455   1.142   5.499  0.1897  0.1364  0.1169
 5917TIP3    H139242   3.362   1.129   5.480 -0.1005  1.4570  0.5540
 5917TIP3    H239243   3.474   1.078   5.568 -0.9557  1.2593  1.5444
 5918TIP3   OH239244   3.159   6.632   0.248  0.2750 -0.5413 -0.0571
 5918TIP3    H139245   3.073   6.624   0.289 -0.1238  1.4155 -0.3974
 5918TIP3    H239246   3.143   6.621   0.154  0.5635 -1.1395 -0.0408
 5919TIP3   OH239247   4.210   5.609  15.602 -0.0225 -0.0925 -0.4934
 5919TIP3    H139248   4.235   5.543  15.537  0.6155 -1.6987  1.2772
 5919TIP3    H239249   4.278   5.602  15.670 -0.0915  2.2352 -0.1000
 5920TIP3   OH239250   4.258   3.969   4.007  0.2366 -0.1500  0.1618
 5920TIP3    H139251   4.217   3.993   4.091  2.3575  1.1059  0.9290
 5920TIP3    H239252   4.332   3.913   4.032  0.5112 -0.2854 -0.9322
 5921TIP3   OH239253   5.447   2.295   0.940  0.4384  0.0515  0.0773
 5921TIP3    H139254   5.416   2.339   1.019 -1.0131 -2.3029  0.9383
 5921TIP3    H239255   5.392   2.330   0.869 -1.8565 -1.4019  1.0036
 5922TIP3   OH239256   2.531   3.131   0.019  0.3617  0.1085  0.5883
 5922TIP3    H139257   2.620   3.145  -0.011  0.2953 -0.7181 -0.0226
 5922TIP3    H239258   2.480   3.201  -0.022  0.7499  0.7162  1.1183
 5923TIP3   OH239259   6.739   6.620  15.042 -0.5867  0.6641  0.3156
 5923TIP3    H139260   6.684   6.578  14.976  0.7615 -0.1006 -0.3578
 5923TIP3    H239261   6.771   6.700  14.999 -1.8221  1.5785  1.0169
 5924TIP3   OH239262   1.097   6.442  14.865 -0.4327  0.1861  0.2898
 5924TIP3    H139263   1.133   6.415  14.780  0.8662  1.4232  0.3946
 5924TIP3    H239264   1.162   6.504  14.899 -0.1114 -1.4526  2.9252
 5925TIP3   OH239265   5.219   3.053   5.763 -0.0474  0.1664  0.1437
 5925TIP3    H139266   5.131   3.016   5.777 -0.3637  0.2397 -1.5362
 5925TIP3    H239267   5.267   3.027   5.842 -1.8790  1.1440  1.6931
 5926TIP3   OH239268   5.635   4.604  13.288 -0.0988 -0.1345 -0.3919
 5926TIP3    H139269   5.653   4.514  13.314  0.9048 -0.2764 -1.4862
 5926TIP3    H239270   5.543   4.604  13.264 -0.0361 -0.9403 -0.6563
 5927TIP3   OH239271   1.543   5.787  12.619 -0.5668 -0.2880  0.5849
 5927TIP3    H139272   1.540   5.692  12.611 -0.1036 -0.2476 -0.2027
 5927TIP3    H239273   1.574   5.803  12.708  1.7871 -0.9413 -0.0311
 5928TIP3   OH239274   2.366   4.517   3.295 -0.2200  0.0097  0.0189
 5928TIP3    H139275   2.303   4.587   3.279 -0.0725 -0.3268 -2.4024
 5928TIP3    H239276   2.358   4.460   3.219  1.2216 -1.4350  0.8847
 5929TIP3   OH239277   1.709   5.551  15.538  0.4500 -0.1858  0.4561
 5929TIP3    H139278   1.626   5.529  15.496  1.2644 -0.6745 -0.9645
 5929TIP3    H239279   1.744   5.624  15.486  1.8010 -1.2510 -0.2022
 5930TIP3   OH239280   6.544   3.306   4.914  0.1967 -0.2925 -0.3807
 5930TIP3    H139281   6.578   3.218   4.930  0.7859  0.2098  1.3351
 5930TIP3    H239282   6.480   3.295   4.844  1.4766 -1.8119 -1.3805
 5931TIP3   OH239283   4.966   2.173  12.748  0.1665 -0.4147  0.1527
 5931TIP3    H139284   4.924   2.178  12.662  1.4030 -1.2141 -0.5361
 5931TIP3    H239285   5.034   2.241  12.745 -0.2954  0.0827  0.8053
 5932TIP3   OH239286   5.443   3.705   5.178  0.2060  0.2721 -0.2492
 5932TIP3    H139287   5.440   3.713   5.083  0.3201 -0.8243 -0.3573
 5932TIP3    H239288   5.484   3.620   5.194  1.8739  1.1957  0.8092
 5933TIP3   OH239289   5.457   2.652  14.227 -0.8707 -0.2532 -0.2155
 5933TIP3    H139290   5.535   2.623  14.181 -0.1610  0.8407  0.2623
 5933TIP3    H239291   5.424   2.573  14.269  0.6166 -0.5335  0.4950
 5934TIP3   OH239292   5.109   2.434  15.214 -0.0730 -0.1567 -0.5810
 5934TIP3    H139293   5.065   2.350  15.225 -0.7203  0.1070 -1.1135
 5934TIP3    H239294   5.098   2.455  15.121 -0.2066  0.6749 -0.3872
 5935TIP3   OH239295   1.243   3.760   3.494  0.2659 -0.4154 -0.0945
 5935TIP3    H139296   1.303   3.780   3.422  0.9499  1.6674  0.9646
 5935TIP3    H239297   1.298   3.756   3.571 -0.8653  1.5647  0.9103
 5936TIP3   OH239298   3.205   5.285  16.408 -0.2030  0.0943  0.1266
 5936TIP3    H139299   3.271   5.223  16.438  0.8110  0.6113 -0.9352
 5936TIP3    H239300   3.126   5.232  16.396 -0.3145 -0.3563  2.3602
 5937TIP3   OH239301   4.247   5.009   4.483 -0.0735 -0.1172 -0.2089
 5937TIP3    H139302   4.275   4.996   4.393  0.0801 -1.1052 -0.0294
 5937TIP3    H239303   4.315   4.968   4.536  0.9530  2.2928  0.4838
 5938TIP3   OH239304   3.609   3.866   0.082 -0.1468  0.0877  0.0028
 5938TIP3    H139305   3.658   3.947   0.101 -0.3684  0.2958 -0.3183
 5938TIP3    H239306   3.585   3.873  -0.010 -1.1728  0.1963  0.2667
 5939TIP3   OH239307   5.994   2.053  13.795 -0.4157  0.2079 -0.5916
 5939TIP3    H139308   5.980   2.130  13.851 -1.9136 -1.0942  0.9636
 5939TIP3    H239309   5.996   2.088  13.706 -2.4722  1.9444 -0.0663
 5940TIP3   OH239310   2.444   2.993  16.096  0.1768  0.0785 -0.0706
 5940TIP3    H139311   2.414   2.925  16.157 -0.6323 -0.1623 -0.7113
 5940TIP3    H239312   2.539   2.993  16.106  0.8307 -4.3780 -3.1967
 5941TIP3   OH239313   6.272   3.583  12.195  0.4023  0.3602  0.7789
 5941TIP3    H139314   6.251   3.511  12.136  1.5845  0.1442  0.6078
 5941TIP3    H239315   6.344   3.630  12.153 -1.1221  2.4123  0.2867
 5942TIP3   OH239316   4.469   0.775  13.511  1.0054  0.1200  0.2222
 5942TIP3    H139317   4.420   0.852  13.486  0.8608 -0.3782 -1.1333
 5942TIP3    H239318   4.423   0.702  13.470  1.8534 -0.5489  0.4111
 5943TIP3   OH239319   1.546   5.303   2.720  0.0847 -0.2455 -0.1357
 5943TIP3    H139320   1.570   5.291   2.812  1.4960 -1.1423 -0.5901
 5943TIP3    H239321   1.542   5.398   2.709  0.0477 -0.1268  0.8242
 5944TIP3   OH239322   6.383   6.323   2.624  0.6509  0.0016 -0.0485
 5944TIP3    H139323   6.326   6.373   2.683  1.8725  0.9926  0.3361
 5944TIP3    H239324   6.323   6.277   2.566 -0.9550 -3.9448  4.0622
 5945TIP3   OH239325   5.699   0.667   3.003 -0.0718  0.4483  0.3865
 5945TIP3    H139326   5.686   0.759   3.023 -0.0537  0.4413  0.4315
 5945TIP3    H239327   5.663   0.621   3.079 -3.0110  0.3006 -0.9462
 5946TIP3   OH239328   2.752   1.842   3.697  0.7173  0.4496 -0.5794
 5946TIP3    H139329   2.686   1.889   3.646  0.8338  0.8530 -0.3607
 5946TIP3    H239330   2.758   1.891   3.779  0.3210 -0.3684 -0.0559
 5947TIP3   OH239331   5.679   0.268   2.888  0.0187 -0.2843 -0.0123
 5947TIP3    H139332   5.727   0.334   2.938  1.4264 -0.6277 -0.8630
 5947TIP3    H239333   5.744   0.202   2.866 -1.0526 -1.2429 -0.4247
 5948TIP3   OH239334   2.108   5.701   2.629  0.6020 -0.6401 -0.1329
 5948TIP3    H139335   2.021   5.734   2.606  1.0060  1.6920  1.4220
 5948TIP3    H239336   2.155   5.696   2.546 -0.0618  1.0829 -0.6454
 5949TIP3   OH239337   1.824   1.551   2.783  0.0462  0.2853  0.3336
 5949TIP3    H139338   1.753   1.614   2.768  1.1129  1.1846 -1.2601
 5949TIP3    H239339   1.810   1.519   2.872 -2.2748  0.5238  0.1023
 5950TIP3   OH239340   4.185   0.979   3.691 -0.7459  0.6222 -0.5173
 5950TIP3    H139341   4.205   0.890   3.722 -0.2083  0.3556 -1.5919
 5950TIP3    H239342   4.270   1.022   3.685 -1.0936  1.6156  1.1130
 5951TIP3   OH239343   5.363   0.678   5.582 -0.0567  0.4076  0.2800
 5951TIP3    H139344   5.385   0.695   5.674 -0.8413  1.9520  0.2271
 5951TIP3    H239345   5.368   0.583   5.573 -2.4001 -0.0736  2.6038
 5952TIP3   OH239346   5.860   5.725  12.510 -0.6249  0.2552 -0.0336
 5952TIP3    H139347   5.863   5.821  12.513 -0.2730  0.2793 -0.9176
 5952TIP3    H239348   5.782   5.702  12.562 -0.2434  0.9674  0.9001
 5953TIP3   OH239349   5.811   0.451   3.959  0.1659  0.0449  0.1103
 5953TIP3    H139350   5.841   0.364   3.933 -0.2791  0.5382 -2.3199
 5953TIP3    H239351   5.721   0.439   3.988 -0.5801 -0.1026 -2.0961
 5954TIP3   OH239352   1.228   3.486   5.507 -0.5330  0.5365  0.1611
 5954TIP3    H139353   1.184   3.448   5.431  0.9050 -0.1903 -0.3407
 5954TIP3    H239354   1.159   3.493   5.573 -1.3566 -0.7701 -0.5182
 5955TIP3   OH239355   0.720   0.465  14.438 -0.6332  0.0662 -0.2025
 5955TIP3    H139356   0.743   0.381  14.399  1.0437  0.1293  0.5484
 5955TIP3    H239357   0.690   0.442  14.526 -0.5402  0.2157 -0.1314
 5956TIP3   OH239358   2.777   2.057  11.026 -0.2802  0.2414 -0.3234
 5956TIP3    H139359   2.852   2.115  11.020 -0.2276  0.6166  2.4688
 5956TIP3    H239360   2.814   1.974  11.057 -0.8484  0.0660 -0.1025
 5957TIP3   OH239361   4.398   3.243   4.293 -0.1741  0.2509 -0.0225
 5957TIP3    H139362   4.395   3.281   4.206 -1.4778  1.3062  0.4496
 5957TIP3    H239363   4.489   3.217   4.305  0.0501  0.2064 -1.6264
 5958TIP3   OH239364   2.701   1.089   3.612 -0.3132 -0.2885  0.1401
 5958TIP3    H139365   2.731   0.999   3.597  0.1562 -0.1116 -0.0075
 5958TIP3    H239366   2.676   1.091   3.704  2.6307  0.2385  1.0315
 5959TIP3   OH239367   1.391   4.879  17.214  0.1671 -0.1699 -0.6823
 5959TIP3    H139368   1.406   4.800  17.163  2.6542 -0.2424  0.0325
 5959TIP3    H239369   1.430   4.860  17.299  1.2455  1.9805 -0.6353
 5960TIP3   OH239370   1.012   0.555  16.273  0.4097 -0.1556 -0.7021
 5960TIP3    H139371   1.032   0.552  16.179 -1.3988  0.0967 -1.1193
 5960TIP3    H239372   1.011   0.648  16.294  0.5229 -0.2008 -0.4984
 5961TIP3   OH239373   4.318   1.829  16.209  0.2435 -0.5621  0.5574
 5961TIP3    H139374   4.365   1.750  16.183  2.5169  0.9041 -0.1298
 5961TIP3    H239375   4.387   1.891  16.233 -1.4710  1.0259  1.6743
 5962TIP3   OH239376   4.797   3.603  12.703  0.0618  0.4294  0.3012
 5962TIP3    H139377   4.801   3.683  12.755 -0.7170  0.8321 -0.2409
 5962TIP3    H239378   4.800   3.633  12.612 -0.4790 -0.1412  0.0865
 5963TIP3   OH239379   4.148   3.053   5.814  0.0734  0.4570 -0.8007
 5963TIP3    H139380   4.214   3.122   5.805  1.4208 -0.5422  0.7756
 5963TIP3    H239381   4.191   2.975   5.778 -0.3085 -0.1591  0.0572
 5964TIP3   OH239382   5.439   0.521   0.149 -0.1017 -0.2872 -0.4283
 5964TIP3    H139383   5.488   0.599   0.176  0.8488 -1.1124  0.2909
 5964TIP3    H239384   5.427   0.533   0.055  1.1842  0.1176 -0.5660
 5965TIP3   OH239385   5.064   6.761   2.801 -0.2082  0.1163  0.5480
 5965TIP3    H139386   4.973   6.789   2.813  0.1145  0.9083  1.3377
 5965TIP3    H239387   5.091   6.803   2.719 -0.2908  0.6145  0.7714
 5966TIP3   OH239388   0.449   5.837   0.900 -0.2485  0.0440 -0.2088
 5966TIP3    H139389   0.416   5.900   0.965  0.8074 -1.7998  2.2821
 5966TIP3    H239390   0.534   5.871   0.875  1.7112 -1.6362  3.3952
 5967TIP3   OH239391   4.074   3.529   0.932 -0.1474  0.3241  0.8794
 5967TIP3    H139392   4.067   3.617   0.893  1.0560  0.1505  0.2308
 5967TIP3    H239393   4.006   3.479   0.888  0.6760  0.3414 -0.4893
 5968TIP3   OH239394   2.449   1.982   3.760  0.0340  0.4345  0.0143
 5968TIP3    H139395   2.387   1.913   3.786 -0.4289  0.0504 -1.9891
 5968TIP3    H239396   2.486   1.951   3.678  1.4095  1.6187  0.1587
 5969TIP3   OH239397   6.583   3.694   2.980 -0.1316 -0.4180  0.3274
 5969TIP3    H139398   6.524   3.686   3.055 -0.8151 -0.4141 -0.2006
 5969TIP3    H239399   6.553   3.628   2.918 -0.2253  0.2627 -0.3686
 5970TIP3   OH239400   0.252   2.869  14.572 -0.5699  0.0609  0.1680
 5970TIP3    H139401   0.205   2.945  14.604 -1.5891 -1.0372  1.4156
 5970TIP3    H239402   0.183   2.813  14.534 -0.0160 -0.7624  0.3536
 5971TIP3   OH239403   1.444   3.540  11.895 -0.2893 -0.2530 -0.1224
 5971TIP3    H139404   1.378   3.481  11.859  0.7920 -1.5129 -0.1000
 5971TIP3    H239405   1.425   3.625  11.855 -0.3000 -1.1743 -2.1708
 5972TIP3   OH239406   3.950   2.900   3.477 -0.8073  0.4030 -0.6137
 5972TIP3    H139407   4.032   2.943   3.453  0.2293 -1.0972  0.1704
 5972TIP3    H239408   3.890   2.973   3.496  1.2385  1.5823  1.9400
 5973TIP3   OH239409   5.983   0.952  12.471  0.0165 -0.5156 -0.3731
 5973TIP3    H139410   5.930   1.005  12.530  1.5159 -0.4988  1.0402
 5973TIP3    H239411   6.026   0.888  12.528  2.4399  0.2201 -1.2190
 5974TIP3   OH239412   5.584   1.494  12.342  0.0333 -0.1568 -0.1846
 5974TIP3    H139413   5.659   1.441  12.316  1.6941  1.7335  0.5154
 5974TIP3    H239414   5.620   1.582  12.355 -2.3154  0.8198  0.1796
 5975TIP3   OH239415   6.525   1.425  13.665 -0.3074  0.2274 -0.2796
 5975TIP3    H139416   6.464   1.495  13.641  0.8520  1.5384  0.4658
 5975TIP3    H239417   6.579   1.463  13.734  3.1378  0.1167 -2.6661
 5976TIP3   OH239418   4.184   3.508  11.702 -0.0382  0.0983  0.0297
 5976TIP3    H139419   4.098   3.536  11.672 -0.2568 -0.6087 -0.0328
 5976TIP3    H239420   4.224   3.587  11.738 -0.5833  0.5032 -0.2381
 5977TIP3   OH239421   2.209   3.621  14.665  0.6929  0.0466  0.4546
 5977TIP3    H139422   2.264   3.564  14.611  0.9174  0.3585  0.3536
 5977TIP3    H239423   2.256   3.704  14.668  0.6679  0.0365  1.1134
 5978TIP3   OH239424   2.247   5.767  13.111  0.6743  0.2510  0.5024
 5978TIP3    H139425   2.193   5.843  13.087 -0.5833 -0.6772  0.2988
 5978TIP3    H239426   2.231   5.755  13.204  0.8264  0.1943  0.5215
 5979TIP3   OH239427   2.547   2.513  14.668 -0.5146  0.1527  0.2590
 5979TIP3    H139428   2.504   2.582  14.719  1.2210  0.0353  1.9855
 5979TIP3    H239429   2.622   2.557  14.628  0.2002 -0.5563  0.7930
 5980TIP3   OH239430   3.790   1.905  15.445 -0.0521  0.2783  0.0313
 5980TIP3    H139431   3.715   1.861  15.404  1.9805 -2.3342 -1.2434
 5980TIP3    H239432   3.809   1.979  15.387  0.7795 -1.4711 -2.0894
 5981TIP3   OH239433   0.849   1.402   0.224  0.5347  0.3504 -0.3780
 5981TIP3    H139434   0.877   1.469   0.162  0.8967  0.0033 -0.5991
 5981TIP3    H239435   0.891   1.424   0.306  1.9951 -0.5123 -0.8597
 5982TIP3   OH239436   6.759   4.486  15.725 -0.3206  0.1720  0.0060
 5982TIP3    H139437   6.823   4.482  15.796  0.4450 -0.0436 -0.6852
 5982TIP3    H239438   6.708   4.405  15.733  0.0123 -0.0312  0.0855
 5983TIP3   OH239439   2.231   2.212   6.102 -0.6216  0.0788 -0.2215
 5983TIP3    H139440   2.306   2.155   6.090  0.8044  1.8796 -0.2345
 5983TIP3    H239441   2.160   2.153   6.128  1.1271 -1.5158  1.2004
 5984TIP3   OH239442   3.122   1.838   4.543  0.5611  0.1382  0.8095
 5984TIP3    H139443   3.162   1.853   4.629 -1.0446 -0.0012  1.6202
 5984TIP3    H239444   3.038   1.883   4.547 -0.2162 -1.1423 -0.1204
 5985TIP3   OH239445   4.680   1.603   2.780  0.2095  0.5068  0.2756
 5985TIP3    H139446   4.772   1.620   2.799  0.7602 -1.5184 -0.3424
 5985TIP3    H239447   4.662   1.652   2.700  0.9507  0.3811  0.0286
 5986TIP3   OH239448   0.594   4.258  12.288  0.8738  0.1793 -0.3379
 5986TIP3    H139449   0.518   4.257  12.347 -0.0298 -0.3931 -1.4802
 5986TIP3    H239450   0.597   4.348  12.254 -0.2061 -0.1770 -1.4201
 5987TIP3   OH239451   2.660   2.483  15.644  0.1354 -0.1867  0.3108
 5987TIP3    H139452   2.648   2.575  15.621  0.7553  0.0529  0.9162
 5987TIP3    H239453   2.697   2.443  15.565 -0.0460  0.0999  0.0786
 5988TIP3   OH239454   3.098   3.412  10.850  0.0137  0.3602  0.6620
 5988TIP3    H139455   3.017   3.364  10.832 -0.8634  1.4299  1.6154
 5988TIP3    H239456   3.168   3.348  10.833 -0.9864 -0.4250 -0.6813
 5989TIP3   OH239457   0.625   3.929  12.852  0.1338 -0.3685  0.1305
 5989TIP3    H139458   0.626   3.840  12.884  2.2006 -1.1088 -1.7061
 5989TIP3    H239459   0.558   3.929  12.783  0.1299 -0.5031  0.1345
 5990TIP3   OH239460   1.463   6.356  14.797 -0.0810  0.1476  0.0514
 5990TIP3    H139461   1.419   6.441  14.807 -1.4570 -0.4168 -0.9569
 5990TIP3    H239462   1.513   6.364  14.716 -0.2986 -0.0410 -0.1014
 5991TIP3   OH239463   5.919   0.131  17.149 -0.5338  0.2359 -0.2040
 5991TIP3    H139464   5.861   0.063  17.181 -1.1573  0.5841 -0.5740
 5991TIP3    H239465   5.997   0.124  17.203 -0.5976 -0.7582 -0.2245
 5992TIP3   OH239466   5.969   6.076   1.782  0.1172 -0.5117 -0.6375
 5992TIP3    H139467   5.924   6.006   1.733 -0.4610 -0.5931 -0.0015
 5992TIP3    H239468   5.915   6.088   1.860  0.6333  0.1306 -0.3818
 5993TIP3   OH239469   1.966   3.641   0.862  0.3157  0.0067  1.2520
 5993TIP3    H139470   2.061   3.640   0.853  0.1901  0.8168 -0.5427
 5993TIP3    H239471   1.950   3.665   0.953  1.8198 -0.5760  1.6846
 5994TIP3   OH239472   3.929   5.450   1.309  0.2197 -0.3991 -0.8381
 5994TIP3    H139473   3.866   5.520   1.322  1.2707  0.5777 -0.8329
 5994TIP3    H239474   3.904   5.382   1.372 -1.6954 -0.7021 -1.8487
 5995TIP3   OH239475   2.022   2.637  16.205  0.3045 -0.2067  0.0568
 5995TIP3    H139476   1.968   2.687  16.144  0.2865  0.1382  0.3545
 5995TIP3    H239477   2.112   2.659  16.179  0.3322 -1.4811 -1.0234
 5996TIP3   OH239478   3.983   5.107  12.334 -0.2277 -0.1912  0.0365
 5996TIP3    H139479   4.034   5.030  12.360 -1.5353 -1.4111 -0.8014
 5996TIP3    H239480   3.947   5.083  12.248 -1.0918  1.1494 -0.0004
 5997TIP3   OH239481   3.354   3.281  14.488 -0.0920 -0.1897  0.2528
 5997TIP3    H139482   3.420   3.239  14.543 -0.0857 -0.0677  0.3405
 5997TIP3    H239483   3.404   3.342  14.434 -0.2578  0.8275  1.1964
 5998TIP3   OH239484   3.198   6.758  13.974  0.4686 -0.0622  0.3120
 5998TIP3    H139485   3.286   6.790  13.959 -0.4275  2.3926 -0.1109
 5998TIP3    H239486   3.141   6.826  13.938 -1.6100 -1.0368  1.5773
 5999TIP3   OH239487   0.889   1.590  16.076 -0.2695  0.1747  0.2306
 5999TIP3    H139488   0.959   1.565  16.136  0.0177  1.3485  0.4280
 5999TIP3    H239489   0.867   1.510  16.029  0.2028 -0.5324  1.1864
 6000TIP3   OH239490   4.155   3.525  12.337  0.2192 -0.0902 -0.0167
 6000TIP3    H139491   4.142   3.465  12.264  1.0438  0.2199 -0.4303
 6000TIP3    H239492   4.077   3.580  12.338 -0.0422 -0.4537 -0.3140
 6001TIP3   OH239493   0.581   6.461  12.884 -0.3250 -0.1941 -0.4398
 6001TIP3    H139494   0.671   6.493  12.878  0.3489 -1.2536  2.4288
 6001TIP3    H239495   0.589   6.366  12.874 -1.4877 -0.1332 -2.4861
 6002TIP3   OH239496   3.620   5.839  16.892 -0.0547 -0.4907 -0.0608
 6002TIP3    H139497   3.661   5.754  16.877 -0.6918 -1.0858  1.4189
 6002TIP3    H239498   3.569   5.828  16.972  2.1020  2.1029  1.8394
 6003TIP3   OH239499   2.765   5.280   0.633 -0.3260  0.0254 -0.5542
 6003TIP3    H139500   2.826   5.353   0.642 -1.1629  0.7152 -0.4410
 6003TIP3    H239501   2.699   5.295   0.700 -2.0719  0.7113 -2.3489
 6004TIP3   OH239502   2.317   1.735   3.768  0.3153 -0.3869  0.2022
 6004TIP3    H139503   2.370   1.704   3.694 -0.0919 -0.7686  0.0713
 6004TIP3    H239504   2.228   1.741   3.733  0.1579 -0.3720  0.6068
 6005TIP3   OH239505   4.652   0.995  17.229  0.3384  0.0749 -0.1656
 6005TIP3    H139506   4.746   0.984  17.216  0.5355  2.2531 -1.0676
 6005TIP3    H239507   4.613   0.963  17.148  0.3851 -0.0313 -0.1444
 6006TIP3   OH239508   1.215   3.132   3.350  0.6734 -0.0727  0.8088
 6006TIP3    H139509   1.173   3.119   3.264  3.1344  0.7458 -0.6235
 6006TIP3    H239510   1.195   3.052   3.399  1.3347 -1.7527 -1.4980
 6007TIP3   OH239511   0.399   2.742  16.709 -0.0371 -0.4176 -0.0066
 6007TIP3    H139512   0.385   2.828  16.669 -0.4008 -0.2926  0.3783
 6007TIP3    H239513   0.479   2.753  16.762  2.6714 -1.5729 -3.4567
 6008TIP3   OH239514   5.852   2.437   5.502  0.2431 -0.3799  0.2086
 6008TIP3    H139515   5.910   2.508   5.475  0.6266  0.0805  2.1051
 6008TIP3    H239516   5.895   2.357   5.470  1.2907  0.0473  0.5109
 6009TIP3   OH239517   3.204   4.021   5.114  0.4227 -0.6992 -0.4412
 6009TIP3    H139518   3.121   4.068   5.113  0.0080 -1.4001  0.0618
 6009TIP3    H239519   3.270   4.087   5.134 -0.1735 -0.3715  0.4894
 6010TIP3   OH239520   2.520   2.896  11.828 -0.0834  0.1023  0.3079
 6010TIP3    H139521   2.546   2.804  11.817 -0.6259  0.0043 -0.2038
 6010TIP3    H239522   2.494   2.924  11.741 -0.0331  0.7147  0.4844
 6011TIP3   OH239523   0.794   4.543  15.093  0.2795  0.3896 -0.8473
 6011TIP3    H139524   0.699   4.556  15.096  0.5833  2.9493  1.1190
 6011TIP3    H239525   0.813   4.484  15.166  0.2005 -0.7365 -1.6952
 6012TIP3   OH239526   0.429   0.696   3.412  0.0212 -0.5691 -0.6455
 6012TIP3    H139527   0.350   0.685   3.463  1.3887 -2.0014  1.2767
 6012TIP3    H239528   0.491   0.737   3.472  0.9923 -0.1648 -1.8774
 6013TIP3   OH239529   1.396   4.054   5.662  0.6513 -0.1640 -0.2287
 6013TIP3    H139530   1.361   4.035   5.575  0.9901 -1.4541 -0.1133
 6013TIP3    H239531   1.386   4.148   5.672 -0.3353 -0.1373 -1.2470
 6014TIP3   OH239532   0.477   3.809   2.777 -0.2511  0.4912 -0.1879
 6014TIP3    H139533   0.405   3.757   2.742  0.0234 -0.3207  0.4211
 6014TIP3    H239534   0.547   3.800   2.712 -1.0176  2.1616 -1.3248
 6015TIP3   OH239535   5.616   1.879   4.486  0.3194  0.6383  1.2975
 6015TIP3    H139536   5.565   1.801   4.506 -1.2707  1.2276 -0.2012
 6015TIP3    H239537   5.609   1.933   4.564 -2.5549  1.2684  0.6996
 6016TIP3   OH239538   4.151   1.223   5.282 -0.0339  0.7768  0.0885
 6016TIP3    H139539   4.212   1.295   5.296  0.4334  0.2273  0.9343
 6016TIP3    H239540   4.188   1.174   5.208  0.3703  0.6342  0.3846
 6017TIP3   OH239541   4.288   3.706  14.970  0.1605  0.1388  0.3117
 6017TIP3    H139542   4.213   3.658  14.933  0.3101 -1.5514  2.0350
 6017TIP3    H239543   4.248   3.779  15.018 -0.2727  0.0901  0.0345
 6018TIP3   OH239544   0.255   6.604  15.953  0.1761 -0.5940  0.4392
 6018TIP3    H139545   0.333   6.575  16.001  0.7781  0.5399  0.1748
 6018TIP3    H239546   0.269   6.571  15.864  0.1201 -0.7873  0.5000
 6019TIP3   OH239547   5.110   1.012   5.846 -0.4358 -0.1042 -0.2350
 6019TIP3    H139548   5.052   0.947   5.806  0.0704 -0.4982 -0.3374
 6019TIP3    H239549   5.161   0.963   5.909 -1.4690  0.5799  1.1816
 6020TIP3   OH239550   2.421   3.058   2.651  0.2838  0.0187 -0.9657
 6020TIP3    H139551   2.375   3.101   2.578 -0.5386  0.0259 -0.4612
 6020TIP3    H239552   2.495   3.115   2.670  0.1919  0.3031 -1.4390
 6021TIP3   OH239553   2.215   0.702  11.966 -0.0563 -0.2756  0.5576
 6021TIP3    H139554   2.284   0.703  12.032  0.0366  3.0145  0.5570
 6021TIP3    H239555   2.257   0.667  11.887  2.0143  2.5515  0.2800
 6022TIP3   OH239556   4.574   0.038  16.204  0.1687  0.4585  0.4868
 6022TIP3    H139557   4.622  -0.022  16.147  0.6783 -0.3362  1.7189
 6022TIP3    H239558   4.484   0.037  16.171  0.5828  0.5157 -0.6849
 6023TIP3   OH239559   2.279   5.866   0.165  0.7456 -0.7653 -0.2897
 6023TIP3    H139560   2.218   5.827   0.102  0.4249  0.2881 -0.6521
 6023TIP3    H239561   2.366   5.851   0.127  0.5639 -0.2624 -0.9287
 6024TIP3   OH239562   5.748   3.515  16.390 -0.6151  0.7332  0.4660
 6024TIP3    H139563   5.825   3.479  16.435  0.1550  0.7455 -0.7709
 6024TIP3    H239564   5.756   3.610  16.402  0.1463  0.8105 -0.5018
 6025TIP3   OH239565   5.820   6.194   4.570 -0.0733 -0.1044  0.5978
 6025TIP3    H139566   5.732   6.226   4.594  0.3411  0.4280  1.4467
 6025TIP3    H239567   5.849   6.255   4.503  0.2500  0.6463  1.3995
 6026TIP3   OH239568   2.282   0.851   0.727  0.2324  0.3636 -0.2211
 6026TIP3    H139569   2.275   0.924   0.789 -0.0883  0.1589 -0.0157
 6026TIP3    H239570   2.333   0.785   0.773 -0.4922 -0.0208  0.0524
 6027TIP3   OH239571   3.863   2.450  12.217 -0.2910  0.4030 -0.2198
 6027TIP3    H139572   3.857   2.365  12.260  0.8581 -0.1310 -1.0763
 6027TIP3    H239573   3.868   2.430  12.124 -0.1829  1.4178 -0.4454
 6028TIP3   OH239574   5.515   3.233  16.294  0.0891 -0.0286 -0.2539
 6028TIP3    H139575   5.504   3.142  16.269 -0.0122 -0.5204  1.4180
 6028TIP3    H239576   5.592   3.233  16.352 -0.4612  0.7625  0.5204
 6029TIP3   OH239577   3.452   3.542   3.169 -0.1071  0.8016 -0.2977
 6029TIP3    H139578   3.443   3.453   3.205 -1.9769  1.1595  0.2507
 6029TIP3    H239579   3.396   3.596   3.226  0.4785  2.2136 -1.0217
 6030TIP3   OH239580   2.087   5.436   1.387  0.7174 -0.7263 -0.1720
 6030TIP3    H139581   2.029   5.498   1.343  3.8705  1.9325 -0.8880
 6030TIP3    H239582   2.146   5.490   1.440  1.5822 -3.3787  1.8030
 6031TIP3   OH239583   4.876   2.802   4.949 -0.2731  0.3999 -0.5334
 6031TIP3    H139584   4.907   2.785   5.038 -0.0957 -2.1206 -1.0250
 6031TIP3    H239585   4.781   2.803   4.956 -0.2494  0.8176 -0.2306
 6032TIP3   OH239586   5.567   2.347   6.484  0.1727  0.3163  0.7140
 6032TIP3    H139587   5.493   2.352   6.544  0.6443  2.6066  1.1706
 6032TIP3    H239588   5.638   2.391   6.529  0.4350  2.4714 -1.6047
 6033TIP3   OH239589   3.428   0.286  12.894  0.0174 -0.3016 -0.5215
 6033TIP3    H139590   3.377   0.364  12.917 -0.5943 -0.9186  0.2841
 6033TIP3    H239591   3.430   0.286  12.798  1.3828  1.5468 -0.5314
 6034TIP3   OH239592   0.103   6.218  11.280 -0.6813 -0.3777 -0.3864
 6034TIP3    H139593   0.022   6.206  11.329 -1.4218  1.5313 -1.0607
 6034TIP3    H239594   0.078   6.270  11.204  0.9538 -0.8663 -1.3162
 6035TIP3   OH239595   4.197   5.076  14.951 -0.2095 -0.0255 -0.4556
 6035TIP3    H139596   4.224   4.984  14.960  0.9750  0.1817 -1.5224
 6035TIP3    H239597   4.104   5.075  14.971  0.2558 -1.0310  2.0060
 6036TIP3   OH239598   3.266   1.411  14.371  0.2770 -0.6618  0.7201
 6036TIP3    H139599   3.309   1.329  14.348  0.4432 -0.4863  0.3976
 6036TIP3    H239600   3.290   1.426  14.462  1.9774  0.0987  0.1870
 6037TIP3   OH239601   4.236   2.671   5.239 -0.1209 -0.5982  0.2799
 6037TIP3    H139602   4.327   2.671   5.208  0.2459 -1.8405  1.2867
 6037TIP3    H239603   4.238   2.724   5.319 -0.1595 -1.1080  0.6201
 6038TIP3   OH239604   1.641   1.668  16.741  0.7429 -0.9912  0.3606
 6038TIP3    H139605   1.572   1.606  16.765 -1.1874  0.8957  0.0046
 6038TIP3    H239606   1.633   1.740  16.804  0.1525  0.7877 -1.6133
 6039TIP3   OH239607   2.099   3.397   2.369  0.2558 -0.3960 -0.2344
 6039TIP3    H139608   2.127   3.308   2.392 -0.0512 -0.6716 -0.8703
 6039TIP3    H239609   2.144   3.454   2.431  1.0217 -0.9454 -0.2689
 6040TIP3   OH239610   1.219   2.557   5.408 -0.2607 -0.2328 -0.5844
 6040TIP3    H139611   1.213   2.550   5.312 -0.6068 -2.6712 -0.4391
 6040TIP3    H239612   1.221   2.467   5.439  0.9578  0.4926  1.6825
 6041TIP3   OH239613   2.416   6.244   1.895 -0.2794 -0.6914 -0.1662
 6041TIP3    H139614   2.342   6.207   1.942 -1.6947  1.6890 -0.3994
 6041TIP3    H239615   2.490   6.187   1.918 -1.2044 -0.6375  3.5775
 6042TIP3   OH239616   0.078   0.032   0.917 -0.4413 -0.1945  0.0388
 6042TIP3    H139617   0.057   0.059   1.007  0.5959 -1.7663  0.7986
 6042TIP3    H239618   0.170   0.055   0.906  0.5978 -3.4081  0.8354
 6043TIP3   OH239619   6.431   1.850   2.969 -0.4694  0.0582 -0.0701
 6043TIP3    H139620   6.526   1.850   2.983 -0.5110 -0.5663  0.2503
 6043TIP3    H239621   6.404   1.940   2.989 -0.0501  0.0432  0.5982
 6044TIP3   OH239622   5.710   5.570  12.288 -0.0898 -0.2074 -0.0687
 6044TIP3    H139623   5.769   5.623  12.342  0.7320 -2.0488  0.9580
 6044TIP3    H239624   5.644   5.632  12.256  0.3337  1.2695  1.7360
 6045TIP3   OH239625   4.104   3.637   0.655 -0.4724  0.1207 -0.2061
 6045TIP3    H139626   4.183   3.610   0.608 -0.6485 -1.0380  0.1320
 6045TIP3    H239627   4.085   3.725   0.622  0.0784 -0.2047 -1.4367
 6046TIP3   OH239628   2.708   6.454   3.203 -0.2163  0.1589  0.2281
 6046TIP3    H139629   2.618   6.432   3.226  0.1980 -1.5034  0.4032
 6046TIP3    H239630   2.753   6.460   3.287  0.0683 -0.1252  0.0963
 6047TIP3   OH239631   2.403   0.730  17.152  0.0296 -0.4004 -0.3944
 6047TIP3    H139632   2.453   0.780  17.216 -1.6181  2.1049 -0.9411
 6047TIP3    H239633   2.469   0.695  17.092  1.2926  0.9049  0.1768
 6048TIP3   OH239634   0.522   0.102   2.670  0.4821 -0.1440 -0.7118
 6048TIP3    H139635   0.556   0.017   2.696  0.4801 -1.0544 -3.3189
 6048TIP3    H239636   0.437   0.109   2.714  0.1196 -1.8779 -1.0666
 6049TIP3   OH239637   3.690   5.739  13.485  0.4629  0.8332  0.1893
 6049TIP3    H139638   3.605   5.773  13.513  0.3590  1.1727 -0.5189
 6049TIP3    H239639   3.673   5.647  13.464  1.0190 -0.1124  3.3609
 6050TIP3   OH239640   3.527   6.424   4.678 -0.0470  0.0035 -0.0869
 6050TIP3    H139641   3.518   6.508   4.724  1.0408  0.5844 -0.8970
 6050TIP3    H239642   3.579   6.445   4.601  0.9938 -1.5887  0.1457
 6051TIP3   OH239643   3.785   4.687  16.167 -0.0211  0.3143  0.0722
 6051TIP3    H139644   3.712   4.644  16.212  0.8726 -1.7227 -0.3100
 6051TIP3    H239645   3.848   4.706  16.237  0.1344 -0.2373  0.0932
 6052TIP3   OH239646   3.570   6.148  13.055 -0.1188  0.3250 -0.2187
 6052TIP3    H139647   3.528   6.231  13.028  1.2408  0.6596 -1.4155
 6052TIP3    H239648   3.647   6.142  13.000  1.0811 -0.6010  1.4865
 6053TIP3   OH239649   3.228   3.511   5.713 -0.6722  0.1150 -0.2266
 6053TIP3    H139650   3.187   3.589   5.752 -1.1321  0.0357 -0.5460
 6053TIP3    H239651   3.218   3.523   5.619 -0.9281 -0.4226 -0.2745
 6054TIP3   OH239652   3.570   6.054   4.345 -0.7142  0.5563 -0.0385
 6054TIP3    H139653   3.475   6.054   4.333 -0.8980  0.5385  1.2315
 6054TIP3    H239654   3.587   6.128   4.403  0.0859  0.7067 -0.4488
 6055TIP3   OH239655   3.817   0.242   0.058  0.4118 -0.0080 -0.3684
 6055TIP3    H139656   3.762   0.225   0.134  1.9826  2.3085  1.4549
 6055TIP3    H239657   3.864   0.160   0.044 -0.4900 -0.7325  0.6487
 6056TIP3   OH239658   1.900   3.397   2.161 -0.1487  0.3094  0.2152
 6056TIP3    H139659   1.971   3.340   2.189 -2.0862 -1.5249  1.6950
 6056TIP3    H239660   1.867   3.356   2.081  2.4656  3.0501 -2.5488
 6057TIP3   OH239661   3.631   3.706  13.510  0.0382  0.5034 -0.4120
 6057TIP3    H139662   3.693   3.769  13.547 -0.4563  0.7791 -0.0577
 6057TIP3    H239663   3.686   3.632  13.484  0.8770  1.7147 -2.3580
 6058TIP3   OH239664   0.807   0.998  11.105 -0.2082 -0.1964  0.2638
 6058TIP3    H139665   0.734   1.050  11.139 -0.3631 -0.0463 -0.3021
 6058TIP3    H239666   0.863   1.062  11.060  0.5487 -0.2165  1.1336
 6059TIP3   OH239667   3.865   3.286   6.039 -0.2871 -0.2685 -0.2178
 6059TIP3    H139668   3.796   3.300   6.104 -1.8583  0.6797 -1.9736
 6059TIP3    H239669   3.884   3.374   6.006  2.2626 -0.4329  0.6378
 6060TIP3   OH239670   3.644   1.466   1.172 -1.2581  0.2103  0.3143
 6060TIP3    H139671   3.733   1.475   1.137 -0.5224  0.4194  2.0798
 6060TIP3    H239672   3.620   1.555   1.199 -2.6714  0.4441 -1.5427
 6061TIP3   OH239673   0.114   4.616  13.435 -0.5839  0.0112  0.1405
 6061TIP3    H139674   0.184   4.667  13.395 -0.4785 -0.9533 -0.9619
 6061TIP3    H239675   0.033   4.653  13.400 -0.5173 -0.4191 -0.4765
 6062TIP3   OH239676   3.505   5.226   1.933 -0.0737  0.2399 -0.2790
 6062TIP3    H139677   3.425   5.237   1.881 -0.9047 -3.1605  0.0763
 6062TIP3    H239678   3.485   5.266   2.017 -1.6236 -0.9311 -0.0494
 6063TIP3   OH239679   0.671   1.200   4.594 -0.2099  0.5747  0.3807
 6063TIP3    H139680   0.617   1.137   4.546  0.5898 -0.4782  0.8155
 6063TIP3    H239681   0.691   1.156   4.677  1.3383  0.9195  0.2166
 6064TIP3   OH239682   3.796   0.087   3.302 -0.2430 -0.5979 -0.1402
 6064TIP3    H139683   3.744   0.102   3.223 -1.4102  1.1077  0.8807
 6064TIP3    H239684   3.732   0.058   3.368  0.6557 -1.6702  0.2962
 6065TIP3   OH239685   6.293   3.192  12.762 -0.4251 -0.1364  0.6817
 6065TIP3    H139686   6.202   3.208  12.737 -0.0524  0.7624 -0.1882
 6065TIP3    H239687   6.300   3.097  12.772 -1.9589 -0.0865  2.8253
 6066TIP3   OH239688   6.603   6.665   2.333 -0.0254 -0.3573 -0.6559
 6066TIP3    H139689   6.531   6.678   2.394  1.5194 -1.6741  1.6037
 6066TIP3    H239690   6.569   6.603   2.268 -1.3301  0.1342 -0.4735
 6067TIP3   OH239691   5.148   2.280  16.626 -0.4538  0.3471 -0.1317
 6067TIP3    H139692   5.105   2.335  16.560 -2.2532 -0.8981 -0.0813
 6067TIP3    H239693   5.116   2.313  16.710 -0.1615  0.3362 -0.0156
 6068TIP3   OH239694   2.298   2.155  13.642 -0.4528  0.0911  0.5081
 6068TIP3    H139695   2.256   2.152  13.728 -0.3464 -1.3373  0.5343
 6068TIP3    H239696   2.225   2.162  13.580 -0.6660 -0.8523  0.6323
 6069TIP3   OH239697   2.098   4.927  14.743 -0.5267 -0.1508 -0.6837
 6069TIP3    H139698   2.040   4.946  14.669 -0.6204  2.8213  0.0190
 6069TIP3    H239699   2.162   4.999  14.742 -1.8047  1.3151  3.2994
 6070TIP3   OH239700   2.954   0.335  12.983  0.3743 -0.0392  0.3479
 6070TIP3    H139701   2.970   0.373  13.070 -0.4172 -0.5210  0.7219
 6070TIP3    H239702   3.012   0.259  12.980  1.8119  1.0482 -0.3220
 6071TIP3   OH239703   4.919   4.698  14.728 -0.1808 -0.4274  0.0638
 6071TIP3    H139704   4.922   4.636  14.656  1.0078  0.1634 -0.4230
 6071TIP3    H239705   4.848   4.667  14.784  0.7853 -2.5869  0.1767
 6072TIP3   OH239706   6.092   5.055  16.723  0.5388 -0.1394 -0.4050
 6072TIP3    H139707   6.067   5.130  16.777 -0.8768 -0.0131 -1.1860
 6072TIP3    H239708   6.186   5.066  16.709  0.2781  1.7499 -0.8879
 6073TIP3   OH239709   2.911   4.731   1.694 -0.2623 -0.5585  0.2659
 6073TIP3    H139710   2.945   4.642   1.702  0.4058 -0.3815 -0.5019
 6073TIP3    H239711   2.928   4.756   1.603 -0.8996  0.1727  0.3323
 6074TIP3   OH239712   4.297   5.509  13.668 -0.0870  0.0828  0.0781
 6074TIP3    H139713   4.328   5.419  13.660 -0.0283  0.0512  0.5829
 6074TIP3    H239714   4.331   5.538  13.753  0.1612  0.6838 -0.2172
 6075TIP3   OH239715   3.833   6.493  16.126 -0.3488 -0.6518 -0.0736
 6075TIP3    H139716   3.906   6.433  16.140 -1.2694 -1.5220  1.1652
 6075TIP3    H239717   3.846   6.563  16.190 -0.1440 -0.3360 -0.4505
 6076TIP3   OH239718   0.514   3.186   1.543 -0.7097  0.3632  0.2377
 6076TIP3    H139719   0.569   3.126   1.594 -1.4004 -0.6998 -0.2078
 6076TIP3    H239720   0.505   3.263   1.598 -0.7837 -0.4293  1.3875
 6077TIP3   OH239721   5.301   6.493  16.592  0.1206  0.2700 -0.2217
 6077TIP3    H139722   5.374   6.493  16.530  0.1071 -2.5553 -0.3841
 6077TIP3    H239723   5.223   6.502  16.537  0.2448  1.8084 -0.1837
 6078TIP3   OH239724   1.568   4.222   4.847  0.0871 -0.5347 -0.7059
 6078TIP3    H139725   1.642   4.173   4.882 -0.7194 -1.4862 -0.2654
 6078TIP3    H239726   1.495   4.159   4.849 -0.4923  0.0540 -2.0874
 6079TIP3   OH239727   3.351   0.752  11.934  0.2209  0.5139  0.0552
 6079TIP3    H139728   3.274   0.808  11.938  1.3725  2.1326  2.2977
 6079TIP3    H239729   3.425   0.811  11.948  1.7011 -1.2510  0.1843
 6080TIP3   OH239730   0.316   4.793   2.422  0.1131 -0.2439  0.1348
 6080TIP3    H139731   0.395   4.800   2.476  0.2712 -0.2726 -0.0886
 6080TIP3    H239732   0.267   4.719   2.460 -0.1802  0.2549  0.7465
 6081TIP3   OH239733   6.540   4.292   6.588 -0.0299 -0.2713 -0.0525
 6081TIP3    H139734   6.483   4.354   6.541 -0.0440 -0.0115  0.2973
 6081TIP3    H239735   6.615   4.345   6.615  0.2343 -0.5453 -0.2524
 6082TIP3   OH239736   1.363   1.483  15.017  0.1280  0.0399 -0.1754
 6082TIP3    H139737   1.347   1.505  15.109 -0.7179  1.6628 -0.6744
 6082TIP3    H239738   1.282   1.508  14.972  0.6066 -0.5505 -1.3873
 6083TIP3   OH239739   3.673   0.106   5.839  0.3132  0.9860 -0.2003
 6083TIP3    H139740   3.706   0.195   5.843  1.1151  0.6840  0.1947
 6083TIP3    H239741   3.590   0.112   5.792  0.5840  1.8689 -0.5638
 6084TIP3   OH239742   4.563   0.343  16.470 -0.2419 -0.0259 -0.1222
 6084TIP3    H139743   4.608   0.268  16.508 -3.0278 -1.0450  1.4803
 6084TIP3    H239744   4.631   0.410  16.461  1.3778 -0.9769  3.2861
 6085TIP3   OH239745   0.200   3.422   2.788 -0.0181 -0.1310  0.4985
 6085TIP3    H139746   0.252   3.395   2.713 -1.7793 -0.4952 -0.6376
 6085TIP3    H239747   0.157   3.341   2.818 -2.4227  0.6224 -0.6298
 6086TIP3   OH239748   4.820   5.620  11.566 -0.2524 -0.0845 -0.4416
 6086TIP3    H139749   4.876   5.674  11.623  0.3432  0.2047 -1.2700
 6086TIP3    H239750   4.777   5.684  11.509  1.6924 -0.4892 -2.5435
 6087TIP3   OH239751   0.931   5.991   0.238 -0.5354  0.0278 -0.3527
 6087TIP3    H139752   0.949   6.040   0.318 -2.7333  3.1937 -1.6016
 6087TIP3    H239753   0.980   6.037   0.170 -2.5972  0.5354 -1.5702
 6088TIP3   OH239754   3.120   2.847  11.750 -0.0027  0.2290  0.6613
 6088TIP3    H139755   3.025   2.852  11.742  0.0217  0.0826  0.2649
 6088TIP3    H239756   3.150   2.937  11.737  0.1528 -0.1803 -2.6626
 6089TIP3   OH239757   1.091   2.760   0.447  0.0409  0.0285 -0.2741
 6089TIP3    H139758   1.157   2.706   0.491  0.1101 -0.0859 -0.5122
 6089TIP3    H239759   1.031   2.787   0.516  1.6279  2.0612  0.3917
 6090TIP3   OH239760   3.201   3.730   2.525 -0.4579  0.4261  0.2932
 6090TIP3    H139761   3.262   3.690   2.586 -1.0750 -0.3745  0.4075
 6090TIP3    H239762   3.187   3.664   2.458  0.3830  1.3739 -0.8648
 6091TIP3   OH239763   0.953   3.384   4.779  0.1742  0.1145 -0.2226
 6091TIP3    H139764   0.933   3.385   4.873  1.6299 -0.2341  0.1099
 6091TIP3    H239765   0.995   3.469   4.763  1.2320 -0.4004 -0.2429
 6092TIP3   OH239766   0.590   3.296   0.645 -0.0976 -0.4209 -0.5831
 6092TIP3    H139767   0.565   3.380   0.684 -1.3948 -0.9805 -0.1600
 6092TIP3    H239768   0.659   3.263   0.703 -1.4818 -0.8968  0.8624
 6093TIP3   OH239769   1.429   6.118   0.499 -0.4188  0.2869  0.2968
 6093TIP3    H139770   1.483   6.196   0.513  0.7045 -0.4426  0.1139
 6093TIP3    H239771   1.477   6.047   0.542 -0.5804 -0.6090 -0.9344
 6094TIP3   OH239772   2.015   4.826  11.497 -0.4102  0.5041  0.8245
 6094TIP3    H139773   2.040   4.842  11.406  0.5283 -1.5581  0.6641
 6094TIP3    H239774   2.076   4.878  11.548 -0.5575  1.2047  0.3075
 6095TIP3   OH239775   5.106   1.227   2.451 -0.3987  0.7253  0.3328
 6095TIP3    H139776   5.070   1.282   2.381 -1.6292 -0.3876  0.0578
 6095TIP3    H239777   5.040   1.160   2.466  1.7084 -1.7754 -0.5789
 6096TIP3   OH239778   0.213   6.133  16.848  1.2173 -0.4206 -0.2666
 6096TIP3    H139779   0.304   6.143  16.820  1.5876 -0.9115  0.6811
 6096TIP3    H239780   0.189   6.044  16.820  0.9801 -0.2322 -0.6561
 6097TIP3   OH239781   5.629   3.286  14.401 -0.4809  0.4836 -0.0955
 6097TIP3    H139782   5.567   3.313  14.469  1.1633  2.3248  0.7873
 6097TIP3    H239783   5.593   3.323  14.321 -0.2487  2.1055  0.5093
 6098TIP3   OH239784   2.134   6.114   3.179 -0.2415 -0.3918  0.3685
 6098TIP3    H139785   2.202   6.110   3.112 -1.5732  1.4119 -1.2347
 6098TIP3    H239786   2.076   6.040   3.158 -0.1845 -0.3510  0.0572
 6099TIP3   OH239787   4.850   4.532   3.045  0.4600 -0.0089  0.1083
 6099TIP3    H139788   4.863   4.447   3.003 -2.3807 -0.0937 -0.8537
 6099TIP3    H239789   4.790   4.514   3.118  0.0514  1.1024  0.0663
 6100TIP3   OH239790   0.360   6.539  11.087 -1.1341  0.0229 -0.3865
 6100TIP3    H139791   0.309   6.614  11.116 -1.1757  0.0538 -0.5400
 6100TIP3    H239792   0.322   6.514  11.003 -0.1021  0.8294 -1.1233
 6101TIP3   OH239793   3.662   2.931  11.166  0.2803 -0.1514  0.1019
 6101TIP3    H139794   3.710   2.884  11.098 -0.4012  0.2338 -0.6648
 6101TIP3    H239795   3.634   2.863  11.227  1.7516 -0.3872  0.5619
 6102TIP3   OH239796   6.664   1.634  10.889  0.2497 -0.0935  0.1864
 6102TIP3    H139797   6.676   1.719  10.933 -1.6800  0.4930 -0.3262
 6102TIP3    H239798   6.724   1.637  10.815 -0.4373  1.2584 -0.3621
 6103TIP3   OH239799   4.953   0.464   0.777  0.3291  0.7466 -0.1523
 6103TIP3    H139800   5.041   0.426   0.765  0.7246  0.6346  2.4285
 6103TIP3    H239801   4.967   0.558   0.773  0.7273  0.7485  0.8845
 6104TIP3   OH239802   3.314   0.379  11.618  0.0579  0.1065 -0.3658
 6104TIP3    H139803   3.237   0.323  11.630 -1.0046  0.7858 -3.2735
 6104TIP3    H239804   3.304   0.416  11.530  2.1862  2.6309  0.3182
 6105TIP3   OH239805   3.076   5.784   4.837 -0.2489  0.0213  0.0239
 6105TIP3    H139806   3.076   5.800   4.932  0.6330  3.2570 -0.4073
 6105TIP3    H239807   3.160   5.742   4.820  1.6763  3.3526  0.3073
 6106TIP3   OH239808   5.968   3.190  14.325 -0.2547  0.2790  0.2354
 6106TIP3    H139809   5.943   3.282  14.340  1.2734  0.9438 -1.0371
 6106TIP3    H239810   5.958   3.178  14.231  1.3522 -0.2866  0.1211
 6107TIP3   OH239811   5.290   6.328   5.756  0.1066 -0.8634  0.3548
 6107TIP3    H139812   5.292   6.424   5.761  0.3717 -0.6545 -2.2301
 6107TIP3    H239813   5.215   6.303   5.809  1.3401  0.5529  2.9343
 6108TIP3   OH239814   4.827   1.130   5.621 -0.3051 -0.2834  0.2389
 6108TIP3    H139815   4.784   1.116   5.537 -2.0711 -0.7115  1.1653
 6108TIP3    H239816   4.879   1.051   5.635  0.5664  0.0940 -0.7455
 6109TIP3   OH239817   2.912   5.355  12.323 -0.1334  0.5598 -0.0313
 6109TIP3    H139818   2.973   5.311  12.264 -0.0269 -1.1936  1.3145
 6109TIP3    H239819   2.964   5.426  12.363 -0.0277  1.3396 -1.5053
 6110TIP3   OH239820   3.962   3.281   4.187  0.2927 -0.0392 -0.0390
 6110TIP3    H139821   4.023   3.272   4.114  0.7666 -0.1400  0.3643
 6110TIP3    H239822   4.003   3.345   4.245 -0.4391  0.6083 -0.2216
 6111TIP3   OH239823   6.309   0.600  11.860  0.1797  0.0597  0.4764
 6111TIP3    H139824   6.245   0.670  11.856 -0.1926 -0.3211 -0.3868
 6111TIP3    H239825   6.387   0.637  11.818  0.5649  0.5426  1.5787
 6112TIP3   OH239826   1.268   1.086   1.805 -0.3911  0.2355 -0.1765
 6112TIP3    H139827   1.235   1.004   1.769  1.0204 -0.7749  0.6975
 6112TIP3    H239828   1.262   1.074   1.900  2.0745  0.0948  0.0348
 6113TIP3   OH239829   0.507   4.485   2.513 -0.3938 -0.2304 -0.0347
 6113TIP3    H139830   0.492   4.449   2.425  4.5515 -2.4351 -0.3032
 6113TIP3    H239831   0.571   4.555   2.499 -0.5657  0.3170  1.7498
 6114TIP3   OH239832   1.095   6.124   1.875  0.2701 -0.4816  0.1135
 6114TIP3    H139833   1.172   6.170   1.842  0.2625  0.2866  1.1095
 6114TIP3    H239834   1.072   6.171   1.956 -2.1813  0.3534 -0.9655
 6115TIP3   OH239835   0.093   2.073   5.037 -0.3599 -0.2314  0.1064
 6115TIP3    H139836   0.104   1.979   5.045 -3.3534 -0.6784  0.4065
 6115TIP3    H239837   0.145   2.098   4.962  0.7225 -2.0662  0.1968
 6116TIP3   OH239838   2.219   1.003   3.310 -0.1831 -0.4559 -0.1520
 6116TIP3    H139839   2.172   0.958   3.240 -0.8009 -2.4531  1.4110
 6116TIP3    H239840   2.283   0.938   3.342  0.8117  0.7620  0.4489
 6117TIP3   OH239841   0.602   3.912  16.909 -0.1529 -0.6085  0.1801
 6117TIP3    H139842   0.678   3.895  16.964 -0.6601  2.5444  2.1084
 6117TIP3    H239843   0.632   3.894  16.820  3.2254  1.2648  0.7725
 6118TIP3   OH239844   6.391   3.455  14.703 -0.3361 -0.1464  0.4498
 6118TIP3    H139845   6.475   3.501  14.707 -0.3852 -0.0911  0.8672
 6118TIP3    H239846   6.413   3.363  14.717 -0.3240 -0.1567  0.3637
 6119TIP3   OH239847   0.672   1.408   6.419 -0.2284 -0.3192  0.0443
 6119TIP3    H139848   0.679   1.318   6.452  0.6516 -1.1747 -2.2624
 6119TIP3    H239849   0.754   1.450   6.447  0.3735 -0.9372 -0.7528
 6120TIP3   OH239850   3.571   3.560  12.815 -0.0364 -0.2403  0.0574
 6120TIP3    H139851   3.596   3.472  12.843 -0.1302  0.1726  1.5023
 6120TIP3    H239852   3.624   3.619  12.869  0.2750  0.6121 -1.1214
 6121TIP3   OH239853   4.560   0.106   3.087  0.0399 -0.1174  0.2439
 6121TIP3    H139854   4.598   0.194   3.091 -1.2452  0.6201 -2.0816
 6121TIP3    H239855   4.472   0.119   3.051 -0.0397 -2.4001 -0.5388
 6122TIP3   OH239856   1.325   6.771  17.127 -0.3031 -0.0127 -0.0504
 6122TIP3    H139857   1.420   6.774  17.134 -0.3795  0.6311  0.9806
 6122TIP3    H239858   1.305   6.826  17.052  0.0994  0.5468  0.2427
 6123TIP3   OH239859   1.057   6.007  16.028 -0.1458 -0.5870 -0.5665
 6123TIP3    H139860   1.128   5.957  15.987 -0.0479 -1.5684  0.7657
 6123TIP3    H239861   0.998   6.027  15.955 -0.6362 -3.3855 -1.0483
 6124TIP3   OH239862   1.524   0.854   5.317  0.1623  0.5308 -0.7078
 6124TIP3    H139863   1.470   0.847   5.238 -0.6123  0.2192 -0.1691
 6124TIP3    H239864   1.581   0.777   5.313  0.1101  0.5017 -0.9500
 6125TIP3   OH239865   3.294   1.296   4.491 -0.1171  0.2943 -0.0249
 6125TIP3    H139866   3.244   1.373   4.517  1.1335  0.8612  0.8000
 6125TIP3    H239867   3.381   1.329   4.469  0.8492 -0.9882  1.6037
 6126TIP3   OH239868   0.247   0.713   3.618  0.3306  0.5546  0.1678
 6126TIP3    H139869   0.272   0.675   3.701 -3.2241 -0.3945  0.9784
 6126TIP3    H239870   0.243   0.807   3.634  0.0519  0.4066  0.9924
 6127TIP3   OH239871   4.406   5.356  16.066  0.1372 -0.3381  0.3659
 6127TIP3    H139872   4.488   5.393  16.034 -0.8588  0.0848 -1.9386
 6127TIP3    H239873   4.355   5.432  16.094 -0.0679 -0.4309  0.2501
 6128TIP3   OH239874   4.831   3.360  10.454 -0.5881 -0.8950  0.0582
 6128TIP3    H139875   4.760   3.296  10.457 -1.2360 -0.3968 -2.4988
 6128TIP3    H239876   4.789   3.443  10.431  0.6981 -0.4245 -0.7327
 6129TIP3   OH239877   1.138   1.149  12.967  0.1771  0.2999 -0.1007
 6129TIP3    H139878   1.043   1.149  12.980  0.1408  1.6753 -0.2284
 6129TIP3    H239879   1.175   1.146  13.055  0.0026  1.0222 -0.0006
 6130TIP3   OH239880   5.656   0.420   5.768 -0.5897  0.1107 -0.5268
 6130TIP3    H139881   5.677   0.476   5.842  2.5129 -1.7387  0.1881
 6130TIP3    H239882   5.605   0.348   5.806 -0.5228  0.0620 -0.5287
 6131TIP3   OH239883   4.249   0.693  14.592 -0.3810  0.0446  0.3166
 6131TIP3    H139884   4.242   0.784  14.623 -0.7469  0.7670 -1.7236
 6131TIP3    H239885   4.231   0.640  14.669 -5.7104  1.6896  0.6484
 6132TIP3   OH239886   3.924   0.634  13.595  0.1873 -0.6091  0.0042
 6132TIP3    H139887   3.992   0.659  13.532  0.3664  0.0269  0.4440
 6132TIP3    H239888   3.960   0.556  13.639  0.9169  0.0686  0.6543
 6133TIP3   OH239889   6.533   2.427   6.284  0.1100 -0.0080  0.5914
 6133TIP3    H139890   6.520   2.366   6.356  2.9080 -0.1779  1.0574
 6133TIP3    H239891   6.588   2.497   6.321  0.1886  0.7922 -0.9300
 6134TIP3   OH239892   1.918   4.966   6.272 -0.0928  0.3773  0.4436
 6134TIP3    H139893   1.837   4.926   6.242 -0.9140  0.0720  2.9062
 6134TIP3    H239894   1.987   4.919   6.224 -1.2962  0.2231 -1.2070
 6135TIP3   OH239895   3.862   6.494   2.272  0.1293  0.1091 -0.4486
 6135TIP3    H139896   3.861   6.484   2.367 -0.6897 -0.3451 -0.4923
 6135TIP3    H239897   3.900   6.412   2.239  1.9680  0.9189 -0.4699
 6136TIP3   OH239898   4.406   1.129   3.671  0.0108  0.1709  0.1041
 6136TIP3    H139899   4.385   1.221   3.654 -1.2896 -0.3147 -1.1208
 6136TIP3    H239900   4.479   1.110   3.612 -0.1754  0.2491 -0.1558
 6137TIP3   OH239901   6.468   4.096   2.891  0.3601 -0.7345 -0.2730
 6137TIP3    H139902   6.490   4.097   2.798  0.3027  1.2293 -0.3058
 6137TIP3    H239903   6.518   4.169   2.928 -0.2161 -1.0055  1.0880
 6138TIP3   OH239904   4.201   2.484  15.089  0.5499 -0.1153  0.7146
 6138TIP3    H139905   4.206   2.573  15.125  0.2442 -0.2188  1.0157
 6138TIP3    H239906   4.200   2.427  15.166  1.1020 -0.4011  0.5191
 6139TIP3   OH239907   4.642   0.907  11.721  0.3522 -0.0114  0.3302
 6139TIP3    H139908   4.615   0.950  11.803 -0.2160  0.9226 -0.3255
 6139TIP3    H239909   4.705   0.968  11.683  0.6112 -0.4449  0.0576
 6140TIP3   OH239910   2.449   0.532   1.099  0.5558 -0.0793  0.3426
 6140TIP3    H139911   2.512   0.462   1.113  1.1895  0.6859  1.4847
 6140TIP3    H239912   2.375   0.511   1.155 -0.3081 -1.0532 -1.1067
 6141TIP3   OH239913   2.170   5.038  11.630 -0.0507 -0.7337 -0.4361
 6141TIP3    H139914   2.154   5.066  11.540 -0.2830 -1.2724 -0.5631
 6141TIP3    H239915   2.205   5.116  11.673  0.9715 -0.7295 -1.2363
 6142TIP3   OH239916   1.782   3.221  14.026  0.3575 -0.2314 -0.0653
 6142TIP3    H139917   1.700   3.248  13.986  1.7021  1.9694 -1.5678
 6142TIP3    H239918   1.814   3.150  13.970  0.5803  0.5131 -0.9028
 6143TIP3   OH239919   1.443   5.606  12.326 -0.4972 -0.5366  0.5644
 6143TIP3    H139920   1.466   5.554  12.403  1.4600 -0.3932  0.1438
 6143TIP3    H239921   1.412   5.689  12.361  0.2673 -0.5129  1.2071
 6144TIP3   OH239922   3.281   5.543   1.248 -0.7532  0.9007 -0.4431
 6144TIP3    H139923   3.191   5.575   1.261 -0.4413  1.4761  0.3592
 6144TIP3    H239924   3.336   5.619   1.267 -0.1066  0.7462 -1.5809
 6145TIP3   OH239925   3.640   2.988  10.518 -0.9339  0.7706 -0.7352
 6145TIP3    H139926   3.596   2.933  10.583 -0.2918 -1.0630 -1.8024
 6145TIP3    H239927   3.575   3.056  10.497 -1.7227  0.4844  0.6451
 6146TIP3   OH239928   1.201   4.737   5.360  0.4009 -0.2164  0.3873
 6146TIP3    H139929   1.268   4.707   5.299 -0.1946 -2.7708  0.8586
 6146TIP3    H239930   1.235   4.714   5.447 -0.5148 -0.4378  0.7033
 6147TIP3   OH239931   5.071   3.484   2.108 -0.2764  0.0008  0.0989
 6147TIP3    H139932   5.060   3.578   2.125 -1.3742 -0.3998  1.7710
 6147TIP3    H239933   4.993   3.459   2.059 -0.1873 -0.1348  0.0252
 6148TIP3   OH239934   4.316   1.911   4.604  0.1112 -0.1837  0.1286
 6148TIP3    H139935   4.231   1.941   4.638 -0.5108  0.8275 -2.1307
 6148TIP3    H239936   4.365   1.992   4.588  0.7239 -0.6680 -0.4812
 6149TIP3   OH239937   1.168   1.674  15.705 -0.9219 -1.0252  0.2582
 6149TIP3    H139938   1.129   1.697  15.790  0.7632 -1.2493  1.1426
 6149TIP3    H239939   1.211   1.590  15.721  0.3631 -0.5332 -0.4932
 6150TIP3   OH239940   2.038   0.958  11.499  0.0764 -0.3181  0.4013
 6150TIP3    H139941   2.129   0.929  11.511 -0.0655 -1.5947 -1.1319
 6150TIP3    H239942   2.046   1.049  11.469  0.6608  0.5818  3.0126
 6151TIP3   OH239943   0.066   1.357   1.346  0.0470  0.7087 -0.2820
 6151TIP3    H139944   0.072   1.267   1.378  4.2665  1.1441  0.7534
 6151TIP3    H239945   0.031   1.348   1.257 -1.9637 -1.6084  0.6275
 6152TIP3   OH239946   1.090   2.732   3.971  0.4334 -0.0592  0.1167
 6152TIP3    H139947   1.099   2.826   3.989  0.1178  0.0633 -0.3311
 6152TIP3    H239948   1.075   2.693   4.056  0.6309  0.2939  0.3167
 6153TIP3   OH239949   4.544   5.911  16.953  0.3865  0.5011  0.5145
 6153TIP3    H139950   4.532   6.001  16.982 -1.5414  0.0427  1.3106
 6153TIP3    H239951   4.525   5.858  17.030 -1.0258 -0.6424 -0.5462
 6154TIP3   OH239952   6.596   1.413  15.921 -0.2967  0.2708  0.0383
 6154TIP3    H139953   6.501   1.397  15.917 -0.0097 -1.2556 -1.7919
 6154TIP3    H239954   6.627   1.354  15.989 -0.3676 -0.9825 -0.9904
 6155TIP3   OH239955   6.083   2.795  13.268 -0.0304 -0.1811 -0.0849
 6155TIP3    H139956   6.170   2.768  13.294 -0.7810 -0.7188  2.0541
 6155TIP3    H239957   6.054   2.854  13.337 -0.0313  3.0081 -2.5640
 6156TIP3   OH239958   0.615   2.265   3.901  0.1932 -0.4016  0.8546
 6156TIP3    H139959   0.526   2.267   3.864  0.1926 -0.5578  0.8488
 6156TIP3    H239960   0.667   2.317   3.840  0.3059 -1.1100  0.3364
 6157TIP3   OH239961   1.027   0.593   1.097  0.0233 -0.0154  0.4589
 6157TIP3    H139962   1.063   0.527   1.038  1.1614 -0.2715  1.3907
 6157TIP3    H239963   0.981   0.654   1.040  1.5366  0.0512 -0.7589
 6158TIP3   OH239964   5.511   5.979   1.506 -0.4319 -0.7366 -0.0236
 6158TIP3    H139965   5.557   5.897   1.485  0.6346 -0.2878  0.4575
 6158TIP3    H239966   5.576   6.031   1.552 -1.0738  0.4152 -0.3772
 6159TIP3   OH239967   6.022   6.560   5.483 -0.8410 -0.2405  0.7231
 6159TIP3    H139968   5.989   6.634   5.533  2.1212  0.5551  1.7057
 6159TIP3    H239969   6.082   6.515   5.543  1.5227 -0.2808 -1.4621
 6160TIP3   OH239970   0.668   2.552   1.235  0.4581  0.5566  0.0941
 6160TIP3    H139971   0.621   2.473   1.262  0.0211  1.2488  1.4319
 6160TIP3    H239972   0.612   2.625   1.264  2.3432  1.4112  1.8771
 6161TIP3   OH239973   0.299   0.944  15.906  0.3962  1.0484 -0.0395
 6161TIP3    H139974   0.336   1.026  15.876  1.3150  0.3294 -0.9201
 6161TIP3    H239975   0.328   0.879  15.842  1.3883 -0.3259  1.7302
 6162TIP3   OH239976   0.298   6.138   5.414 -0.3101  0.4009  0.1734
 6162TIP3    H139977   0.287   6.222   5.370  0.7002 -0.4335 -1.7976
 6162TIP3    H239978   0.338   6.161   5.498  1.2369  1.8336 -0.8728
 6163TIP3   OH239979   0.584   6.566   0.752  0.6371 -0.3273 -0.0484
 6163TIP3    H139980   0.617   6.506   0.819 -1.2873  0.0754  1.3662
 6163TIP3    H239981   0.492   6.541   0.742 -0.0606  1.9929  0.1648
 6164TIP3   OH239982   0.300   2.727  16.028 -0.1660  0.2715  0.5371
 6164TIP3    H139983   0.240   2.789  16.071 -0.5960  1.3333 -1.4723
 6164TIP3    H239984   0.363   2.783  15.982  3.0094 -0.7611  3.1927
 6165TIP3   OH239985   4.086   2.805  13.477  0.1144  0.2195  0.5096
 6165TIP3    H139986   4.067   2.787  13.385 -0.6331  1.3181  0.4300
 6165TIP3    H239987   4.181   2.802  13.483  0.2576  1.7259 -0.6656
 6166TIP3   OH239988   3.547   3.356   4.329 -0.0885 -0.4913  0.0318
 6166TIP3    H139989   3.529   3.284   4.390 -0.6513 -0.4128 -0.0348
 6166TIP3    H239990   3.615   3.323   4.272  0.5724 -0.5085  0.8108
 6167TIP3   OH239991   5.780   3.900  11.675 -0.0601 -0.1995  0.3668
 6167TIP3    H139992   5.873   3.879  11.676  0.1143  0.3732 -0.9765
 6167TIP3    H239993   5.747   3.870  11.760  1.1545 -1.2414  0.5029
 6168TIP3   OH239994   0.883   4.095   2.600  0.2407 -0.8864  0.0520
 6168TIP3    H139995   0.946   4.158   2.564  0.9650 -2.0536 -0.7744
 6168TIP3    H239996   0.849   4.049   2.523 -2.0247  0.0388  0.4172
 6169TIP3   OH239997   4.143   5.983  13.672 -0.1092  0.5769 -0.1896
 6169TIP3    H139998   4.207   6.019  13.611  0.6402 -0.6322 -0.1556
 6169TIP3    H239999   4.059   5.991  13.627  0.2020  1.2662 -0.6540
 6170TIP3   OH240000   4.731   3.564  11.632  0.7152 -0.0145  0.8447
 6170TIP3    H140001   4.709   3.473  11.614  1.1613 -0.1288  0.8603
 6170TIP3    H240002   4.789   3.560  11.708 -0.2441  0.3725  1.6191
 6171TIP3   OH240003   6.291   6.777   4.947 -0.4251 -0.6776 -0.1866
 6171TIP3    H140004   6.266   6.759   4.856  0.4113  1.5452 -0.9194
 6171TIP3    H240005   6.385   6.797   4.942 -0.2302 -1.1546  1.2842
 6172TIP3   OH240006   4.411   0.495  15.070 -0.2808  0.0803 -0.6696
 6172TIP3    H140007   4.467   0.464  14.998  1.5957  1.3944  0.1426
 6172TIP3    H240008   4.455   0.573  15.103  0.5106 -1.8665  3.6413
 6173TIP3   OH240009   1.777   0.586   0.749  0.0051  0.1875  0.0351
 6173TIP3    H140010   1.743   0.508   0.705 -1.4250 -0.5855  2.3316
 6173TIP3    H240011   1.699   0.639   0.766  0.5842  0.7579  1.0134
 6174TIP3   OH240012   3.752   0.829  15.483  0.1965 -0.1410 -0.1673
 6174TIP3    H140013   3.672   0.857  15.526 -0.5718 -0.0227 -1.6237
 6174TIP3    H240014   3.770   0.742  15.519 -0.8745 -0.3874 -0.1961
 6175TIP3   OH240015   3.811   4.881  15.965 -0.2260  0.5044  0.2668
 6175TIP3    H140016   3.744   4.837  15.912  0.2018  1.4579 -1.1160
 6175TIP3    H240017   3.829   4.819  16.036 -2.6283  0.2602  0.7597
 6176TIP3   OH240018   4.580   3.781   6.063 -0.0341  0.0401 -0.1491
 6176TIP3    H140019   4.489   3.800   6.039 -0.8363 -0.8130  1.9830
 6176TIP3    H240020   4.581   3.784   6.159  1.8850 -1.2372 -0.0727
 6177TIP3   OH240021   3.820   2.320   5.174  0.2278  0.5908 -0.9708
 6177TIP3    H140022   3.800   2.348   5.084  0.9446  1.5244 -0.8642
 6177TIP3    H240023   3.818   2.401   5.225  1.5682  0.3478 -0.4848
 6178TIP3   OH240024   5.886   3.154   0.338  0.0991 -0.0892 -0.0192
 6178TIP3    H140025   5.834   3.090   0.289 -0.7575 -1.4257  2.4866
 6178TIP3    H240026   5.879   3.234   0.286 -0.6786 -1.4063 -2.0946
 6179TIP3   OH240027   1.139   2.564  10.717  0.6495 -0.5323 -0.2021
 6179TIP3    H140028   1.157   2.472  10.735 -1.2109 -0.9194 -0.1977
 6179TIP3    H240029   1.072   2.564  10.649  0.1454  0.8095  0.2519
 6180TIP3   OH240030   6.004   0.590   1.057  0.9011 -0.1494  0.0024
 6180TIP3    H140031   6.025   0.512   1.107  0.2752 -0.6140 -0.4468
 6180TIP3    H240032   6.089   0.623   1.027  1.1820 -0.5418  0.3613
 6181TIP3   OH240033   2.629   2.996  15.249 -0.0999  0.7960  0.4145
 6181TIP3    H140034   2.620   2.959  15.337 -1.2941 -1.1471 -0.4535
 6181TIP3    H240035   2.723   3.013  15.240  0.4162 -1.2579  1.2430
 6182TIP3   OH240036   2.238   3.017   5.229 -0.1026 -0.1934 -0.3838
 6182TIP3    H140037   2.182   2.941   5.245 -0.5905  0.6238  2.3736
 6182TIP3    H240038   2.179   3.092   5.238  1.0273  0.6105  0.7283
 6183TIP3   OH240039   0.887   4.866  13.384  0.5506 -0.5571  0.0324
 6183TIP3    H140040   0.884   4.904  13.296 -0.7313 -0.9301 -0.1145
 6183TIP3    H240041   0.951   4.918  13.431  1.5344 -0.5772 -1.2269
 6184TIP3   OH240042   6.474   2.821  15.796  0.3238  0.5667  0.1572
 6184TIP3    H140043   6.464   2.802  15.889 -0.6360 -1.8840 -0.3565
 6184TIP3    H240044   6.454   2.738  15.753  0.0838  1.7985 -2.2777
 6185TIP3   OH240045   3.045   4.800   1.209  0.0399 -0.4353 -0.0875
 6185TIP3    H140046   3.106   4.873   1.196  1.1840 -1.5048 -0.8978
 6185TIP3    H240047   2.962   4.830   1.172  0.4789  0.4634 -0.3531
 6186TIP3   OH240048   0.565   4.208   2.339 -0.0458  0.0430 -0.4762
 6186TIP3    H140049   0.656   4.236   2.342 -0.7222  2.4102  0.0594
 6186TIP3    H240050   0.520   4.279   2.293 -1.6662 -0.9256 -0.4499
 6187TIP3   OH240051   4.748   1.402  12.005 -0.8175 -0.0674  0.2773
 6187TIP3    H140052   4.818   1.391  12.068  0.4650  0.8914 -0.9113
 6187TIP3    H240053   4.690   1.328  12.019  0.8320 -1.3038  0.7939
 6188TIP3   OH240054   0.465   6.193   4.227 -0.3212  0.5372 -0.3467
 6188TIP3    H140055   0.392   6.174   4.168  0.2771  0.1635 -0.9963
 6188TIP3    H240056   0.504   6.107   4.246  0.3541  0.7825 -0.5666
 6189TIP3   OH240057   1.155   1.986   4.314 -0.3198 -0.3513  0.4120
 6189TIP3    H140058   1.112   2.070   4.302  1.7610  0.7189 -0.0807
 6189TIP3    H240059   1.091   1.921   4.286 -1.3005  1.1851 -1.0625
 6190TIP3   OH240060   3.923   2.498  13.777  0.1232 -0.1211 -0.0926
 6190TIP3    H140061   3.945   2.441  13.850 -0.7698  0.5708  0.7452
 6190TIP3    H240062   3.828   2.490  13.768  0.0910  0.5986 -0.4928
 6191TIP3   OH240063   6.382   5.990   1.914 -0.5227  0.7408  0.5516
 6191TIP3    H140064   6.413   6.072   1.952  1.0170 -0.3263  1.7210
 6191TIP3    H240065   6.298   5.974   1.956 -0.3481  1.2146  1.0914
 6192TIP3   OH240066   1.951   2.850   1.716  0.1885  0.2485 -0.4521
 6192TIP3    H140067   1.884   2.843   1.648  0.1997  1.4703 -0.6081
 6192TIP3    H240068   2.032   2.823   1.673  0.1487  0.7567 -0.8669
 6193TIP3   OH240069   1.744   6.320  16.572 -0.1925  0.7204  0.3589
 6193TIP3    H140070   1.663   6.370  16.566  0.4795  1.9548  1.0069
 6193TIP3    H240071   1.723   6.247  16.630 -0.8014  1.1261  0.6565
 6194TIP3   OH240072   5.330   2.960  15.627 -0.6367 -0.1583  0.0178
 6194TIP3    H140073   5.279   2.890  15.585  0.7969 -1.3915  0.2696
 6194TIP3    H240074   5.263   3.019  15.663 -1.8912 -0.6325 -1.3992
 6195TIP3   OH240075   2.626   4.873   2.087 -0.5055  0.0426  0.3405
 6195TIP3    H140076   2.595   4.783   2.086 -1.8857  0.4464  1.8627
 6195TIP3    H240077   2.690   4.876   2.157  0.2241  0.0549 -0.3182
 6196TIP3   OH240078   2.161   1.626   3.149  0.3769 -0.4434 -0.4117
 6196TIP3    H140079   2.081   1.576   3.167  0.0431  0.1580 -0.2203
 6196TIP3    H240080   2.151   1.707   3.198  1.6295 -0.8429  0.5312
 6197TIP3   OH240081   3.931   2.776  11.082  0.3316  0.0599  0.0935
 6197TIP3    H140082   3.965   2.765  11.171  0.2457  1.1680  0.2785
 6197TIP3    H240083   3.909   2.687  11.054  0.1815 -0.2929  1.2513
 6198TIP3   OH240084   2.670   6.763  13.733  0.2995 -0.3267 -0.3932
 6198TIP3    H140085   2.737   6.819  13.774 -0.0556 -0.2140  0.0341
 6198TIP3    H240086   2.714   6.679  13.722  0.7096 -0.0840 -0.6714
 6199TIP3   OH240087   2.128   1.975  17.119 -0.3308  0.8053 -0.4706
 6199TIP3    H140088   2.144   1.892  17.163 -1.5614  0.3966 -0.7366
 6199TIP3    H240089   2.182   1.972  17.040 -1.1176 -0.1960 -0.9890
 6200TIP3   OH240090   3.243   1.630   2.642  0.5070 -0.4429 -0.0444
 6200TIP3    H140091   3.212   1.718   2.662 -1.7050 -1.5678  1.8883
 6200TIP3    H240092   3.174   1.593   2.587  0.5505 -1.5346  0.6203
 6201TIP3   OH240093   0.369   1.772   1.027  0.0012 -0.0224  0.2979
 6201TIP3    H140094   0.274   1.783   1.022  0.0851  1.4232  1.3275
 6201TIP3    H240095   0.403   1.861   1.027  1.2734 -0.4885  1.4371
 6202TIP3   OH240096   5.182   0.815   1.121 -0.4201 -0.3254 -0.3966
 6202TIP3    H140097   5.116   0.882   1.105  0.3699  0.2347 -1.5341
 6202TIP3    H240098   5.206   0.784   1.033 -1.8067 -3.2044  0.1075
 6203TIP3   OH240099   4.595   4.646   0.146  0.3165 -0.2690 -0.6215
 6203TIP3    H140100   4.621   4.554   0.147 -2.0179 -0.9848  0.6153
 6203TIP3    H240101   4.518   4.648   0.088  1.0571  1.1546 -1.6040
 6204TIP3   OH240102   1.441   6.353   4.667  0.1838 -0.0103  0.3182
 6204TIP3    H140103   1.535   6.359   4.680  0.0896 -2.7611  3.7721
 6204TIP3    H240104   1.404   6.355   4.756 -3.0291  0.5983 -0.8700
 6205TIP3   OH240105   2.032   1.823  14.687  0.6009  0.1862 -0.1219
 6205TIP3    H140106   2.079   1.902  14.714 -1.0291  1.8690 -1.8163
 6205TIP3    H240107   1.951   1.825  14.738  0.4915 -0.3341 -0.2729
 6206TIP3   OH240108   4.377   0.210   2.043 -0.2378  0.6178  0.2913
 6206TIP3    H140109   4.409   0.293   2.008 -0.0290  0.8375  0.9867
 6206TIP3    H240110   4.455   0.155   2.050 -0.3772  0.3607 -0.1744
 6207TIP3   OH240111   0.737   4.019  10.917  0.2431  0.1355 -0.0863
 6207TIP3    H140112   0.651   4.060  10.926 -0.7387 -1.3472 -1.9900
 6207TIP3    H240113   0.787   4.081  10.865  0.2024  0.8049  0.6494
 6208TIP3   OH240114   5.107   0.640  16.876 -0.1512 -0.7178  0.2799
 6208TIP3    H140115   5.055   0.717  16.854  1.5634  0.8527  1.3991
 6208TIP3    H240116   5.088   0.624  16.969  0.4429 -0.8789  0.3780
 6209TIP3   OH240117   4.548   1.319  13.828 -0.3702 -0.2878  0.6791
 6209TIP3    H140118   4.460   1.353  13.839  0.0499  0.7124  1.1237
 6209TIP3    H240119   4.576   1.349  13.742  0.3826  1.4452  1.4929
 6210TIP3   OH240120   4.838   2.741  11.078 -0.1124 -0.0486  0.3691
 6210TIP3    H140121   4.848   2.781  10.992  2.9598  0.0099  0.6359
 6210TIP3    H240122   4.754   2.774  11.110 -0.6343  1.1265 -1.9691
 6211TIP3   OH240123   0.862   0.280  11.703 -0.0755 -0.3737 -0.5870
 6211TIP3    H140124   0.917   0.210  11.737 -1.3652 -1.8793 -1.4637
 6211TIP3    H240125   0.787   0.235  11.663 -0.4557  1.4456 -2.0975
 6212TIP3   OH240126   5.507   0.030  12.043  0.0028 -0.0961 -0.1144
 6212TIP3    H140127   5.590   0.020  12.089 -0.6986 -1.4986  0.9185
 6212TIP3    H240128   5.478   0.118  12.064  0.5693 -0.0821  0.6406
 6213TIP3   OH240129   1.413   5.013  13.830 -0.1887  0.4466 -0.7981
 6213TIP3    H140130   1.340   5.041  13.885  0.0225  1.0461 -0.8180
 6213TIP3    H240131   1.420   4.918  13.845  1.3326  0.8837  2.0275
 6214TIP3   OH240132   1.926   5.240  10.886  0.6920  0.0091  0.1844
 6214TIP3    H140133   1.955   5.176  10.950 -0.1858  0.5417  1.1462
 6214TIP3    H240134   1.834   5.257  10.908  0.3031  0.0749 -1.3268
 6215TIP3   OH240135   4.647   0.766  16.446  0.1998  0.7381  0.4149
 6215TIP3    H140136   4.706   0.691  16.434  0.0065  0.0086  3.2656
 6215TIP3    H240137   4.648   0.811  16.362  2.7220 -0.7485 -0.4571
 6216TIP3   OH240138   3.767   2.717  14.622 -0.4148 -0.0938  0.2266
 6216TIP3    H140139   3.696   2.716  14.558 -1.3617 -0.8184  1.2443
 6216TIP3    H240140   3.750   2.640  14.677  0.5120  0.3596  1.1767
 6217TIP3   OH240141   6.332   3.320   0.602  0.3509 -0.3986  0.5187
 6217TIP3    H140142   6.300   3.280   0.683  0.4005  0.7767  1.1443
 6217TIP3    H240143   6.353   3.410   0.627  1.0548 -0.2266 -0.6417
 6218TIP3   OH240144   4.065   1.626   0.037  0.2802  0.1287 -0.7668
 6218TIP3    H140145   4.072   1.547   0.091  2.9091  1.1705  0.5635
 6218TIP3    H240146   4.154   1.644   0.008 -0.4330  1.9916 -2.0015
 6219TIP3   OH240147   0.641   2.920   0.675 -0.5845  0.4637 -0.8156
 6219TIP3    H140148   0.575   2.967   0.727 -0.0102 -0.2708  0.6521
 6219TIP3    H240149   0.620   2.828   0.686 -0.0211  0.2693 -1.3137
 6220TIP3   OH240150   4.872   4.828   4.167 -0.0906 -0.0949  0.9314
 6220TIP3    H140151   4.955   4.781   4.172  0.3595  0.7628  2.3896
 6220TIP3    H240152   4.809   4.771   4.211  0.5956  0.8574  3.2998
 6221TIP3   OH240153   1.534   1.235   1.366 -0.0121 -0.2486  0.4716
 6221TIP3    H140154   1.492   1.183   1.297  0.5260 -1.7944  1.2629
 6221TIP3    H240155   1.551   1.173   1.436  1.4421  0.8353  1.1318
 6222TIP3   OH240156   5.400   0.597   2.866 -0.2374  0.4490  0.0607
 6222TIP3    H140157   5.315   0.559   2.844 -0.0120  1.6563 -3.5481
 6222TIP3    H240158   5.382   0.655   2.940 -1.6337 -2.3385  2.0513
 6223TIP3   OH240159   6.675   0.476  14.123 -0.8304  0.1667 -0.1731
 6223TIP3    H140160   6.619   0.553  14.133 -0.1221  0.7201 -0.4013
 6223TIP3    H240161   6.652   0.441  14.037 -1.1636  0.1116 -0.0633
 6224TIP3   OH240162   1.116   3.371  10.783 -0.2874 -0.0822 -0.4091
 6224TIP3    H140163   1.145   3.321  10.707 -0.9666 -0.5809 -0.3470
 6224TIP3    H240164   1.053   3.435  10.748 -0.6276 -0.3359 -0.2627
 6225TIP3   OH240165   2.950   4.030  16.014  0.2286 -0.7619 -0.3783
 6225TIP3    H140166   2.868   4.051  15.968  0.7536 -0.5396 -1.2377
 6225TIP3    H240167   2.957   3.935  16.007  0.6640 -0.6643 -1.4032
 6226TIP3   OH240168   4.793   4.512   1.649  0.0025 -0.5772  0.1639
 6226TIP3    H140169   4.759   4.430   1.685 -0.2165 -0.9172 -0.7944
 6226TIP3    H240170   4.858   4.541   1.714  0.3122 -1.6696  0.3706
 6227TIP3   OH240171   0.106   6.589   0.845 -0.4379  0.5349  0.2693
 6227TIP3    H140172   0.058   6.532   0.904 -0.5841 -0.6303 -0.9207
 6227TIP3    H240173   0.100   6.676   0.885 -1.5252 -0.0053  1.3414
 6228TIP3   OH240174   0.407   1.749   1.839  0.5905  0.3523 -0.2771
 6228TIP3    H140175   0.363   1.704   1.766  0.6686  1.0812 -0.7807
 6228TIP3    H240176   0.341   1.809   1.874 -0.3779 -1.8722  2.0350
 6229TIP3   OH240177   0.655   2.828  16.445 -0.0024  0.2853 -0.3633
 6229TIP3    H140178   0.602   2.885  16.501  1.4762  0.4120  0.9728
 6229TIP3    H240179   0.605   2.822  16.363 -0.8473  2.4262 -0.0836
 6230TIP3   OH240180   2.347   4.692  16.353  0.6698 -0.2890  0.2221
 6230TIP3    H140181   2.417   4.743  16.393  1.5273  0.1949 -1.7524
 6230TIP3    H240182   2.341   4.725  16.263 -1.2646 -1.1712 -0.0403
 6231TIP3   OH240183   2.105   3.178   3.726 -0.3968 -0.4557 -0.1378
 6231TIP3    H140184   2.183   3.206   3.678 -1.1582 -1.7618 -2.2792
 6231TIP3    H240185   2.125   3.088   3.753 -0.9550 -0.6257 -0.2712
 6232TIP3   OH240186   3.317   2.547   4.659 -0.4143  0.6004 -0.1254
 6232TIP3    H140187   3.329   2.642   4.651  0.1201  0.4595 -1.0922
 6232TIP3    H240188   3.225   2.533   4.637 -0.2470  0.7996 -1.0173
 6233TIP3   OH240189   3.338   2.799   5.007 -0.0319 -0.4028 -0.2129
 6233TIP3    H140190   3.404   2.864   5.031 -0.1332  0.0724 -1.1873
 6233TIP3    H240191   3.316   2.819   4.916 -0.2129 -1.6903 -0.4687
 6234TIP3   OH240192   6.755   6.345  13.983 -0.4333 -0.0331  0.8672
 6234TIP3    H140193   6.842   6.306  13.987  0.1912  1.4349  3.0442
 6234TIP3    H240194   6.727   6.351  14.075 -2.7746 -0.2807  0.2459
 6235TIP3   OH240195   5.027   6.695  14.379 -1.0624 -0.7919  0.4611
 6235TIP3    H140196   4.932   6.694  14.373 -1.0468  0.4955 -0.8212
 6235TIP3    H240197   5.055   6.610  14.344 -1.7296 -0.9396  0.2815
 6236TIP3   OH240198   6.505   3.897  13.889 -0.2144  0.3425 -0.0338
 6236TIP3    H140199   6.557   3.843  13.829  1.9504 -1.1548  2.9081
 6236TIP3    H240200   6.532   3.987  13.871 -0.1022  0.0012 -1.6833
 6237TIP3   OH240201   2.370   2.932   6.517 -0.3949  0.3625  0.0671
 6237TIP3    H140202   2.283   2.967   6.498 -0.2173  0.0831 -1.3454
 6237TIP3    H240203   2.401   2.895   6.434  1.0620  0.4215  0.5426
 6238TIP3   OH240204   4.485   6.584  14.124  0.3177  0.1928  0.1866
 6238TIP3    H140205   4.462   6.624  14.208  0.4742  1.0774 -0.1788
 6238TIP3    H240206   4.402   6.559  14.085  0.2653 -0.5391  0.7513
 6239TIP3   OH240207   3.041   0.693   4.474 -0.3631  0.4636  0.5042
 6239TIP3    H140208   3.010   0.604   4.489 -1.3557  0.7188 -0.0005
 6239TIP3    H240209   3.026   0.709   4.381  2.0529  0.3199  0.0186
 6240TIP3   OH240210   5.761   3.200  16.911  0.2524 -0.0611  0.0334
 6240TIP3    H140211   5.698   3.184  16.841 -0.1393  2.0486 -0.1536
 6240TIP3    H240212   5.709   3.196  16.991  0.0743  0.6667 -0.0432
 6241TIP3   OH240213   4.937   2.939  14.181 -0.0654  0.1661  0.3343
 6241TIP3    H140214   4.922   3.013  14.240 -1.9639  0.6676 -0.6753
 6241TIP3    H240215   4.978   2.978  14.104  0.3832 -0.1072  0.4330
 6242TIP3   OH240216   2.506   3.987  15.024 -0.6164 -0.1972  0.4999
 6242TIP3    H140217   2.554   3.988  15.107  0.3024 -0.8981 -0.0019
 6242TIP3    H240218   2.493   4.079  15.003  0.7414  0.0175  0.5355
 6243TIP3   OH240219   6.492   0.586   3.585  0.2669  0.1175  0.0204
 6243TIP3    H140220   6.551   0.574   3.511 -0.2475 -1.2807 -0.1875
 6243TIP3    H240221   6.506   0.509   3.640 -0.6182  0.2738  0.4778
 6244TIP3   OH240222   6.823   4.935   4.180 -0.4650  0.2837 -0.1927
 6244TIP3    H140223   6.825   4.952   4.086  0.8725  1.6010  0.0284
 6244TIP3    H240224   6.845   4.842   4.187  0.9819  0.5036 -1.1539
 6245TIP3   OH240225   1.631   3.798  10.147  0.2141  0.0363  0.1392
 6245TIP3    H140226   1.582   3.717  10.160  0.7216 -0.6951 -2.0570
 6245TIP3    H240227   1.577   3.866  10.188 -0.4621 -1.3012  1.6016
 6246TIP3   OH240228   4.308   5.917   4.757 -0.1221 -0.1502  0.5646
 6246TIP3    H140229   4.389   5.943   4.802 -1.2545 -0.9059  3.2852
 6246TIP3    H240230   4.327   5.830   4.723  0.2116 -0.3843  1.3056
 6247TIP3   OH240231   6.381   4.984   4.822  0.1007 -0.2872 -0.4084
 6247TIP3    H140232   6.323   4.919   4.862  0.3748 -1.6960 -2.2068
 6247TIP3    H240233   6.405   5.042   4.895 -1.9251 -0.8559  0.7956
 6248TIP3   OH240234   6.334   5.319  15.644 -0.6712 -0.0448 -0.0216
 6248TIP3    H140235   6.424   5.294  15.667 -1.1268 -1.1455  0.6299
 6248TIP3    H240236   6.288   5.322  15.728 -1.6838 -1.3104 -0.4985
 6249TIP3   OH240237   0.299   2.927  15.386 -0.2576 -0.1947 -0.1926
 6249TIP3    H140238   0.246   2.862  15.433 -0.1433  0.0980  0.3508
 6249TIP3    H240239   0.352   2.875  15.326  0.0219 -0.6386  0.4213
 6250TIP3   OH240240   1.024   0.464  12.130  0.2382 -0.3259 -0.4751
 6250TIP3    H140241   1.078   0.385  12.137  0.1307 -0.2880  1.1539
 6250TIP3    H240242   1.040   0.511  12.212  1.1301  1.9088 -1.8200
 6251TIP3   OH240243   3.217   4.592   1.811  0.2124 -0.6757  0.3820
 6251TIP3    H140244   3.222   4.662   1.745 -3.6136  0.1302  0.6918
 6251TIP3    H240245   3.237   4.635   1.894  0.8703 -0.6999  0.2405
 6252TIP3   OH240246   0.434   5.831  17.148  0.1076 -0.1948 -0.1572
 6252TIP3    H140247   0.462   5.889  17.219 -3.0590  0.0763  1.0149
 6252TIP3    H240248   0.503   5.766  17.142  2.6520  2.2865  0.0793
 6253TIP3   OH240249   0.485   0.943   2.560 -0.0071  0.2738  0.1541
 6253TIP3    H140250   0.450   0.854   2.571 -0.2863  0.5287  1.4651
 6253TIP3    H240251   0.549   0.934   2.489 -0.9455 -0.7050 -0.6178
 6254TIP3   OH240252   1.734   5.432  11.147 -0.3741 -0.1887  0.0961
 6254TIP3    H140253   1.801   5.467  11.088  0.9579  1.7035  2.5479
 6254TIP3    H240254   1.652   5.443  11.098  0.5018  2.4501 -1.0058
 6255TIP3   OH240255   1.689   4.341   2.831  0.1250  0.3223 -0.5824
 6255TIP3    H140256   1.680   4.403   2.757 -1.1771  1.1842  0.2607
 6255TIP3    H240257   1.699   4.397   2.908  2.5156 -0.5622 -0.1501
 6256TIP3   OH240258   1.989   0.722   2.590 -0.1245 -0.4492  0.3983
 6256TIP3    H140259   2.058   0.690   2.532 -0.0450  0.7134 -0.1781
 6256TIP3    H240260   1.908   0.700   2.546 -0.0675  0.2736 -0.0767
 6257TIP3   OH240261   5.134   3.046   1.931  0.0412 -0.7746  0.2662
 6257TIP3    H140262   5.155   3.127   1.978 -3.0439  1.8026 -2.3712
 6257TIP3    H240263   5.070   3.002   1.987 -0.1020 -0.1639  0.5852
 6258TIP3   OH240264   6.799   6.250   2.460  0.0287  0.0197 -0.7724
 6258TIP3    H140265   6.811   6.155   2.463 -1.3102 -0.1482  1.0669
 6258TIP3    H240266   6.854   6.283   2.531 -1.1713  0.3677  0.0271
 6259TIP3   OH240267   1.543   1.363  15.835 -0.2445 -0.1030 -0.7942
 6259TIP3    H140268   1.622   1.416  15.827 -0.9452  1.0407 -0.4698
 6259TIP3    H240269   1.572   1.282  15.877  0.7760  0.2273 -0.8387
 6260TIP3   OH240270   1.998   5.888   1.153  0.6310  0.7232 -0.0378
 6260TIP3    H140271   2.090   5.905   1.174  1.1222 -0.7524 -0.8374
 6260TIP3    H240272   1.952   5.965   1.185  1.5537 -0.2438  4.2786
 6261TIP3   OH240273   0.685   4.224  14.534 -0.4712 -0.0893 -0.1813
 6261TIP3    H140274   0.607   4.175  14.562 -1.5470  1.4568 -0.3577
 6261TIP3    H240275   0.750   4.206  14.603 -1.9547  0.9217  1.5725
 6262TIP3   OH240276   3.666   2.777  15.175 -0.3787  0.4127 -0.4561
 6262TIP3    H140277   3.583   2.822  15.190 -1.2949 -0.8034 -1.6936
 6262TIP3    H240278   3.661   2.699  15.229 -0.7091 -0.4305 -1.6748
 6263TIP3   OH240279   5.109   0.209  15.770  0.2251  0.4715  0.0064
 6263TIP3    H140280   5.140   0.207  15.680 -2.8788  0.1884 -1.1730
 6263TIP3    H240281   5.128   0.121  15.804 -2.0033 -0.8015 -1.7503
 6264TIP3   OH240282   4.728   1.915  12.699 -0.3097 -0.6351 -0.1569
 6264TIP3    H140283   4.779   1.993  12.722 -3.6543  2.1663 -1.3765
 6264TIP3    H240284   4.714   1.870  12.783 -1.4564  2.2526  1.3539
 6265TIP3   OH240285   5.187   5.054   2.040  0.0656 -0.3670  0.1390
 6265TIP3    H140286   5.112   5.112   2.025 -1.8198 -2.5285  0.6143
 6265TIP3    H240287   5.183   5.033   2.134  0.2663 -1.7587 -0.1338
 6266TIP3   OH240288   0.781   3.108  11.543  0.1977  0.5338 -0.3736
 6266TIP3    H140289   0.833   3.078  11.468 -1.1655 -1.6655 -0.5330
 6266TIP3    H240290   0.801   3.045  11.612  1.0321  2.2319  1.0224
 6267TIP3   OH240291   6.627   4.430   3.674  0.4347  0.5590 -0.2315
 6267TIP3    H140292   6.539   4.461   3.649  0.7918  0.5872 -1.5478
 6267TIP3    H240293   6.686   4.499   3.644  0.8932  0.7497  1.0530
 6268TIP3   OH240294   3.024   5.744   5.096 -0.2917  0.3740  0.3092
 6268TIP3    H140295   2.995   5.765   5.185 -0.9220 -1.5226  0.5948
 6268TIP3    H240296   3.073   5.662   5.105  0.5972  0.7331 -0.9504
 6269TIP3   OH240297   1.023   2.476  17.154  0.3014  0.1235  0.2289
 6269TIP3    H140298   0.957   2.536  17.191 -0.2956  0.0568 -0.6913
 6269TIP3    H240299   1.027   2.404  17.216 -1.0369 -0.2133 -0.0437
 6270TIP3   OH240300   3.905   5.915   5.663  0.1948 -0.6490 -0.2355
 6270TIP3    H140301   3.827   5.918   5.719  0.0463  0.0016 -0.4610
 6270TIP3    H240302   3.927   5.822   5.657 -1.9937 -1.1306 -2.1022
 6271TIP3   OH240303   0.323   1.381   0.737 -0.0052 -0.1726  0.3552
 6271TIP3    H140304   0.368   1.386   0.821  0.8169  1.2020 -0.1292
 6271TIP3    H240305   0.268   1.303   0.744 -0.1503  0.0463  2.2416
 6272TIP3   OH240306   3.621   3.932  16.381  0.0461  0.6600  0.1040
 6272TIP3    H140307   3.681   4.005  16.393  2.3780 -0.9375 -0.9701
 6272TIP3    H240308   3.601   3.902  16.470  0.5880  1.4271  0.4862
 6273TIP3   OH240309   0.775   0.543  14.800  0.1090  0.3033 -0.4190
 6273TIP3    H140310   0.848   0.546  14.738 -1.0620  0.4941 -1.8410
 6273TIP3    H240311   0.714   0.480  14.762 -1.1187  1.1984 -0.0043
 6274TIP3   OH240312   3.275   1.454   3.231 -0.0831  0.8895 -0.2002
 6274TIP3    H140313   3.302   1.535   3.186 -0.5872  1.0587 -0.2041
 6274TIP3    H240314   3.185   1.471   3.259  0.4850  1.0920  1.6076
 6275TIP3   OH240315   1.876   2.286   4.549 -0.1601  0.0067  0.1680
 6275TIP3    H140316   1.841   2.200   4.570  0.6252 -0.1366  0.9219
 6275TIP3    H240317   1.956   2.269   4.499 -0.0628  0.2961  0.2213
 6276TIP3   OH240318   4.584   0.697   3.460 -0.2402  0.1349 -0.1988
 6276TIP3    H140319   4.579   0.769   3.397 -1.6523 -1.0153 -1.4675
 6276TIP3    H240320   4.505   0.646   3.444  0.5161 -1.4658  0.9556
 6277TIP3   OH240321   3.060   4.165  16.716 -0.0563  0.3065  0.4566
 6277TIP3    H140322   3.068   4.232  16.648  1.3635 -1.1270 -0.8725
 6277TIP3    H240323   3.138   4.177  16.771  1.4808 -1.5964 -1.1462
 6278TIP3   OH240324   2.565   0.749  13.664 -0.1948  0.3119 -0.1580
 6278TIP3    H140325   2.606   0.833  13.682  0.1142 -0.3793  3.0016
 6278TIP3    H240326   2.477   0.757  13.701 -0.2890 -0.6408 -0.1473
 6279TIP3   OH240327   4.513   1.654  17.148  0.1220  0.1797 -0.8489
 6279TIP3    H140328   4.585   1.679  17.206 -0.4264 -2.9333  1.4869
 6279TIP3    H240329   4.555   1.629  17.066  1.4810  0.2729 -0.2047
 6280TIP3   OH240330   0.837   1.573  15.490 -0.0190 -0.0154 -0.4246
 6280TIP3    H140331   0.809   1.631  15.560 -0.8346 -1.3267  0.3835
 6280TIP3    H240332   0.906   1.621  15.445 -1.7121  2.2286 -0.8004
 6281TIP3   OH240333   6.382   6.191   3.786 -0.0004 -0.1056 -0.8114
 6281TIP3    H140334   6.298   6.221   3.821  1.4871  1.8096  1.4095
 6281TIP3    H240335   6.383   6.097   3.803 -0.9228  0.1549  0.8674
 6282TIP3   OH240336   5.825   1.922   6.184  0.1649 -0.1390 -0.3741
 6282TIP3    H140337   5.897   1.980   6.157 -0.8370  0.7570 -1.2385
 6282TIP3    H240338   5.752   1.982   6.203 -0.5703 -1.0606 -0.2029
 6283TIP3   OH240339   4.884   0.606  16.643 -0.3818  0.3142  0.1622
 6283TIP3    H140340   4.953   0.615  16.577  0.4105 -0.7802  0.7970
 6283TIP3    H240341   4.896   0.682  16.700  0.1819  0.2489  0.1434
 6284TIP3   OH240342   2.353   3.814  11.070 -0.5679 -0.1790  0.8921
 6284TIP3    H140343   2.326   3.756  10.999 -0.6704 -1.0310  1.6050
 6284TIP3    H240344   2.360   3.756  11.147 -0.7681  0.7727  1.6461
 6285TIP3   OH240345   1.852   4.743  14.151 -0.1342  0.4339 -0.0915
 6285TIP3    H140346   1.770   4.701  14.123 -0.6475  0.4930  1.2348
 6285TIP3    H240347   1.845   4.748  14.246  1.5205  0.2584  0.0647
 6286TIP3   OH240348   2.657   1.127  11.932  0.0447 -0.4740 -0.7634
 6286TIP3    H140349   2.649   1.197  11.997 -0.9914 -2.3495  1.2816
 6286TIP3    H240350   2.681   1.172  11.851  1.1826  2.0291  0.8262
 6287TIP3   OH240351   6.682   1.394  16.655 -0.1716  0.5316  0.5628
 6287TIP3    H140352   6.614   1.450  16.692  0.4063  1.1156  0.7747
 6287TIP3    H240353   6.745   1.382  16.727  0.7249  1.2950 -0.0636
 6288TIP3   OH240354   6.594   1.113   3.886 -0.1312  0.2119  0.2390
 6288TIP3    H140355   6.536   1.038   3.900  0.9041 -0.3670  1.8662
 6288TIP3    H240356   6.596   1.125   3.791 -2.5314  0.0095  0.1050
 6289TIP3   OH240357   3.527   3.947  13.282  0.1843 -0.0226 -0.2355
 6289TIP3    H140358   3.526   3.858  13.316  0.0160 -0.2688 -0.8573
 6289TIP3    H240359   3.470   3.943  13.204 -0.2778  0.7517  0.0469
 6290TIP3   OH240360   0.892   2.306   3.817 -0.3035 -0.3001 -0.3081
 6290TIP3    H140361   0.913   2.237   3.754  1.1514 -1.6717  1.5419
 6290TIP3    H240362   0.955   2.293   3.888 -0.7163  2.2644  0.6461
 6291TIP3   OH240363   1.980   4.719  16.408  0.9303  0.0268 -0.0173
 6291TIP3    H140364   1.961   4.633  16.446  0.7166 -1.0953 -2.4370
 6291TIP3    H240365   1.947   4.712  16.318  1.3953  2.4809 -0.4295
 6292TIP3   OH240366   2.538   1.988  11.966  0.4899  0.7973 -0.1647
 6292TIP3    H140367   2.564   2.016  12.054 -1.1900  1.8016  0.0550
 6292TIP3    H240368   2.621   1.975  11.919  1.4468 -0.3955  1.7288
 6293TIP3   OH240369   3.625   3.228   1.520  0.2568  0.3151  0.0238
 6293TIP3    H140370   3.544   3.253   1.475  0.3136 -0.4303 -0.5134
 6293TIP3    H240371   3.694   3.249   1.457  0.4524  0.6233  0.3417
 6294TIP3   OH240372   5.827   5.698   5.524  0.4011 -0.5798  0.2541
 6294TIP3    H140373   5.852   5.780   5.481  0.3823 -0.4492  0.4916
 6294TIP3    H240374   5.748   5.670   5.477 -0.4522  0.3024  1.1186
 6295TIP3   OH240375   4.105   0.465  17.139  0.1358 -0.2612 -0.1685
 6295TIP3    H140376   4.112   0.556  17.109  2.0314 -0.9538 -2.0951
 6295TIP3    H240377   4.152   0.464  17.223 -0.7814  0.7154  0.3749
 6296TIP3   OH240378   5.020   1.534   5.622  0.3613  0.0454 -0.7732
 6296TIP3    H140379   5.049   1.453   5.664 -1.5679  0.3392  1.2975
 6296TIP3    H240380   4.953   1.506   5.560 -1.1037  0.0809  0.7306
 6297TIP3   OH240381   5.953   3.659  16.718  0.4625 -0.0077 -0.2613
 6297TIP3    H140382   6.016   3.677  16.649  0.7792 -0.5441 -0.1187
 6297TIP3    H240383   6.005   3.655  16.798  0.3613 -1.1333 -0.2368
 6298TIP3   OH240384   0.102   2.032   4.137  0.0754 -0.5379  0.2131
 6298TIP3    H140385   0.057   1.994   4.213 -0.1148 -0.4636  0.1393
 6298TIP3    H240386   0.034   2.038   4.070  0.1180 -0.1350  0.2021
 6299TIP3   OH240387   5.090   3.084  16.834 -0.0506  0.1988 -0.1570
 6299TIP3    H140388   5.049   3.143  16.897  0.1067  0.0519  0.0827
 6299TIP3    H240389   5.095   3.135  16.753  0.5520  0.6851  0.1846
 6300TIP3   OH240390   0.079   0.881   0.778  0.3958 -0.6106 -0.0615
 6300TIP3    H140391  -0.007   0.915   0.752  0.0282 -0.3825  1.3524
 6300TIP3    H240392   0.062   0.790   0.801  0.7724 -0.8914 -0.8423
 6301TIP3   OH240393   5.005   0.991   3.537 -0.4760 -0.2433 -0.2644
 6301TIP3    H140394   5.038   1.044   3.610 -1.2094 -0.6625  0.3833
 6301TIP3    H240395   4.938   0.935   3.576 -0.9336 -0.4251 -1.2813
 6302TIP3   OH240396   4.995   2.242   2.128  0.1065  0.2561 -0.0328
 6302TIP3    H140397   4.930   2.274   2.066 -0.2758  0.0873  0.2728
 6302TIP3    H240398   5.026   2.159   2.090  0.0897  0.3009 -0.1439
 6303TIP3   OH240399   0.074   0.566  17.224 -0.1461  0.4878  0.4961
 6303TIP3    H140400   0.122   0.491  17.260  0.0503 -0.5874 -1.7910
 6303TIP3    H240401   0.132   0.640  17.237  1.1969 -0.3955 -0.1709
 6304TIP3   OH240402   2.645   0.993   0.601  0.4651 -0.4174  0.3149
 6304TIP3    H140403   2.734   1.022   0.623  0.1459 -0.4332  1.6531
 6304TIP3    H240404   2.624   0.928   0.667  0.3146 -2.1521 -1.3576
 6305TIP3   OH240405   3.475   6.022   0.273 -0.2127  0.1682  0.0075
 6305TIP3    H140406   3.517   6.065   0.348 -0.4910  0.2275  0.1292
 6305TIP3    H240407   3.491   6.081   0.199  0.1827  0.0427 -0.0132
 6306TIP3   OH240408   4.030   4.511   2.807  0.4157  0.7689  0.1240
 6306TIP3    H140409   3.947   4.520   2.760  0.1322 -0.1010  0.4532
 6306TIP3    H240410   4.021   4.570   2.882 -0.2235  0.1074  0.5831
 6307TIP3   OH240411   4.603   0.556   1.090 -0.4408 -0.2976  0.0078
 6307TIP3    H140412   4.548   0.615   1.039 -0.5054 -0.8186 -0.5346
 6307TIP3    H240413   4.659   0.513   1.026  1.2563  0.8789  0.6328
 6308TIP3   OH240414   4.829   6.432  16.336 -0.1428  0.2705 -0.1139
 6308TIP3    H140415   4.851   6.518  16.373  0.9240 -1.0456  2.5739
 6308TIP3    H240416   4.842   6.442  16.242 -1.5844  3.4724 -0.1083
 6309TIP3   OH240417   5.169   3.540  14.325  0.0490  0.0187  0.2173
 6309TIP3    H140418   5.170   3.525  14.231 -1.6272 -0.3017  0.2107
 6309TIP3    H240419   5.196   3.455  14.363 -1.4473 -0.5612  0.0399
 6310TIP3   OH240420   3.629   5.565   4.070 -0.1071 -0.1514  0.5958
 6310TIP3    H140421   3.612   5.658   4.086 -1.3037 -0.0458 -1.0635
 6310TIP3    H240422   3.577   5.544   3.992  0.6381 -2.0606  0.5636
 6311TIP3   OH240423   1.051   5.155   0.158  0.4662 -0.3732  0.1553
 6311TIP3    H140424   0.989   5.228   0.150  1.7459  0.5502 -3.4045
 6311TIP3    H240425   0.996   5.077   0.165 -0.9673  0.6717  1.2624
 6312TIP3   OH240426   2.485   6.450   0.499 -0.0442 -0.2540  0.1270
 6312TIP3    H140427   2.435   6.378   0.462 -3.1815  1.1379  1.2989
 6312TIP3    H240428   2.468   6.524   0.441 -0.6354  0.6257  1.3776
 6313TIP3   OH240429   5.959   5.652   3.229  0.5890  0.0025  0.6895
 6313TIP3    H140430   5.895   5.713   3.192  0.2621 -0.3042  0.7399
 6313TIP3    H240431   6.043   5.698   3.222  0.5296 -0.0345 -0.3845
 6314TIP3   OH240432   4.186   3.406   1.147  0.2314  0.2992 -0.2227
 6314TIP3    H140433   4.131   3.449   1.082 -2.6354 -1.7694  0.6506
 6314TIP3    H240434   4.159   3.444   1.231 -1.2279 -1.8981  0.3905
 6315TIP3   OH240435   4.473   4.059   3.544  0.1837  0.5158  0.2134
 6315TIP3    H140436   4.429   3.983   3.581  2.3107 -0.5692  0.6774
 6315TIP3    H240437   4.454   4.130   3.605 -1.0185  0.1358  0.3024
 6316TIP3   OH240438   5.409   0.893  12.034  0.9314 -0.5814  0.4865
 6316TIP3    H140439   5.400   0.965  11.972  2.0185 -0.7426  0.1341
 6316TIP3    H240440   5.321   0.853  12.036 -0.2242  1.8357  2.0862
 6317TIP3   OH240441   6.216   2.431   1.416  0.3864  0.2550  0.4063
 6317TIP3    H140442   6.173   2.350   1.445  1.1374  0.2151  1.4998
 6317TIP3    H240443   6.307   2.420   1.444  0.7479  1.0099 -0.4448
 6318TIP3   OH240444   3.604   5.198   5.195  0.4850  0.1149 -0.1839
 6318TIP3    H140445   3.564   5.223   5.278 -0.6229 -0.6730 -0.4507
 6318TIP3    H240446   3.557   5.250   5.130  1.1979  0.5653 -0.3469
 6319TIP3   OH240447   0.699   0.616   5.173 -0.0925  0.3096  0.2414
 6319TIP3    H140448   0.761   0.652   5.109  1.3707  0.2340  1.5592
 6319TIP3    H240449   0.648   0.552   5.123  1.4676 -0.2550 -0.7057
 6320TIP3   OH240450   5.669   0.530   4.375 -0.2409  0.4489  0.6024
 6320TIP3    H140451   5.634   0.452   4.332  0.2422  1.1776 -1.2231
 6320TIP3    H240452   5.740   0.496   4.431 -1.6169 -0.6462  1.7573
 6321TIP3   OH240453   4.171   5.182   3.833 -0.6454  0.0716  0.3064
 6321TIP3    H140454   4.096   5.178   3.773  0.3636 -0.9169 -0.9427
 6321TIP3    H240455   4.158   5.107   3.891  0.0954 -0.9777 -0.8370
 6322TIP3   OH240456   2.511   6.304   6.105  0.3151 -0.4533  0.0622
 6322TIP3    H140457   2.504   6.226   6.050 -0.9163  0.2892 -0.8766
 6322TIP3    H240458   2.584   6.353   6.068  1.2280 -1.2326  0.7831
 6323TIP3   OH240459   4.364   4.504   2.139  0.0884 -0.8320  0.0276
 6323TIP3    H140460   4.428   4.533   2.205 -0.9529 -0.4811  0.9138
 6323TIP3    H240461   4.303   4.450   2.189 -0.9145 -0.2742 -0.5883
 6324TIP3   OH240462   1.769   4.107   2.742 -0.7408 -1.1703  0.6607
 6324TIP3    H140463   1.726   4.190   2.762 -0.2914  0.4950 -4.1072
 6324TIP3    H240464   1.862   4.124   2.754 -0.5909 -0.6507 -1.0035
 6325TIP3   OH240465   1.962   5.409  15.493  0.5239 -0.0849 -0.0001
 6325TIP3    H140466   1.891   5.469  15.512 -0.9784 -1.5338 -0.7231
 6325TIP3    H240467   1.985   5.427  15.402  1.1606  0.4457  0.2619
 6326TIP3   OH240468   3.771   5.220  16.988 -0.3790 -0.2660  0.3055
 6326TIP3    H140469   3.704   5.156  16.967  0.1567 -1.5328  2.2084
 6326TIP3    H240470   3.852   5.182  16.953 -0.0818 -0.5981  1.3167
 6327TIP3   OH240471   5.952   5.045  16.486  0.1527 -0.3557  0.1079
 6327TIP3    H140472   6.002   5.050  16.567  0.9888 -0.2201 -0.4104
 6327TIP3    H240473   6.013   5.010  16.422 -0.2665  0.2728 -0.6528
 6328TIP3   OH240474   1.955   3.704  12.849  0.8284  0.5851 -0.1582
 6328TIP3    H140475   2.037   3.660  12.823  1.9035  2.1279  0.4590
 6328TIP3    H240476   1.979   3.754  12.927 -0.9308  0.4682  0.4971
 6329TIP3   OH240477   1.485   2.985   5.505 -0.3135  0.4303  0.1637
 6329TIP3    H140478   1.521   3.015   5.588 -0.0485 -1.6657  0.8525
 6329TIP3    H240479   1.431   2.910   5.528  0.1271 -0.4785 -1.6060
 6330TIP3   OH240480   0.436   0.735  17.028  0.2969  0.5692 -0.0631
 6330TIP3    H140481   0.455   0.779  16.945 -0.0073  0.3036 -0.2778
 6330TIP3    H240482   0.341   0.724  17.028  0.4568 -1.1999 -0.6080
 6331TIP3   OH240483   4.225   0.115  12.752 -0.3067  0.3765 -0.0620
 6331TIP3    H140484   4.271   0.038  12.789 -0.9121  0.2107  0.3553
 6331TIP3    H240485   4.218   0.176  12.825 -0.9214  0.3213 -0.0684
 6332TIP3   OH240486   3.162   5.952   3.792 -0.3379  0.2163 -0.0332
 6332TIP3    H140487   3.137   6.035   3.833 -3.2008 -0.5505 -0.0048
 6332TIP3    H240488   3.135   5.960   3.701 -1.2510 -0.8777  0.1153
 6333TIP3   OH240489   1.938   3.866  16.018 -0.0349  0.5452 -1.0141
 6333TIP3    H140490   2.005   3.916  15.973  1.3943 -0.6460 -0.3060
 6333TIP3    H240491   1.983   3.788  16.050 -1.6080  0.0095  0.0694
 6334TIP3   OH240492   4.678   4.855   1.387 -0.1359  0.2425 -0.1630
 6334TIP3    H140493   4.740   4.783   1.383 -0.4269  0.0208 -0.7978
 6334TIP3    H240494   4.668   4.873   1.481 -0.1294 -0.5968  0.0085
 6335TIP3   OH240495   4.385   2.137   0.696  0.5067  0.1369 -0.1460
 6335TIP3    H140496   4.350   2.128   0.607  0.1057 -0.4670  0.0655
 6335TIP3    H240497   4.387   2.231   0.712 -1.9484  0.1817  0.1839
 6336TIP3   OH240498   3.482   6.813   4.705  0.2982  0.1309 -0.0687
 6336TIP3    H140499   3.568   6.800   4.665 -0.0379 -1.3961 -0.3516
 6336TIP3    H240500   3.471   6.739   4.765 -2.0388 -1.5155 -2.2826
 6337TIP3   OH240501   2.429   1.091   3.544  0.5445  0.1335  0.2811
 6337TIP3    H140502   2.518   1.060   3.559  0.4657  0.1971  0.9180
 6337TIP3    H240503   2.373   1.018   3.573  0.3115  1.3966  3.3912
 6338TIP3   OH240504   2.872   4.022  15.577 -0.3282  0.3848  0.4430
 6338TIP3    H140505   2.943   3.969  15.613 -1.0856 -0.2561  1.0565
 6338TIP3    H240506   2.915   4.091  15.528  0.7484  0.7392  1.8204
 6339TIP3   OH240507   3.101   3.347  15.799 -0.1219  0.1347 -0.4255
 6339TIP3    H140508   3.045   3.315  15.869 -1.0863 -0.8416 -1.5943
 6339TIP3    H240509   3.042   3.396  15.742  0.5219  0.3898 -0.8914
 6340TIP3   OH240510   1.576   2.934  12.405  0.5547  0.1664 -0.8762
 6340TIP3    H140511   1.556   2.983  12.485 -0.9343 -0.3193 -0.9204
 6340TIP3    H240512   1.672   2.934  12.400  0.6492  0.8534  0.4925
 6341TIP3   OH240513   2.986   3.306  11.417  0.2647  0.7463 -0.8666
 6341TIP3    H140514   2.911   3.363  11.400  0.8844  2.2834  1.1034
 6341TIP3    H240515   2.961   3.255  11.494  1.4199  1.7387  0.2122
 6342TIP3   OH240516   3.097   3.292   6.076  0.9173  0.6721  0.6724
 6342TIP3    H140517   3.167   3.357   6.071 -0.0820  1.7591  0.5268
 6342TIP3    H240518   3.024   3.337   6.119 -0.7146  0.5476 -1.7512
 6343TIP3   OH240519   2.578   2.201  14.941 -0.3799 -0.3069 -0.3471
 6343TIP3    H140520   2.487   2.193  14.970 -0.3595 -0.1920 -0.2506
 6343TIP3    H240521   2.573   2.242  14.855 -0.3010  2.0195  0.6877
 6344TIP3   OH240522   0.490   3.249  14.309  0.5002  0.1566 -0.6828
 6344TIP3    H140523   0.506   3.308  14.235  2.7298 -1.9990 -2.0719
 6344TIP3    H240524   0.410   3.202  14.285  0.7528  0.0473 -1.3250
 6345TIP3   OH240525   6.615   2.960  13.628 -0.5282  0.3385 -0.2463
 6345TIP3    H140526   6.551   2.958  13.699 -2.4314  1.0647 -1.8459
 6345TIP3    H240527   6.682   2.896  13.654 -1.7732 -0.2828  1.6156
 6346TIP3   OH240528   4.474   3.360   3.078  0.9905 -0.1190 -0.1571
 6346TIP3    H140529   4.399   3.336   3.023  0.8499 -0.7784  0.3064
 6346TIP3    H240530   4.519   3.429   3.029  1.7705 -1.7533 -1.8532
 6347TIP3   OH240531   1.917   4.237   3.843 -0.4333  0.5988  0.4429
 6347TIP3    H140532   1.858   4.162   3.845  0.7803 -0.4196 -0.4150
 6347TIP3    H240533   1.884   4.291   3.771  0.6772 -0.8774 -1.2640
 6348TIP3   OH240534   4.974   1.431  16.694  0.0478 -0.2309 -0.2610
 6348TIP3    H140535   4.945   1.497  16.632  0.6392 -0.1592 -0.4698
 6348TIP3    H240536   5.055   1.466  16.731 -0.3543 -0.2259  0.6304
 6349TIP3   OH240537   3.912   5.127   3.728 -0.0340 -0.0254  0.5103
 6349TIP3    H140538   3.841   5.089   3.779 -0.2108  1.6949  1.6403
 6349TIP3    H240539   3.867   5.181   3.662  0.2174 -1.1116 -0.5827
 6350TIP3   OH240540   3.473   0.417   4.110  0.0645  0.4011 -0.2604
 6350TIP3    H140541   3.556   0.437   4.154 -0.4107  0.4976  0.6149
 6350TIP3    H240542   3.406   0.438   4.175 -0.5417 -3.2350  0.4860
 6351TIP3   OH240543   6.458   2.954  16.302  0.3397  0.0807 -0.0692
 6351TIP3    H140544   6.365   2.934  16.307  0.6139 -0.9948  1.2787
 6351TIP3    H240545   6.487   2.957  16.393  1.8448 -0.6888 -0.4839
 6352TIP3   OH240546   1.234   1.828   0.159 -0.1785  0.3575  0.1028
 6352TIP3    H140547   1.208   1.740   0.187 -1.1200  0.4363 -0.4856
 6352TIP3    H240548   1.153   1.869   0.127  0.4293  1.0691 -0.5996
 6353TIP3   OH240549   0.058   3.837   5.748 -0.1751 -0.0743  0.3109
 6353TIP3    H140550   0.040   3.887   5.668  2.1121 -0.2811 -0.4234
 6353TIP3    H240551   0.085   3.751   5.715 -0.1272 -0.4708  1.3667
 6354TIP3   OH240552   1.775   3.745  16.999 -0.0835  0.3159  0.1089
 6354TIP3    H140553   1.815   3.806  16.937 -0.0960  1.3283  1.0641
 6354TIP3    H240554   1.701   3.708  16.951  0.1434  0.7748 -0.6172
 6355TIP3   OH240555   5.021   6.640  15.582  0.0292 -0.0278  0.3650
 6355TIP3    H140556   5.025   6.698  15.657 -1.0149  0.6571 -0.0823
 6355TIP3    H240557   5.045   6.554  15.616  1.6671  0.6663  1.0200
 6356TIP3   OH240558   2.837   6.378  13.004  0.4341  0.0842  0.7664
 6356TIP3    H140559   2.803   6.467  12.998  0.3405 -0.0126 -0.5249
 6356TIP3    H240560   2.775   6.326  12.953  0.5322 -0.7150  1.4352
 6357TIP3   OH240561   6.602   3.235  11.148 -0.4269 -0.0269  0.0906
 6357TIP3    H140562   6.678   3.262  11.097 -1.0101  0.0859 -0.7401
 6357TIP3    H240563   6.639   3.198  11.229  0.4718  0.6530  0.0023
 6358TIP3   OH240564   5.215   2.220  12.020 -0.4477 -0.5914 -0.4366
 6358TIP3    H140565   5.245   2.135  11.988 -1.9659 -1.1648 -0.4401
 6358TIP3    H240566   5.262   2.284  11.967 -0.0734 -1.4516 -1.1675
 6359TIP3   OH240567   1.432   0.391   1.967 -0.2720 -0.0875 -0.4604
 6359TIP3    H140568   1.377   0.462   1.999  0.1718  0.9172 -1.8182
 6359TIP3    H240569   1.460   0.344   2.046 -1.3964  0.6204  0.3885
 6360TIP3   OH240570   4.094   5.079  13.182  0.1668 -0.6941 -0.1250
 6360TIP3    H140571   4.096   5.142  13.110 -0.1546  0.1227  0.5645
 6360TIP3    H240572   4.168   5.021  13.165  0.1255 -0.4874 -1.0812
 6361TIP3   OH240573   5.402   2.419  11.934  0.8980 -0.1792 -0.3603
 6361TIP3    H140574   5.372   2.486  11.997  0.0510  0.2985 -1.2417
 6361TIP3    H240575   5.491   2.445  11.912  0.8239  0.2590 -0.1606
 6362TIP3   OH240576   4.522   3.223  13.467 -0.0755  0.9442 -0.4757
 6362TIP3    H140577   4.467   3.245  13.392 -0.2657  0.3399 -0.5200
 6362TIP3    H240578   4.460   3.199  13.535  0.1295  0.0429 -0.5951
 6363TIP3   OH240579   5.300   3.293   6.682 -0.3647 -0.1426  0.2033
 6363TIP3    H140580   5.274   3.202   6.677 -1.6305  0.2539 -1.0711
 6363TIP3    H240581   5.383   3.292   6.730 -0.4113 -1.9309  0.2979
 6364TIP3   OH240582   1.757   1.477   3.977 -0.3665  0.3080  0.2499
 6364TIP3    H140583   1.821   1.428   4.028 -0.2650  1.4010  1.2057
 6364TIP3    H240584   1.678   1.475   4.029 -0.2014  1.6182  0.5865
 6365TIP3   OH240585   6.056   5.812  14.725 -0.0254  0.0046  0.1011
 6365TIP3    H140586   5.994   5.782  14.658 -1.9322  3.0229  0.3302
 6365TIP3    H240587   6.010   5.802  14.808  0.0171  1.6542  0.3538
 6366TIP3   OH240588   1.567   5.036   3.761 -0.3008 -0.1791 -0.7165
 6366TIP3    H140589   1.608   5.046   3.847  0.9219  1.3415 -1.4424
 6366TIP3    H240590   1.550   4.942   3.754  3.9648 -1.1242 -0.7476
 6367TIP3   OH240591   6.337   4.086  11.074 -0.3541 -0.2788  0.0128
 6367TIP3    H140592   6.266   4.023  11.062  0.6365 -1.2264 -1.2089
 6367TIP3    H240593   6.409   4.051  11.022  1.3633  0.1262  2.0153
 6368TIP3   OH240594   4.642   4.405  13.398  0.2292  0.5690  0.4192
 6368TIP3    H140595   4.594   4.446  13.325  1.8393  0.5930 -0.6891
 6368TIP3    H240596   4.705   4.473  13.425  1.5001 -0.3820 -0.0357
 6369TIP3   OH240597   3.460   4.413   3.558  0.2848 -0.4088 -0.1946
 6369TIP3    H140598   3.535   4.364   3.525 -0.0619 -1.3734  0.3836
 6369TIP3    H240599   3.467   4.405   3.653 -0.8156 -0.9563 -0.1386
 6370TIP3   OH240600   1.268   4.851  12.010  0.5406  0.9384  0.0097
 6370TIP3    H140601   1.274   4.764  12.049  1.4713  0.9634 -0.0464
 6370TIP3    H240602   1.282   4.911  12.084 -0.5199  1.0563  0.1245
 6371TIP3   OH240603   2.515   1.826   4.987 -0.7763  0.1376 -0.5391
 6371TIP3    H140604   2.520   1.813   5.082  0.5016 -0.0814 -0.6180
 6371TIP3    H240605   2.484   1.916   4.977 -1.1414  0.0824  0.0874
 6372TIP3   OH240606   5.964   4.188  16.040  0.2739 -0.2349 -0.2046
 6372TIP3    H140607   5.926   4.270  16.072  2.5973  1.8309 -2.2647
 6372TIP3    H240608   5.989   4.141  16.119 -0.8620  1.1641  1.0604
 6373TIP3   OH240609   2.011   3.469  15.678 -0.4910  0.0551 -0.0266
 6373TIP3    H140610   2.050   3.553  15.655 -1.6018  0.4325 -0.5602
 6373TIP3    H240611   1.994   3.426  15.594  2.0576 -1.6914  0.2244
 6374TIP3   OH240612   4.372   6.221  15.879  0.2780 -0.1251  0.2947
 6374TIP3    H140613   4.353   6.224  15.785 -0.3771 -0.0955  0.4262
 6374TIP3    H240614   4.466   6.202  15.883  0.3591  0.1031 -0.3654
 6375TIP3   OH240615   4.140   4.002   4.624  0.2308 -0.4160 -0.3579
 6375TIP3    H140616   4.138   3.914   4.586 -4.3869  0.1166 -2.0259
 6375TIP3    H240617   4.160   4.059   4.550  0.0474  0.1113 -0.0062
 6376TIP3   OH240618   4.165   1.166   4.118  0.0756 -0.1991  0.1013
 6376TIP3    H140619   4.151   1.216   4.199 -1.7188 -0.4652  0.0025
 6376TIP3    H240620   4.180   1.234   4.052 -0.8432  0.1527  0.2378
 6377TIP3   OH240621   0.575   0.163  15.291 -0.1067 -0.0799 -0.7599
 6377TIP3    H140622   0.664   0.148  15.320 -0.9305 -1.7471  1.1289
 6377TIP3    H240623   0.562   0.102  15.219 -0.0066 -0.4927 -0.4280
 6378TIP3   OH240624   6.635   1.736  15.521 -0.4924 -0.0995  0.8123
 6378TIP3    H140625   6.695   1.662  15.527 -1.3109 -0.9454 -0.6436
 6378TIP3    H240626   6.565   1.716  15.584 -1.8000 -1.7149 -1.0171
 6379TIP3   OH240627   2.801   5.784  16.270 -0.3065  0.1961 -0.2777
 6379TIP3    H140628   2.757   5.701  16.256 -1.3505  0.7860 -0.5520
 6379TIP3    H240629   2.841   5.804  16.186  0.2357 -0.1825 -0.1161
 6380TIP3   OH240630   1.169   0.308   4.517 -0.0989  0.0106  0.1052
 6380TIP3    H140631   1.108   0.377   4.544 -0.9512 -0.7294  0.1091
 6380TIP3    H240632   1.193   0.263   4.598 -0.4672 -0.4433 -0.0378
 6381TIP3   OH240633   5.762   5.713  15.225 -0.5169 -0.2457 -0.3858
 6381TIP3    H140634   5.757   5.705  15.321  1.4146 -1.6871 -0.3397
 6381TIP3    H240635   5.769   5.806  15.209 -2.2179  0.1425  0.7544
 6382TIP3   OH240636   3.625   3.840  16.644  0.1919 -0.7114  0.0466
 6382TIP3    H140637   3.659   3.904  16.706  0.0362 -0.6620  0.0810
 6382TIP3    H240638   3.554   3.795  16.691 -2.3921  1.7242 -1.2053
 6383TIP3   OH240639   0.821   0.618  12.031  0.1699  0.4159 -0.5579
 6383TIP3    H140640   0.832   0.710  12.055  0.4407  0.3723 -0.5119
 6383TIP3    H240641   0.894   0.573  12.074 -0.1403  0.1350 -0.3250
 6384TIP3   OH240642   0.790   4.402   0.383 -0.0971  0.6945 -0.7515
 6384TIP3    H140643   0.720   4.376   0.323 -0.9670 -2.2752  1.2940
 6384TIP3    H240644   0.856   4.334   0.373  0.4216  0.9798  0.5462
 6385TIP3   OH240645   3.008   5.213   2.925  0.2001 -0.1565  0.1073
 6385TIP3    H140646   2.979   5.177   3.009  0.3783 -0.3197  0.0987
 6385TIP3    H240647   3.009   5.307   2.939 -1.3107 -0.0720 -0.1961
 6386TIP3   OH240648   2.857   6.314   1.924  0.5880  0.6217  0.3500
 6386TIP3    H140649   2.779   6.291   1.974  0.5309 -0.5457 -0.2398
 6386TIP3    H240650   2.882   6.233   1.879  1.1963  1.3784 -0.7371
 6387TIP3   OH240651   4.591   3.885  12.380 -0.5345 -0.0832 -0.2701
 6387TIP3    H140652   4.550   3.827  12.445  0.8512 -0.8854 -0.0890
 6387TIP3    H240653   4.531   3.883  12.306 -0.6471 -1.5691 -0.1727
 6388TIP3   OH240654   6.539   3.562  17.093  0.1402  0.1879  0.2350
 6388TIP3    H140655   6.605   3.535  17.156 -0.3733 -0.3924  0.5261
 6388TIP3    H240656   6.475   3.612  17.144 -0.3301 -0.3681  0.2084
 6389TIP3   OH240657   2.631   2.738  11.483  0.2989 -0.0946 -0.2223
 6389TIP3    H140658   2.674   2.669  11.533 -0.0678 -0.2244 -0.0834
 6389TIP3    H240659   2.585   2.692  11.413 -3.3944 -0.4862  2.2119
 6390TIP3   OH240660   1.008   0.914  14.156  0.5060  0.3132  0.3146
 6390TIP3    H140661   0.919   0.877  14.153 -0.0016  1.5297 -0.4770
 6390TIP3    H240662   1.062   0.850  14.110  0.0987 -0.5441  0.9755
 6391TIP3   OH240663   5.626   3.887  11.924 -0.0914 -0.0071 -0.2998
 6391TIP3    H140664   5.617   3.897  12.019 -2.3085  1.3651 -0.5877
 6391TIP3    H240665   5.544   3.920  11.888 -0.8401 -3.7451 -2.5606
 6392TIP3   OH240666   6.398   4.657   2.941  0.4568  0.3727  0.2665
 6392TIP3    H140667   6.328   4.707   2.981 -0.8284 -1.5902  0.6230
 6392TIP3    H240668   6.356   4.610   2.869  1.7503  0.3362 -0.5011
 6393TIP3   OH240669   0.033   6.373   3.597  0.2906  0.2285  0.6338
 6393TIP3    H140670  -0.047   6.345   3.642 -0.2543  0.8543  0.0902
 6393TIP3    H240671   0.079   6.292   3.575  0.4928 -0.0918  2.1542
 6394TIP3   OH240672   5.453   3.896  14.897 -0.2009 -0.0811 -0.2899
 6394TIP3    H140673   5.366   3.860  14.908  0.0556 -0.7415 -0.3966
 6394TIP3    H240674   5.510   3.820  14.888  0.7231  0.2525  2.0153
 6395TIP3   OH240675   5.135   0.708   4.937 -0.0200  0.1509  0.4034
 6395TIP3    H140676   5.089   0.784   4.972  1.1925  0.9354  0.3476
 6395TIP3    H240677   5.195   0.744   4.872  2.0671 -0.5598  1.8159
 6396TIP3   OH240678   3.333   6.794  14.238 -0.4042 -0.2969 -0.4850
 6396TIP3    H140679   3.278   6.821  14.311 -0.1502 -1.1885  0.0644
 6396TIP3    H240680   3.271   6.769  14.169 -0.6437  1.9697 -1.1700
 6397TIP3   OH240681   0.130   5.662  15.429  0.4726  0.3421 -0.1670
 6397TIP3    H140682   0.075   5.638  15.503  0.4573  1.0118  0.0363
 6397TIP3    H240683   0.076   5.643  15.352 -1.4968  4.2347  0.0219
 6398TIP3   OH240684   1.008   4.453   2.630  0.0576  0.2253 -0.3341
 6398TIP3    H140685   1.073   4.389   2.599 -0.9203 -0.4804 -0.9750
 6398TIP3    H240686   1.025   4.462   2.724 -0.6964 -2.0764  0.0737
 6399TIP3   OH240687   4.180   4.651   0.019  0.4372  0.0482 -0.2451
 6399TIP3    H140688   4.134   4.570   0.038  1.6115 -0.7749 -0.7478
 6399TIP3    H240689   4.273   4.627   0.019  0.8447  1.4806 -0.0015
 6400TIP3   OH240690   3.280   6.381  14.881  0.3745 -0.7077 -0.1840
 6400TIP3    H140691   3.291   6.429  14.963 -1.0962  0.3608 -0.5566
 6400TIP3    H240692   3.354   6.408  14.826  0.1155  0.3832 -0.0195
 6401TIP3   OH240693   5.139   2.455   3.137 -0.3688 -0.2637  0.3257
 6401TIP3    H140694   5.053   2.494   3.123 -0.7408 -0.6323  1.4755
 6401TIP3    H240695   5.142   2.435   3.231  0.2406 -1.9812 -0.0143
 6402TIP3   OH240696   5.697   1.614   1.359 -0.4242  0.2571 -0.2889
 6402TIP3    H140697   5.685   1.572   1.274 -0.6219 -0.9002  0.3030
 6402TIP3    H240698   5.783   1.585   1.389 -1.4587 -1.6027  1.1246
 6403TIP3   OH240699   3.385   2.478  17.063 -0.0426 -0.1118 -0.0663
 6403TIP3    H140700   3.289   2.472  17.065 -0.0719  0.1936  1.9134
 6403TIP3    H240701   3.404   2.563  17.103  1.0558 -0.6763  0.6560
 6404TIP3   OH240702   1.272   5.100  15.979  0.7291 -0.3226 -0.4268
 6404TIP3    H140703   1.279   5.195  15.981  1.7203 -0.3702 -1.0547
 6404TIP3    H240704   1.297   5.076  15.890  3.2064 -1.3365  0.4390
 6405TIP3   OH240705   3.940   0.445   1.680 -0.3763  0.1948  0.2189
 6405TIP3    H140706   3.891   0.436   1.598 -1.0329  0.2705  0.5982
 6405TIP3    H240707   3.900   0.520   1.723 -0.4326 -0.2131  0.8874
 6406TIP3   OH240708   1.123   1.927  14.356  0.5890  0.9013 -0.2009
 6406TIP3    H140709   1.197   1.988  14.362  0.0003  1.6580 -0.5770
 6406TIP3    H240710   1.046   1.982  14.350  0.0973  0.1475 -1.2947
 6407TIP3   OH240711   4.574   2.426  12.455 -0.2374  0.4616  0.1454
 6407TIP3    H140712   4.510   2.378  12.402 -1.0116  2.7324 -1.0886
 6407TIP3    H240713   4.522   2.465  12.525  0.4729 -0.8157  1.4520
 6408TIP3   OH240714   5.490   5.518  15.789 -0.3896 -0.2627 -0.1024
 6408TIP3    H140715   5.583   5.505  15.769 -0.4468  0.3490 -0.8046
 6408TIP3    H240716   5.482   5.612  15.807 -0.6562 -0.5156  1.1970
 6409TIP3   OH240717   6.323   2.910  15.197  0.0180  0.7386 -0.1152
 6409TIP3    H140718   6.331   3.001  15.166 -3.8221  1.4977  0.6619
 6409TIP3    H240719   6.300   2.918  15.289 -0.2767 -1.0234 -0.0064
 6410TIP3   OH240720   3.161   6.018   0.272  0.1687  0.1990 -0.4017
 6410TIP3    H140721   3.151   6.108   0.239 -1.8191 -0.0567 -0.6423
 6410TIP3    H240722   3.255   6.009   0.288  0.4088  2.3968 -0.1386
 6411TIP3   OH240723   5.209   3.080   5.471 -0.2025  0.2845 -0.5382
 6411TIP3    H140724   5.129   3.131   5.461 -0.7101 -0.3375  0.1914
 6411TIP3    H240725   5.200   3.037   5.556  1.1667  0.6362 -0.1823
 6412TIP3   OH240726   3.359   4.953   5.658  0.7864  0.0159 -0.1296
 6412TIP3    H140727   3.375   4.943   5.751 -0.5253  2.2165  0.3970
 6412TIP3    H240728   3.270   4.919   5.645  1.2638 -1.0588 -0.7793
 6413TIP3   OH240729   3.190   2.180   1.535  0.0026  0.1061 -0.1373
 6413TIP3    H140730   3.183   2.104   1.477 -0.1818 -0.1855  0.2552
 6413TIP3    H240731   3.241   2.244   1.486 -0.1571 -0.1325 -0.6174
 6414TIP3   OH240732   1.210   5.337   1.114 -0.5893  0.5865 -0.4288
 6414TIP3    H140733   1.172   5.249   1.111 -0.2232  0.4313 -0.6036
 6414TIP3    H240734   1.291   5.329   1.064  0.5982  0.4707  1.4315
 6415TIP3   OH240735   5.174   2.370  13.000 -0.3032 -0.1558  0.5484
 6415TIP3    H140736   5.177   2.458  13.037  1.2576  0.3114 -0.6152
 6415TIP3    H240737   5.095   2.331  13.038 -1.2358  1.8563  0.7715
 6416TIP3   OH240738   5.439   2.815   2.321  0.1857 -0.2830  0.3623
 6416TIP3    H140739   5.346   2.806   2.339  0.1957 -2.7349 -0.4593
 6416TIP3    H240740   5.447   2.797   2.227  1.5850 -1.4879  0.6683
 6417TIP3   OH240741   6.698   5.949   2.665 -0.1277  0.3777 -0.0445
 6417TIP3    H140742   6.778   5.982   2.625  0.2769  2.5280  2.3241
 6417TIP3    H240743   6.629   5.970   2.602  0.7495  1.6087 -0.6283
 6418TIP3   OH240744   0.334   6.675   2.400  0.5383  0.8474 -0.2357
 6418TIP3    H140745   0.390   6.598   2.407 -1.4405 -0.5291  1.5531
 6418TIP3    H240746   0.315   6.699   2.491 -0.7392  2.0280 -0.7885
 6419TIP3   OH240747   1.224   2.775  15.719  0.1210  0.3473 -0.1573
 6419TIP3    H140748   1.222   2.758  15.625  0.1999  0.5119 -0.1882
 6419TIP3    H240749   1.275   2.855  15.728  1.0919 -0.2931  0.1239
 6420TIP3   OH240750   5.827   1.710  13.348 -0.1994  0.0876  0.0624
 6420TIP3    H140751   5.922   1.693  13.350 -0.3249 -0.8219 -0.8037
 6420TIP3    H240752   5.793   1.647  13.284 -1.4584  0.1172  0.6832
 6421TIP3   OH240753   2.127   4.900  15.581  0.1180  0.4236 -0.3407
 6421TIP3    H140754   2.098   4.944  15.661 -1.3738 -1.7079  0.3742
 6421TIP3    H240755   2.072   4.938  15.512 -2.8679 -1.7570  0.6215
 6422TIP3   OH240756   1.239   1.513  16.023  0.1871  0.4888 -0.3516
 6422TIP3    H140757   1.174   1.457  15.982  0.9096 -1.1100  0.6150
 6422TIP3    H240758   1.308   1.454  16.052  0.7465  1.8006  1.1799
 6423TIP3   OH240759   2.992   6.347   2.790 -0.0810 -0.1056 -0.2168
 6423TIP3    H140760   2.929   6.277   2.777 -1.1945  0.7849  0.1675
 6423TIP3    H240761   3.051   6.315   2.859  0.6747 -1.4336 -1.4237
 6424TIP3   OH240762   0.957   6.512   4.375 -0.2667  0.5631  0.0906
 6424TIP3    H140763   0.956   6.486   4.468 -0.1272 -2.1289 -0.5680
 6424TIP3    H240764   0.867   6.537   4.356 -0.6779 -0.5094  0.5715
 6425TIP3   OH240765   5.568   4.403   5.208  0.3816  0.6672  0.4147
 6425TIP3    H140766   5.649   4.393   5.259  0.5788  0.2613  0.0340
 6425TIP3    H240767   5.500   4.415   5.274  0.1180 -3.0740  1.0491
 6426TIP3   OH240768   3.239   1.016  12.314  0.2358  0.1680  0.3939
 6426TIP3    H140769   3.226   0.961  12.237  2.5030 -0.8697  0.6640
 6426TIP3    H240770   3.164   0.997  12.370 -1.6405  1.1969 -1.6170
 6427TIP3   OH240771   5.606   4.862  14.655  0.2315  0.3726 -0.0842
 6427TIP3    H140772   5.660   4.919  14.710  0.1981  1.2341 -0.9190
 6427TIP3    H240773   5.586   4.786  14.711  2.7121 -0.2269  0.0792
 6428TIP3   OH240774   3.438   2.762  15.644  0.0442  0.4877  0.6111
 6428TIP3    H140775   3.358   2.813  15.628  0.2165  0.7497  0.5788
 6428TIP3    H240776   3.421   2.677  15.602 -0.4849  0.3006  1.2049
 6429TIP3   OH240777   1.616   5.664  11.868  0.7520 -0.2485  0.3745
 6429TIP3    H140778   1.523   5.647  11.849  0.6858  0.3506  0.1646
 6429TIP3    H240779   1.630   5.620  11.952  0.3849 -0.6937  0.2131
 6430TIP3   OH240780   1.956   2.448  11.970 -0.6364 -0.1615  0.6584
 6430TIP3    H140781   1.878   2.455  12.024 -0.4982 -0.7449  0.9477
 6430TIP3    H240782   1.961   2.355  11.947 -0.5215  0.0277 -0.1023
 6431TIP3   OH240783   1.599   0.250  16.124 -0.8056 -0.1962  0.0888
 6431TIP3    H140784   1.575   0.331  16.169 -1.6284 -0.3404 -0.0895
 6431TIP3    H240785   1.684   0.269  16.085 -0.6400  0.3286  0.6865
 6432TIP3   OH240786   0.817   2.669   0.012 -0.1256  0.8103  0.2135
 6432TIP3    H140787   0.746   2.705  -0.042 -0.5396  0.2536  0.3814
 6432TIP3    H240788   0.803   2.708   0.098 -1.3111 -0.6592  0.7282
 6433TIP3   OH240789   1.540   2.793   4.688  1.0107  0.7385 -0.1981
 6433TIP3    H140790   1.454   2.767   4.656  0.6717  0.2956  1.0107
 6433TIP3    H240791   1.571   2.718   4.739  0.5923  2.1166  2.2550
 6434TIP3   OH240792   1.203   6.776   0.717 -0.5400 -0.4161  0.4197
 6434TIP3    H140793   1.195   6.787   0.623 -2.3478 -1.4870  0.4094
 6434TIP3    H240794   1.124   6.729   0.743 -0.0952 -0.1259  2.4804
 6435TIP3   OH240795   5.900   2.655  15.028 -0.2503  0.0880 -0.4080
 6435TIP3    H140796   5.933   2.736  14.990  1.3756  0.2832  1.2455
 6435TIP3    H240797   5.869   2.604  14.954  1.4086  1.0265 -1.8359
 6436TIP3   OH240798   5.180   1.544   1.829  0.1025  0.1628 -0.5371
 6436TIP3    H140799   5.174   1.620   1.887  0.8024  0.8041 -1.2744
 6436TIP3    H240800   5.273   1.535   1.810  0.3894 -2.4474  1.5163
 6437TIP3   OH240801   6.383   5.179   0.864 -0.6326  0.0996  0.4234
 6437TIP3    H140802   6.337   5.261   0.845  0.3859  1.0614  1.8246
 6437TIP3    H240803   6.459   5.206   0.916  1.4364 -1.4287 -1.6243
 6438TIP3   OH240804   5.054   3.972  13.529 -0.1287 -0.4922 -0.4808
 6438TIP3    H140805   5.023   4.053  13.489  2.1084  1.1805  0.8885
 6438TIP3    H240806   5.111   3.932  13.463  0.6048  0.3206 -0.3684
 6439TIP3   OH240807   2.584   0.136  14.770 -0.2655 -0.7370  0.6718
 6439TIP3    H140808   2.576   0.046  14.800 -0.1407 -0.7469  0.6728
 6439TIP3    H240809   2.504   0.151  14.719 -0.7493 -0.5350  1.4787
 6440TIP3   OH240810   1.496   1.198   1.673  0.4373  0.3645 -0.2047
 6440TIP3    H140811   1.428   1.205   1.740  2.3887 -1.4174  2.1842
 6440TIP3    H240812   1.494   1.107   1.646  2.3045  0.0609  0.5194
 6441TIP3   OH240813   4.121   3.848  11.528  0.8058 -0.9357 -0.1732
 6441TIP3    H140814   4.145   3.810  11.613  2.6546  4.2697  2.0551
 6441TIP3    H240815   4.201   3.842  11.476  0.1772 -2.6122 -1.0071
 6442TIP3   OH240816   3.907   6.523   3.926  0.1772  0.1863 -0.3275
 6442TIP3    H140817   3.938   6.447   3.975  0.2568  0.2460 -0.2852
 6442TIP3    H240818   3.960   6.596   3.958 -1.3967  0.7091  1.2573
 6443TIP3   OH240819   4.272   6.735  12.030  0.1901  0.3871  0.6371
 6443TIP3    H140820   4.352   6.786  12.020  0.0755  0.4515  0.0189
 6443TIP3    H240821   4.292   6.672  12.098  0.9686  0.0187  0.0738
 6444TIP3   OH240822   2.752   5.126   2.230 -0.1898 -0.3699 -0.3486
 6444TIP3    H140823   2.730   5.037   2.256  0.8245 -1.2755 -2.3557
 6444TIP3    H240824   2.844   5.135   2.252 -0.5135  0.5346  0.6869
 6445TIP3   OH240825   0.456   1.217   5.991  0.3033 -0.1635 -0.2454
 6445TIP3    H140826   0.426   1.161   6.063 -0.5182  1.6022  0.8480
 6445TIP3    H240827   0.377   1.231   5.937  0.0412  1.3565  0.4891
 6446TIP3   OH240828   5.856   6.664  16.370 -0.5638  0.0507  0.4256
 6446TIP3    H140829   5.948   6.658  16.343 -0.6468  1.8111 -0.3914
 6446TIP3    H240830   5.847   6.596  16.437  0.8473 -1.3668 -0.7249
 6447TIP3   OH240831   5.133   0.264   6.879 -0.0278  0.1570  0.1150
 6447TIP3    H140832   5.228   0.266   6.894  0.0262  0.8454 -0.3008
 6447TIP3    H240833   5.113   0.170   6.870  0.4343 -0.0681  1.2876
 6448TIP3   OH240834   2.470   5.952  12.762  0.3791  0.4068 -0.3701
 6448TIP3    H140835   2.564   5.949  12.743  0.4882  0.6860  0.1157
 6448TIP3    H240836   2.455   6.040  12.794 -0.4466  1.0806 -2.4390
 6449TIP3   OH240837   6.797   3.404   3.607 -0.8068 -0.2781 -0.6200
 6449TIP3    H140838   6.785   3.437   3.696  0.0276 -1.4515 -0.0430
 6449TIP3    H240839   6.884   3.364   3.608 -0.9830 -0.7308 -1.8296
 6450TIP3   OH240840   1.379   0.420   4.354  0.4502  0.2703  0.0135
 6450TIP3    H140841   1.410   0.482   4.421  1.8915 -0.1979 -0.2035
 6450TIP3    H240842   1.312   0.368   4.400  0.1904  1.0775  0.5864
 6451TIP3   OH240843   4.179   0.494  12.362 -0.3786 -0.1976 -0.7546
 6451TIP3    H140844   4.260   0.470  12.318  0.9733  0.4019  1.2534
 6451TIP3    H240845   4.170   0.588  12.346 -0.0649 -0.0465 -0.1034
 6452TIP3   OH240846   2.559   3.056   1.238 -0.0456  0.0811  0.2766
 6452TIP3    H140847   2.537   2.968   1.269 -1.3365 -0.3758 -1.7026
 6452TIP3    H240848   2.628   3.041   1.173  0.8113  0.7278  1.0161
 6453TIP3   OH240849   2.538   3.699   3.864 -0.4540  0.0781  0.3745
 6453TIP3    H140850   2.448   3.697   3.830 -1.1482  1.0544  2.0331
 6453TIP3    H240851   2.529   3.729   3.954  1.5927  0.6982  0.4232
 6454TIP3   OH240852   2.245   4.469  15.176 -0.1167 -0.4275  0.3039
 6454TIP3    H140853   2.219   4.561  15.186 -1.9590 -0.9332  0.5531
 6454TIP3    H240854   2.197   4.439  15.098  0.5608 -1.1456  0.1562
 6455TIP3   OH240855   4.092   4.638   0.378  0.0236 -0.2949 -0.2514
 6455TIP3    H140856   4.175   4.614   0.420 -0.3594  0.9747  1.3344
 6455TIP3    H240857   4.070   4.562   0.325  0.7392 -1.8853  1.5971
 6456TIP3   OH240858   0.326   2.959   0.232  0.1851  0.8829 -0.1003
 6456TIP3    H140859   0.382   3.027   0.195  1.5239  0.2712  0.7225
 6456TIP3    H240860   0.375   2.878   0.218 -1.2032  0.1173 -0.7068
 6457TIP3   OH240861   6.754   4.392  16.425 -0.9011 -0.4577  0.1943
 6457TIP3    H140862   6.670   4.372  16.383  0.3361 -2.7160 -1.4358
 6457TIP3    H240863   6.736   4.388  16.519 -3.3618  2.9088  0.0396
 6458TIP3   OH240864   4.804   1.022   4.211  0.2566  0.4277  0.4913
 6458TIP3    H140865   4.763   0.988   4.131 -1.3646  1.3342  0.8957
 6458TIP3    H240866   4.784   1.116   4.210 -0.0039  0.4219  2.0559
 6459TIP3   OH240867   4.248   3.239  14.391 -0.0305 -0.2969  0.0927
 6459TIP3    H140868   4.276   3.192  14.470 -0.4439  0.6409  0.8091
 6459TIP3    H240869   4.190   3.308  14.423 -2.0371 -1.2733 -1.2285
 6460TIP3   OH240870   5.603   6.170   1.680  0.0330 -0.1521 -0.4547
 6460TIP3    H140871   5.516   6.206   1.698  0.1064 -0.1380 -0.1166
 6460TIP3    H240872   5.639   6.151   1.767  0.3930 -0.0929 -0.5895
 6461TIP3   OH240873   6.543   6.300   3.497  0.1012 -0.2270  0.4775
 6461TIP3    H140874   6.526   6.207   3.506  0.2741 -0.2373  0.6950
 6461TIP3    H240875   6.567   6.329   3.585  4.8508 -0.8961 -0.3754
 6462TIP3   OH240876   2.816   2.458   0.636  0.0254 -0.1103 -0.1004
 6462TIP3    H140877   2.798   2.422   0.549 -0.3223 -0.7154  0.2117
 6462TIP3    H240878   2.821   2.553   0.623 -2.1673  0.0024 -0.4381
 6463TIP3   OH240879   0.510   6.809   5.745  0.0332  0.2774  0.0840
 6463TIP3    H140880   0.531   6.827   5.836 -2.0503  1.9860  0.2859
 6463TIP3    H240881   0.596   6.799   5.702  1.0839  1.3523  1.8450
 6464TIP3   OH240882   4.877   6.740  15.817  0.1485  0.0628 -0.5977
 6464TIP3    H140883   4.929   6.771  15.891 -0.5233  0.6519 -0.3627
 6464TIP3    H240884   4.852   6.819  15.770 -0.2253 -0.2393 -0.9139
 6465TIP3   OH240885   2.754   6.217  16.397 -0.2273  0.4269 -0.4867
 6465TIP3    H140886   2.698   6.269  16.340  0.3329  0.8070 -0.7052
 6465TIP3    H240887   2.808   6.165  16.337  0.6605  1.1378 -0.3398
 6466TIP3   OH240888   2.048   4.955   1.763  0.2597  0.0833 -0.4753
 6466TIP3    H140889   2.012   4.970   1.850 -2.2954  0.5661 -1.5282
 6466TIP3    H240890   2.108   5.028   1.749  0.6713  0.0225  0.8332
 6467TIP3   OH240891   1.622   2.101  12.381 -0.5558 -0.1440 -0.2369
 6467TIP3    H140892   1.675   2.040  12.330  0.1323 -1.7252  2.2010
 6467TIP3    H240893   1.644   2.187  12.346  1.9226 -0.9455 -0.8085
 6468TIP3   OH240894   2.335   5.900   4.404  0.4059  0.1066  0.1439
 6468TIP3    H140895   2.406   5.957   4.435 -1.0870  0.6441  2.8150
 6468TIP3    H240896   2.364   5.812   4.427  1.1992  0.0684 -0.9081
 6469TIP3   OH240897   1.879   0.033  14.464  0.7055  0.0399  0.0877
 6469TIP3    H140898   1.884   0.099  14.533  1.7779  0.6208 -0.5312
 6469TIP3    H240899   1.951   0.053  14.405 -0.1656 -0.4696 -1.2010
 6470TIP3   OH240900   3.353   0.508   0.952 -0.4414 -0.3071 -0.3965
 6470TIP3    H140901   3.266   0.543   0.937  0.0080  1.6688  1.1584
 6470TIP3    H240902   3.392   0.501   0.865 -1.1659  1.5082 -0.9130
 6471TIP3   OH240903   4.988   1.983   4.946  0.3077  1.0975 -0.8057
 6471TIP3    H140904   5.049   1.929   4.895  1.0912  1.0007  0.2016
 6471TIP3    H240905   5.023   1.980   5.035 -2.1025 -0.3482  0.1911
 6472TIP3   OH240906   4.186   4.936  11.594 -0.0293 -0.0902  0.2932
 6472TIP3    H140907   4.211   4.947  11.502 -0.1656 -0.8150  0.1682
 6472TIP3    H240908   4.261   4.971  11.643 -0.8194  2.2712 -0.0773
 6473TIP3   OH240909   2.392   0.077  14.073 -0.1277 -0.1231 -0.3295
 6473TIP3    H140910   2.480   0.112  14.057  0.3519  0.2635  2.5938
 6473TIP3    H240911   2.395   0.045  14.163 -2.3784 -2.1321 -0.8715
 6474TIP3   OH240912   0.408   5.459  14.288 -0.0317 -0.5964 -0.8480
 6474TIP3    H140913   0.469   5.399  14.330  0.9151  0.9769  0.1311
 6474TIP3    H240914   0.339   5.471  14.353  1.4601  1.8828  0.4148
 6475TIP3   OH240915   4.060   5.992   4.960 -0.1149  0.1894 -0.3475
 6475TIP3    H140916   3.977   6.025   4.925  1.0926  1.1440 -2.5123
 6475TIP3    H240917   4.075   5.910   4.914  0.3426  0.2454 -0.3047
 6476TIP3   OH240918   2.522   2.216  14.091  0.0146 -0.4776 -0.2720
 6476TIP3    H140919   2.545   2.185  14.179 -0.6831 -2.4294 -0.7330
 6476TIP3    H240920   2.480   2.141  14.049 -0.3760  0.6599 -2.0213
 6477TIP3   OH240921   3.900   2.853  16.812 -0.7222  0.2718 -0.4857
 6477TIP3    H140922   3.819   2.801  16.816 -1.1597  0.9988  1.5577
 6477TIP3    H240923   3.950   2.824  16.888  1.0491 -0.2784 -1.8224
 6478TIP3   OH240924   0.341   6.546   3.396  0.4652  1.1026 -1.0471
 6478TIP3    H140925   0.322   6.544   3.490 -3.0161  2.5062 -1.5828
 6478TIP3    H240926   0.361   6.637   3.377  0.9929  0.8600 -1.7149
 6479TIP3   OH240927   5.817   2.071   2.296 -0.1455  0.1427 -0.4274
 6479TIP3    H140928   5.838   2.081   2.203  0.7940  0.9764 -0.1446
 6479TIP3    H240929   5.902   2.061   2.339 -0.5453  0.0831  0.3745
 6480TIP3   OH240930   3.082   2.843   1.306  0.2750  0.3227  0.3556
 6480TIP3    H140931   3.078   2.814   1.215 -0.5422  2.2048 -0.2542
 6480TIP3    H240932   3.150   2.788   1.346 -1.2092 -2.4100 -0.6428
 6481TIP3   OH240933   4.550   0.158  15.285 -0.7972 -0.7666  0.7228
 6481TIP3    H140934   4.616   0.174  15.353  0.1999  0.5833 -0.5188
 6481TIP3    H240935   4.478   0.216  15.309 -0.8829 -1.0456  1.1696
 6482TIP3   OH240936   3.967   3.523  10.967 -0.0203  0.5024  0.3640
 6482TIP3    H140937   3.988   3.452  10.906 -0.3447  1.9340 -1.5114
 6482TIP3    H240938   3.898   3.487  11.023 -1.2494 -0.2324 -1.5142
 6483TIP3   OH240939   1.940   0.238  13.053 -0.2956 -0.4681  0.2024
 6483TIP3    H140940   1.855   0.280  13.040  0.0557  0.1435 -0.1436
 6483TIP3    H240941   1.918   0.150  13.085 -1.0010  0.3137  1.9354
 6484TIP3   OH240942   6.209   5.026  12.105  0.1133 -0.2847 -0.0266
 6484TIP3    H140943   6.187   5.063  12.191 -0.5543  1.0349 -0.7271
 6484TIP3    H240944   6.125   5.020  12.060  0.2661 -2.2625 -0.1400
 6485TIP3   OH240945   2.461   5.133  11.291  0.7248  0.3565 -0.1134
 6485TIP3    H140946   2.403   5.097  11.224 -0.0779  1.7980 -0.2442
 6485TIP3    H240947   2.424   5.220  11.309  3.3062  1.6924 -0.8158
 6486TIP3   OH240948   2.385   1.361   5.726  0.0543 -0.0305 -0.1861
 6486TIP3    H140949   2.307   1.312   5.751  0.2626 -3.1342 -4.4118
 6486TIP3    H240950   2.357   1.417   5.654  1.4955 -0.6445 -1.2887
 6487TIP3   OH240951   2.740   2.867   3.879 -0.4081 -0.2391 -0.0066
 6487TIP3    H140952   2.810   2.803   3.877 -1.4131 -1.4002 -2.6147
 6487TIP3    H240953   2.669   2.825   3.927 -0.3425 -0.2647  0.0665
 6488TIP3   OH240954   1.017   0.770   4.166 -0.0654 -0.4652 -0.4908
 6488TIP3    H140955   0.930   0.729   4.155 -0.1146 -0.3404 -0.5674
 6488TIP3    H240956   1.072   0.726   4.100 -0.4714  0.5983 -1.5723
 6489TIP3   OH240957   4.150   4.081   4.230 -0.4148 -0.4662 -0.0712
 6489TIP3    H140958   4.144   4.143   4.303 -0.1990 -0.1276 -0.3414
 6489TIP3    H240959   4.195   4.005   4.267  1.7877  0.6030 -0.4344
 6490TIP3   OH240960   0.271   3.148   0.964 -0.0309 -0.4409  0.0148
 6490TIP3    H140961   0.229   3.085   1.022  0.9175 -0.1965  0.9908
 6490TIP3    H240962   0.356   3.109   0.943  0.8636  0.7946  1.1966
 6491TIP3   OH240963   4.751   0.454  13.144 -0.0216  0.3152  0.4412
 6491TIP3    H140964   4.828   0.475  13.092  0.1452  0.2832  0.6739
 6491TIP3    H240965   4.696   0.532  13.139 -0.0473  0.2776  0.1434
 6492TIP3   OH240966   6.126   3.051  14.720  0.3054 -0.2303 -0.0699
 6492TIP3    H140967   6.135   3.136  14.762  0.1644 -0.4779  0.4626
 6492TIP3    H240968   6.049   3.060  14.663 -0.1735 -0.2365  0.5681
 6493TIP3   OH240969   0.897   4.568   4.924  0.2923 -0.1770 -0.2053
 6493TIP3    H140970   0.873   4.653   4.887  0.1901 -0.1741 -0.1314
 6493TIP3    H240971   0.953   4.528   4.857 -1.1700 -0.8468 -1.0689
 6494TIP3   OH240972   5.806   6.523   1.181  0.0928  0.5255  0.3675
 6494TIP3    H140973   5.875   6.539   1.117  0.1189 -1.0576 -0.0439
 6494TIP3    H240974   5.755   6.604   1.183 -0.3868  0.3639 -2.2751
 6495TIP3   OH240975   5.674   1.043   4.306  0.4800  0.2002 -0.6927
 6495TIP3    H140976   5.729   1.072   4.379  0.8343  1.4011 -1.4081
 6495TIP3    H240977   5.656   0.951   4.325 -0.8282  0.8773  1.7751
 6496TIP3   OH240978   5.561   2.914  16.327 -0.2880 -0.5579  0.0297
 6496TIP3    H140979   5.623   2.892  16.396 -1.2504 -2.5628  0.3303
 6496TIP3    H240980   5.615   2.938  16.252  0.7951  2.4840  1.5907
 6497TIP3   OH240981   5.263   5.202   0.766 -0.3677 -0.3385  0.5580
 6497TIP3    H140982   5.327   5.256   0.720 -0.9648  0.5271  0.7121
 6497TIP3    H240983   5.181   5.216   0.717 -0.4395 -1.4839  0.3169
 6498TIP3   OH240984   6.285   4.347  11.002  0.5845 -0.5077  0.0113
 6498TIP3    H140985   6.246   4.352  10.914  1.6215  0.2372 -0.4305
 6498TIP3    H240986   6.319   4.258  11.008 -0.5094 -0.9289  0.1164
 6499TIP3   OH240987   3.709   0.860  12.016  0.2387 -0.0564 -0.1195
 6499TIP3    H140988   3.684   0.768  12.012  0.6553 -0.1537 -0.5766
 6499TIP3    H240989   3.804   0.859  12.004  0.2780  0.4138  0.1452
 6500TIP3   OH240990   1.575   4.857  13.560 -0.2738  0.1009 -0.5482
 6500TIP3    H140991   1.553   4.816  13.476 -1.8091  0.3417 -0.2918
 6500TIP3    H240992   1.587   4.784  13.620  0.9753 -0.0776 -0.9929
 6501TIP3   OH240993   1.680   5.359   6.273  0.0159 -0.4760 -0.0833
 6501TIP3    H140994   1.610   5.372   6.336 -0.4549  2.6532 -1.0692
 6501TIP3    H240995   1.758   5.346   6.326 -0.9476 -1.8701  1.0440
 6502TIP3   OH240996   1.939   6.002   6.136 -0.3535 -0.2466 -0.2495
 6502TIP3    H140997   1.844   6.009   6.137 -0.4767 -1.3374 -1.6053
 6502TIP3    H240998   1.968   6.075   6.080 -0.5540 -1.1255 -1.5321
 6503TIP3   OH240999   6.628   4.640   3.115  0.2632  0.1323 -0.5371
 6503TIP3    H141000   6.699   4.692   3.076 -0.1092 -1.0125 -2.9169
 6503TIP3    H241001   6.552   4.659   3.061 -0.6489 -0.5315  0.4740
 6504TIP3   OH241002   0.701   5.392   2.942 -0.5766  0.0599  0.4139
 6504TIP3    H141003   0.605   5.384   2.942 -0.5677 -0.2532 -0.9057
 6504TIP3    H241004   0.731   5.313   2.898  0.5169 -1.6389  3.8407
 6505TIP3   OH241005   3.006   2.920   4.423 -0.3387  0.1394 -0.1044
 6505TIP3    H141006   3.014   2.844   4.481  1.4619 -1.5381 -2.3200
 6505TIP3    H241007   2.957   2.887   4.348  0.1430  1.2932 -0.9470
 6506TIP3   OH241008   6.205   1.118  14.433  0.3924 -0.5720  0.3167
 6506TIP3    H141009   6.141   1.130  14.503  1.4266 -1.4169  1.4611
 6506TIP3    H241010   6.234   1.027  14.442 -0.1842 -1.0486 -1.8837
 6507TIP3   OH241011   1.735   6.375   5.268  0.1110  0.1868 -0.1172
 6507TIP3    H141012   1.785   6.456   5.274  0.1663  0.1715 -0.3632
 6507TIP3    H241013   1.644   6.403   5.268  0.1263  0.2361  0.0012
 6508TIP3   OH241014   3.552   5.271  16.296 -0.0734 -0.3928  0.4616
 6508TIP3    H141015   3.545   5.235  16.385  0.0746 -2.0705 -0.1793
 6508TIP3    H241016   3.573   5.196  16.241  1.9392  0.9492 -0.7267
 6509TIP3   OH241017   1.272   2.532  11.475 -0.0619 -0.6379 -0.1682
 6509TIP3    H141018   1.185   2.566  11.452  0.5222  1.4629  0.4648
 6509TIP3    H241019   1.306   2.595  11.539  1.4920 -2.0210  0.4369
 6510TIP3   OH241020   4.045   2.642  16.022 -0.0224 -0.0070  0.0090
 6510TIP3    H141021   4.087   2.591  16.091 -0.4155 -2.8093 -1.6595
 6510TIP3    H241022   3.952   2.640  16.044  0.0533  0.9422  0.4730
 6511TIP3   OH241023   2.792   4.428  11.144 -0.1499 -0.1098  0.3455
 6511TIP3    H141024   2.785   4.334  11.158  0.8794 -0.0708  1.2456
 6511TIP3    H241025   2.758   4.467  11.224  0.5158  0.2502  0.4629
 6512TIP3   OH241026   3.612   4.656   2.219 -0.1459 -0.1990  0.6188
 6512TIP3    H141027   3.644   4.599   2.149  0.2135 -1.9902  2.1756
 6512TIP3    H241028   3.587   4.737   2.174  2.4153 -0.3158 -1.2694
 6513TIP3   OH241029   0.005   5.061  17.220 -0.2281  0.6668  0.7702
 6513TIP3    H141030  -0.016   4.997  17.152 -2.1645  1.2584  0.7369
 6513TIP3    H241031   0.062   5.125  17.176 -0.2579  0.2629  0.1316
 6514TIP3   OH241032   6.137   5.013  15.271 -0.2224  0.3630  0.2029
 6514TIP3    H141033   6.053   4.979  15.240 -0.1784  1.4687 -1.2355
 6514TIP3    H241034   6.188   4.935  15.292 -0.7843 -0.4020 -1.1680
 6515TIP3   OH241035   2.276   3.324  14.749  0.0889 -0.7068 -0.6874
 6515TIP3    H141036   2.332   3.374  14.690  1.2551 -2.7766 -1.4563
 6515TIP3    H241037   2.251   3.246  14.699 -0.4181 -1.6477  0.9303
 6516TIP3   OH241038   5.809   1.755   4.039 -0.1502  0.3407 -0.1951
 6516TIP3    H141039   5.839   1.834   3.993  0.2532  0.2109 -0.1667
 6516TIP3    H241040   5.747   1.714   3.978 -0.7216  0.9219 -0.0091
 6517TIP3   OH241041   4.962   0.625  13.218 -0.6275  0.0063 -0.0428
 6517TIP3    H141042   4.980   0.710  13.178 -0.0769 -0.7898 -1.6109
 6517TIP3    H241043   4.878   0.636  13.263 -0.5549  1.3727 -0.2142
 6518TIP3   OH241044   0.492   3.538   1.503  0.3971 -0.4499 -0.7601
 6518TIP3    H141045   0.525   3.513   1.416 -0.3742  0.5468 -1.3615
 6518TIP3    H241046   0.403   3.569   1.487 -1.2277 -3.7392  0.9148
 6519TIP3   OH241047   4.822   1.492  13.477 -0.7079 -0.3169  0.3147
 6519TIP3    H141048   4.847   1.535  13.395 -0.1889 -0.6631  0.2847
 6519TIP3    H241049   4.753   1.547  13.513 -1.5991 -0.6547 -0.8122
 6520TIP3   OH241050   5.251   3.498   1.708 -0.2975  0.2306 -0.1094
 6520TIP3    H141051   5.293   3.575   1.671 -0.3056 -0.5205 -1.7954
 6520TIP3    H241052   5.320   3.455   1.758 -0.0651  0.8812  0.1391
 6521TIP3   OH241053   4.471   1.348  15.581  0.5217  0.3643 -0.9371
 6521TIP3    H141054   4.389   1.394  15.595  0.2750  0.5304 -2.7299
 6521TIP3    H241055   4.500   1.324  15.669 -2.9631 -2.4432 -0.3306
 6522TIP3   OH241056   2.098   1.217   2.464 -0.0699 -0.1321  0.7422
 6522TIP3    H141057   2.080   1.207   2.558 -3.5835 -0.2166  0.1978
 6522TIP3    H241058   2.013   1.208   2.422  1.3346  0.1885 -2.4916
 6523TIP3   OH241059   2.669   6.249  12.114  0.3461 -0.7731  0.1082
 6523TIP3    H141060   2.623   6.287  12.039 -0.5416  1.0384  1.4829
 6523TIP3    H241061   2.761   6.251  12.089  0.0313 -0.6321 -1.1033
 6524TIP3   OH241062   5.844   3.701  10.573 -0.0832  0.5836  0.3877
 6524TIP3    H141063   5.916   3.745  10.619 -0.2597  0.6032  0.6481
 6524TIP3    H241064   5.825   3.624  10.626  1.0264 -0.4858 -0.7007
 6525TIP3   OH241065   3.353   6.661  13.685  0.2911 -0.1546 -0.5479
 6525TIP3    H141066   3.369   6.633  13.595 -1.5634 -0.4941 -0.8137
 6525TIP3    H241067   3.315   6.749  13.676  1.3429  0.3728 -0.0009
 6526TIP3   OH241068   6.488   0.406   0.258  0.2810 -0.4746 -0.5508
 6526TIP3    H141069   6.538   0.479   0.294 -0.2351 -1.4021  2.2539
 6526TIP3    H241070   6.438   0.445   0.186  0.2996  1.8599  0.6261
 6527TIP3   OH241071   3.188   6.363   0.510 -0.4186 -0.5536 -0.5818
 6527TIP3    H141072   3.186   6.268   0.520 -0.3173 -0.3548  2.5054
 6527TIP3    H241073   3.280   6.384   0.498 -0.0849 -0.7683  1.2354
 6528TIP3   OH241074   5.552   4.485  12.946 -0.1634  0.7350  0.3935
 6528TIP3    H141075   5.589   4.401  12.975  1.9933  0.5836 -2.3108
 6528TIP3    H241076   5.490   4.461  12.878  1.2193  1.2702 -1.1288
 6529TIP3   OH241077   2.403   4.725  15.063 -0.2282  0.6221  0.0264
 6529TIP3    H141078   2.380   4.729  14.970 -0.0948  2.1773  0.0460
 6529TIP3    H241079   2.389   4.633  15.086 -1.9940  0.5651 -1.0761
 6530TIP3   OH241080   0.442   0.291  12.616  0.1267  0.0332 -0.0463
 6530TIP3    H141081   0.402   0.267  12.532  0.2099  1.4711 -0.5429
 6530TIP3    H241082   0.374   0.341  12.661  0.9948  1.7529 -0.5288
 6531TIP3   OH241083   0.775   0.282   0.148 -0.2122  0.0874 -0.1507
 6531TIP3    H141084   0.701   0.272   0.089  0.4525  0.0713 -0.9994
 6531TIP3    H241085   0.747   0.348   0.211 -0.6798  0.6184 -0.9022
 6532TIP3   OH241086   5.510   2.359   4.787  0.1982  0.0167  0.1805
 6532TIP3    H141087   5.488   2.303   4.713  3.0102  0.3662 -1.0534
 6532TIP3    H241088   5.553   2.436   4.748 -0.5960  1.4950  2.0309
 6533TIP3   OH241089   6.197   5.018  15.617 -0.0712  0.1973 -0.0909
 6533TIP3    H141090   6.203   4.922  15.608  0.4883  0.3670 -2.0798
 6533TIP3    H241091   6.103   5.036  15.608 -0.0820 -0.1005 -0.6397
 6534TIP3   OH241092   0.367   5.528  16.325  0.5488 -0.2397  0.3082
 6534TIP3    H141093   0.285   5.576  16.315  1.0519  0.8778  1.3911
 6534TIP3    H241094   0.404   5.526  16.236  0.2035  0.7979  0.1320
 6535TIP3   OH241095   0.502   1.956   4.529  0.0078  0.5340 -0.0613
 6535TIP3    H141096   0.510   2.031   4.588  1.1212  1.2272 -1.0383
 6535TIP3    H241097   0.412   1.958   4.499 -0.2910  0.7726  0.8221
 6536TIP3   OH241098   2.178   5.016   4.995 -0.1473  0.2999 -0.6057
 6536TIP3    H141099   2.245   5.051   5.053 -0.7630 -1.0638  1.0162
 6536TIP3    H241100   2.226   4.988   4.917  1.2685 -1.0239  0.6748
 6537TIP3   OH241101   5.401   0.504   1.955  0.4700 -0.2670 -0.4122
 6537TIP3    H141102   5.348   0.569   2.001 -0.7255 -2.1083  0.9811
 6537TIP3    H241103   5.337   0.440   1.922  1.7222 -2.4447  1.1252
 6538TIP3   OH241104   3.774   1.085   1.265 -0.0213 -0.0307  0.0992
 6538TIP3    H141105   3.710   1.132   1.318 -0.7183 -1.1427  0.2805
 6538TIP3    H241106   3.851   1.141   1.265 -1.0447  1.4570 -0.2954
 6539TIP3   OH241107   6.093   6.662  16.757 -0.4956 -0.1875 -0.8233
 6539TIP3    H141108   6.042   6.675  16.838  0.3836  1.1422 -0.4610
 6539TIP3    H241109   6.077   6.741  16.705 -0.0608 -0.4726 -1.3986
 6540TIP3   OH241110   1.678   4.619   3.351  0.2737  0.2539  0.3426
 6540TIP3    H141111   1.614   4.689   3.366  1.1332  1.0301  0.4823
 6540TIP3    H241112   1.734   4.621   3.429 -0.2293 -1.1997  0.7722
 6541TIP3   OH241113   3.783   3.703  11.848 -0.2642  0.2812 -1.0851
 6541TIP3    H141114   3.804   3.628  11.792 -1.1495 -0.1426 -0.8545
 6541TIP3    H241115   3.771   3.776  11.786 -2.1581 -0.3824 -1.5703
 6542TIP3   OH241116   2.788   3.733  11.820 -0.5379  0.5581  0.4093
 6542TIP3    H141117   2.800   3.825  11.796  2.5477  0.2179  0.1938
 6542TIP3    H241118   2.841   3.685  11.756  0.3097 -1.1144  2.2818
 6543TIP3   OH241119   2.662   6.048   2.338 -0.1072 -0.0679 -0.2103
 6543TIP3    H141120   2.675   6.135   2.376 -0.3253  0.4970 -1.3831
 6543TIP3    H241121   2.696   5.988   2.404 -0.9656  0.8341  1.1066
 6544TIP3   OH241122   4.553   2.987   3.230 -0.4806  0.3442 -0.2463
 6544TIP3    H141123   4.613   3.024   3.165  0.3968  2.0225  1.4361
 6544TIP3    H241124   4.466   3.005   3.195 -0.0925 -1.4998 -2.3858
 6545TIP3   OH241125   5.101   2.775  11.681  0.1224 -0.2268  0.3181
 6545TIP3    H141126   5.099   2.868  11.659  0.2948 -0.4207 -0.5485
 6545TIP3    H241127   5.085   2.730  11.598 -0.4584 -0.9695  0.8153
 6546TIP3   OH241128   2.437   2.988   4.470 -0.2114  0.3336  0.1946
 6546TIP3    H141129   2.384   3.066   4.454 -2.9188 -0.9360  2.1925
 6546TIP3    H241130   2.408   2.925   4.404  2.3898  1.0334 -1.8025
 6547TIP3   OH241131   2.802   1.229  14.767  0.1104  0.2717  0.0703
 6547TIP3    H141132   2.709   1.221  14.785 -0.0541  1.8397  0.0596
 6547TIP3    H241133   2.834   1.291  14.833  1.0951 -0.0624 -0.0739
 6548TIP3   OH241134   0.564   3.635  13.908 -0.0909 -0.3108  0.5663
 6548TIP3    H141135   0.660   3.634  13.919  0.0812 -1.2689 -0.7881
 6548TIP3    H241136   0.531   3.617  13.996  1.0230 -1.1249  0.8524
 6549TIP3   OH241137   1.542   3.270  14.269 -0.3623 -0.1960 -0.4029
 6549TIP3    H141138   1.474   3.337  14.265  2.3022  2.7310 -1.6001
 6549TIP3    H241139   1.568   3.258  14.177  2.3451  0.7778  0.1375
 6550TIP3   OH241140   4.071   1.336  12.024  0.5448 -0.1107  1.2060
 6550TIP3    H141141   4.137   1.324  11.955  0.9808 -0.0105  1.6031
 6550TIP3    H241142   3.994   1.369  11.978  1.1488  0.9240  0.8949
 6551TIP3   OH241143   2.042   6.822  10.952  1.3120  0.4767  0.6592
 6551TIP3    H141144   2.037   6.748  11.012  1.4201  0.1622  0.2854
 6551TIP3    H241145   2.057   6.782  10.866  2.9566  0.9824  0.6778
 6552TIP3   OH241146   3.724   0.450   4.776  0.7082  0.1124 -0.4287
 6552TIP3    H141147   3.772   0.367   4.776  0.7044  0.1081  0.0265
 6552TIP3    H241148   3.687   0.456   4.687  1.3318 -0.0081 -0.7007
 6553TIP3   OH241149   3.358   3.121   1.550  0.8968  0.1922  0.5257
 6553TIP3    H141150   3.312   3.108   1.467  0.6582 -0.2632  0.7269
 6553TIP3    H241151   3.440   3.074   1.540  0.3273 -0.9502  1.0015
 6554TIP3   OH241152   1.546   1.409   4.147  0.1669 -0.0079  1.0592
 6554TIP3    H141153   1.581   1.320   4.139  1.2267  0.4489  0.4775
 6554TIP3    H241154   1.574   1.437   4.234 -1.6009 -0.8126  1.9598
 6555TIP3   OH241155   6.166   2.170  12.088  0.3512  0.6216 -0.2428
 6555TIP3    H141156   6.079   2.162  12.048 -0.1314  2.2660  0.3699
 6555TIP3    H241157   6.149   2.165  12.182  0.7777  1.7698 -0.0810
 6556TIP3   OH241158   4.337   1.189  16.581  0.0035 -0.5376  0.2099
 6556TIP3    H141159   4.330   1.218  16.490 -0.1689  0.4322  0.5223
 6556TIP3    H241160   4.395   1.113  16.577 -0.6033 -0.9779 -0.8000
 6557TIP3   OH241161   2.657   1.842  13.105  0.0873  0.0558 -0.6526
 6557TIP3    H141162   2.648   1.877  13.016 -0.8339 -1.1268 -1.0522
 6557TIP3    H241163   2.582   1.878  13.152 -0.3525 -0.6341 -0.8164
 6558TIP3   OH241164   6.512   1.467   1.415 -0.0645 -0.0986  0.2458
 6558TIP3    H141165   6.574   1.538   1.435  3.0270 -2.2339 -0.9656
 6558TIP3    H241166   6.493   1.477   1.322 -0.9387  0.0387  0.4281
 6559TIP3   OH241167   3.434   3.408  13.020 -0.5807  0.2392 -0.3595
 6559TIP3    H141168   3.487   3.333  13.047  2.9885  2.1676 -1.3563
 6559TIP3    H241169   3.419   3.457  13.102  1.4637  0.9183 -0.3338
 6560TIP3   OH241170   3.731   5.251  13.984  0.0189  0.0086  0.0929
 6560TIP3    H141171   3.814   5.207  13.963 -0.4796 -0.0331 -1.9591
 6560TIP3    H241172   3.701   5.287  13.901 -0.4797  2.7707  1.3680
 6561TIP3   OH241173   2.575   6.754   0.536  0.7702  0.2234 -0.1535
 6561TIP3    H141174   2.668   6.778   0.533  1.0055 -0.4612 -4.4324
 6561TIP3    H241175   2.571   6.682   0.599  2.5700  1.8976  2.0604
 6562TIP3   OH241176   1.448   4.314   5.121  0.0743  0.1036  0.4425
 6562TIP3    H141177   1.415   4.273   5.042  1.4928 -1.2113  0.4798
 6562TIP3    H241178   1.437   4.408   5.107 -3.2087 -0.1797  0.3132
 6563TIP3   OH241179   6.161   6.264   2.453 -0.0892  0.3470  0.8312
 6563TIP3    H141180   6.187   6.263   2.361  0.2427  0.2402  0.9221
 6563TIP3    H241181   6.129   6.353   2.469 -0.7297  0.1887  0.4579
 6564TIP3   OH241182   6.390   3.876  12.330 -0.2103  0.4007  0.0195
 6564TIP3    H141183   6.389   3.828  12.413 -2.4887  2.7964  1.5293
 6564TIP3    H241184   6.425   3.962  12.352  0.0497  0.7851 -1.7370
 6565TIP3   OH241185   6.592   5.235  13.526  0.2689 -0.2563 -0.4314
 6565TIP3    H141186   6.640   5.180  13.464 -0.8212 -0.1669 -1.3985
 6565TIP3    H241187   6.585   5.320  13.482 -1.7751 -0.6017 -0.8856
 6566TIP3   OH241188   5.763   5.389  15.997  0.3999  0.1866 -0.4006
 6566TIP3    H141189   5.721   5.448  16.060  2.0796  0.2832  0.6924
 6566TIP3    H241190   5.694   5.327  15.973  0.1479 -1.2070  3.1908
 6567TIP3   OH241191   4.376   2.646   6.009 -0.0228  0.4873 -0.1941
 6567TIP3    H141192   4.343   2.575   5.954  1.1460 -0.3910  0.1991
 6567TIP3    H241193   4.340   2.726   5.970 -1.4278 -0.3098 -0.6011
 6568TIP3   OH241194   4.021   0.475   2.401  0.4462  0.1803  0.0009
 6568TIP3    H141195   4.107   0.432   2.403  0.1964 -0.3719 -0.6582
 6568TIP3    H241196   4.016   0.513   2.313  0.3678  0.9626  0.3348
 6569TIP3   OH241197   6.279   2.529  11.818 -0.3498 -0.1054  0.2853
 6569TIP3    H141198   6.340   2.602  11.825  0.2606 -0.5004 -0.7854
 6569TIP3    H241199   6.310   2.465  11.882  0.7815 -0.5907 -0.7205
 6570TIP3   OH241200   6.772   0.977  16.909  0.0267  0.1253 -0.5507
 6570TIP3    H141201   6.852   1.010  16.950 -0.9619  0.1223  1.5410
 6570TIP3    H241202   6.771   0.883  16.929 -1.9989  0.6233  2.4248
 6571TIP3   OH241203   2.554   5.941  11.281  0.2603  0.6696  0.0406
 6571TIP3    H141204   2.590   6.022  11.246  1.2953 -0.6081 -2.0221
 6571TIP3    H241205   2.471   5.930  11.235  0.8519 -0.1956 -0.8457
 6572TIP3   OH241206   6.187   1.265  14.208 -0.0785 -0.0590 -0.2554
 6572TIP3    H141207   6.157   1.355  14.220 -1.8371 -0.6633  0.1031
 6572TIP3    H241208   6.196   1.231  14.297  1.3058 -0.0517 -0.3609
 6573TIP3   OH241209   6.642   1.355   4.995  0.0651 -0.2578  0.0941
 6573TIP3    H141210   6.625   1.364   5.089 -0.0997  0.0246  0.0392
 6573TIP3    H241211   6.712   1.290   4.989  2.4485  2.1212  0.6044
 6574TIP3   OH241212   6.573   5.005   2.601 -0.4040 -0.5890  0.3434
 6574TIP3    H141213   6.560   4.990   2.695 -0.5596 -1.1113  0.2411
 6574TIP3    H241214   6.484   5.019   2.568 -0.2248  1.1497  0.5259
 6575TIP3   OH241215   0.351   2.382  11.517 -0.3720  0.4026 -0.0493
 6575TIP3    H141216   0.266   2.361  11.480 -1.3415  1.1661  1.6155
 6575TIP3    H241217   0.365   2.474  11.495 -0.7033  0.7055  0.9347
 6576TIP3   OH241218   6.686   5.764   0.249  0.0458 -0.6595 -0.4750
 6576TIP3    H141219   6.656   5.853   0.265  0.3702 -0.0340 -2.9825
 6576TIP3    H241220   6.606   5.712   0.246 -0.0729 -0.7883  2.3741
 6577TIP3   OH241221   6.818   5.020  12.537 -0.4742 -0.6097  0.4925
 6577TIP3    H141222   6.781   4.953  12.481  0.5601  0.3526 -1.4462
 6577TIP3    H241223   6.876   5.070  12.480  1.3307 -0.0863  2.6310
 6578TIP3   OH241224   4.790   0.526  16.371 -0.1681 -1.0478 -0.3162
 6578TIP3    H141225   4.862   0.513  16.310  0.5216  1.0886 -0.0459
 6578TIP3    H241226   4.829   0.514  16.458 -0.5110 -1.4355 -0.2133
 6579TIP3   OH241227   5.271   1.948   4.496 -0.4082  0.0954  0.5836
 6579TIP3    H141228   5.302   1.998   4.421 -2.0486 -0.8146 -0.7734
 6579TIP3    H241229   5.257   2.013   4.565 -1.1992  1.3224 -0.6931
 6580TIP3   OH241230   4.801   5.115   5.514 -0.0322  0.2142  0.7113
 6580TIP3    H141231   4.741   5.060   5.464  0.0302  0.9724 -0.2345
 6580TIP3    H241232   4.821   5.188   5.455 -0.8019  1.7220  2.2418
 6581TIP3   OH241233   4.751   5.296  16.245 -0.0634 -0.0008  0.5992
 6581TIP3    H141234   4.696   5.224  16.278  0.0670  0.3587  1.6490
 6581TIP3    H241235   4.704   5.329  16.169  0.8138 -2.4092 -1.0773
 6582TIP3   OH241236   4.621   3.864  10.920 -0.4610 -0.2495 -0.9245
 6582TIP3    H141237   4.595   3.895  11.007 -2.1683 -0.0218 -1.4787
 6582TIP3    H241238   4.707   3.901  10.906  0.5873 -1.6172  1.3263
 6583TIP3   OH241239   5.607   2.547   1.935  0.1137  0.5551  0.0209
 6583TIP3    H141240   5.536   2.488   1.960  0.8327  0.1929  1.2998
 6583TIP3    H241241   5.622   2.529   1.842  0.3416 -1.3339  0.3943
 6584TIP3   OH241242   1.078   3.159  11.827  0.6271  0.3710  0.0086
 6584TIP3    H141243   1.007   3.222  11.842 -1.1552 -1.1776 -1.4439
 6584TIP3    H241244   1.149   3.190  11.883 -0.9552  2.3625  1.0630
 6585TIP3   OH241245   4.619   3.869  15.987 -0.6703  0.0087 -0.2390
 6585TIP3    H141246   4.668   3.883  16.068 -0.4879 -0.4042 -0.2740
 6585TIP3    H241247   4.556   3.800  16.009 -0.5562 -0.1708 -0.4767
 6586TIP3   OH241248   5.351   2.113   0.187 -0.5996 -0.3604  0.4442
 6586TIP3    H141249   5.325   2.083   0.100  0.8830 -1.9875  0.4987
 6586TIP3    H241250   5.362   2.208   0.177  0.8593 -0.6742 -1.5279
 6587TIP3   OH241251   5.733   1.989  10.554  0.3382  0.5833  0.3249
 6587TIP3    H141252   5.719   2.053  10.485  0.6132  1.1069  0.7516
 6587TIP3    H241253   5.811   2.019  10.600  0.5233 -0.1045  0.4771
 6588TIP3   OH241254   3.326   3.112  16.218  0.1895  0.3130 -0.1425
 6588TIP3    H141255   3.292   3.196  16.249  2.9110  1.6644 -0.5335
 6588TIP3    H241256   3.371   3.074  16.294 -1.1675 -0.9517  0.0854
 6589TIP3   OH241257   3.525   2.506  12.967  0.4079 -0.4395 -0.5673
 6589TIP3    H141258   3.538   2.598  12.945 -0.3930 -0.1390  0.1585
 6589TIP3    H241259   3.494   2.465  12.886 -0.9839  0.3185 -0.4497
 6590TIP3   OH241260   5.815   1.446  14.657  0.0552 -0.1978 -0.0694
 6590TIP3    H141261   5.901   1.404  14.654 -0.3916 -1.1452 -0.0096
 6590TIP3    H241262   5.814   1.504  14.581  0.3430 -1.0049 -0.7084
 6591TIP3   OH241263   2.577   1.076   5.015 -0.3041 -0.4342  0.6772
 6591TIP3    H141264   2.559   1.168   4.995  1.9755  0.2366  1.3644
 6591TIP3    H241265   2.626   1.044   4.940  0.0616 -0.6946  1.0239
 6592TIP3   OH241266   3.129   1.649  14.335  0.6706 -1.1752 -0.5143
 6592TIP3    H141267   3.045   1.612  14.363 -0.5131 -0.7531 -3.1962
 6592TIP3    H241268   3.193   1.581  14.356 -0.4559 -1.9203  0.6822
 6593TIP3   OH241269   4.979   0.782   3.250 -0.1562  0.6255 -0.4868
 6593TIP3    H141270   5.062   0.818   3.282  1.3914 -2.0399 -1.1932
 6593TIP3    H241271   4.946   0.729   3.323 -2.6861  3.6020  0.7454
 6594TIP3   OH241272   0.748   3.723   4.787 -0.0746  0.2337  0.1486
 6594TIP3    H141273   0.735   3.745   4.694 -0.1835 -1.8874 -0.3854
 6594TIP3    H241274   0.676   3.767   4.832  0.4853  2.0296 -0.6274
 6595TIP3   OH241275   0.055   6.792  14.876  0.3071  0.5859 -0.0821
 6595TIP3    H141276   0.105   6.871  14.852  0.5945  0.7166  0.9184
 6595TIP3    H241277   0.105   6.720  14.838  0.2376  0.8553 -0.6952
 6596TIP3   OH241278   1.957   2.492   4.713 -0.1065  0.2856 -0.0967
 6596TIP3    H141279   1.923   2.422   4.658  0.0452 -0.5016  0.7733
 6596TIP3    H241280   1.998   2.554   4.653 -0.2785 -0.3574 -0.8832
 6597TIP3   OH241281   2.503   1.742   1.748 -0.2665 -0.8026 -0.0075
 6597TIP3    H141282   2.525   1.750   1.655 -0.9746 -0.5425 -0.1562
 6597TIP3    H241283   2.501   1.648   1.764 -1.5202 -0.8897 -0.5972
 6598TIP3   OH241284   5.136   6.171  16.836 -0.0517  0.1703 -0.0096
 6598TIP3    H141285   5.121   6.142  16.926  1.2902  0.2479  0.2631
 6598TIP3    H241286   5.217   6.126  16.810  0.2712  1.1437 -0.7241
 6599TIP3   OH241287   2.233   6.066  13.588 -0.1509  0.8276 -0.2986
 6599TIP3    H141288   2.319   6.082  13.547  0.1010  1.1355  0.3321
 6599TIP3    H241289   2.179   6.032  13.517  0.8165 -0.4701 -0.4547
 6600TIP3   OH241290   3.098   4.648  11.561  0.0210 -0.2044 -0.0676
 6600TIP3    H141291   3.080   4.693  11.644  0.9338  0.4664 -0.2105
 6600TIP3    H241292   3.024   4.671  11.505 -0.5310 -0.5396  0.5035
 6601TIP3   OH241293   6.784   0.726   6.265  0.2540 -0.0098  0.0948
 6601TIP3    H141294   6.835   0.687   6.337  1.8907  0.1834 -0.8979
 6601TIP3    H241295   6.704   0.674   6.262 -0.2712  0.5237  2.5881
 6602TIP3   OH241296   1.268   2.938  12.269  0.3433 -0.1202  0.0883
 6602TIP3    H141297   1.362   2.926  12.256  0.3622  0.1135  0.0089
 6602TIP3    H241298   1.239   2.856  12.311  1.2367  1.1760  3.6010
 6603TIP3   OH241299   3.943   4.805   1.754 -0.0055 -0.2575  0.0256
 6603TIP3    H141300   3.902   4.722   1.779  1.1871 -0.8314  0.1635
 6603TIP3    H241301   4.008   4.780   1.688 -1.2737  0.8919 -1.7321
 6604TIP3   OH241302   4.778   6.034   3.462 -0.5494 -0.5112 -0.4494
 6604TIP3    H141303   4.765   6.100   3.393 -3.7228  0.1194  0.5619
 6604TIP3    H241304   4.753   5.951   3.420  0.1760 -0.5597 -0.7943
 6605TIP3   OH241305   3.249   4.338   1.369  0.3546  0.1958 -0.2287
 6605TIP3    H141306   3.264   4.253   1.327  0.6230  1.2080 -2.3044
 6605TIP3    H241307   3.165   4.329   1.414  1.5645 -1.9428  1.7930
 6606TIP3   OH241308   0.419   4.970   2.235  0.0346 -0.0634 -0.4299
 6606TIP3    H141309   0.364   4.916   2.292  0.1804 -0.8318 -1.0055
 6606TIP3    H241310   0.500   4.980   2.284 -0.0192 -0.3081 -0.2857
 6607TIP3   OH241311   6.678   5.979   5.711  0.1827 -0.3354 -0.0756
 6607TIP3    H141312   6.722   6.061   5.688  0.3098 -0.7332 -1.3122
 6607TIP3    H241313   6.746   5.925   5.751  0.3591 -0.2470 -0.2567
 6608TIP3   OH241314   3.146   1.643  11.657 -0.5628 -0.0124  0.6126
 6608TIP3    H141315   3.173   1.568  11.709 -1.2515 -0.5516  0.2058
 6608TIP3    H241316   3.172   1.620  11.567  0.5936  0.8953  0.6789
 6609TIP3   OH241317   4.139   0.450   4.210 -0.1469 -0.1442  0.3648
 6609TIP3    H141318   4.063   0.446   4.269 -1.3697 -0.7289 -1.1692
 6609TIP3    H241319   4.156   0.358   4.187 -0.2794  0.1339 -0.8920
 6610TIP3   OH241320   4.267   6.075  14.356  0.3051 -0.1344 -0.4343
 6610TIP3    H141321   4.326   6.148  14.374 -0.4757 -0.2257  3.0734
 6610TIP3    H241322   4.224   6.100  14.274  1.4042  2.4438 -0.3443
 6611TIP3   OH241323   3.217   3.448  11.467 -0.3440 -0.6814  1.1494
 6611TIP3    H141324   3.148   3.387  11.439  0.8930 -1.2776 -0.8468
 6611TIP3    H241325   3.292   3.391  11.485 -0.1076  0.0257  2.4609
 6612TIP3   OH241326   0.627   0.494  15.164 -0.0247 -0.4812 -0.6472
 6612TIP3    H141327   0.701   0.434  15.171 -0.5625 -0.9924  2.2173
 6612TIP3    H241328   0.550   0.437  15.166 -0.5023  0.1601 -0.3087
 6613TIP3   OH241329   2.853   6.313  14.834  0.2195 -0.0606  0.5330
 6613TIP3    H141330   2.783   6.266  14.788 -0.7433  0.9675  0.8841
 6613TIP3    H241331   2.930   6.301  14.779  0.1447 -2.3823  0.8120
 6614TIP3   OH241332   1.246   4.047  12.155  0.5913 -0.2821  0.9461
 6614TIP3    H141333   1.272   3.969  12.203  1.0340  0.2356  1.5700
 6614TIP3    H241334   1.279   4.034  12.066  0.7224 -0.7648  1.0648
 6615TIP3   OH241335   0.221   5.223  14.721  0.2403 -0.1923  0.0235
 6615TIP3    H141336   0.284   5.268  14.777 -0.0664  0.3773 -0.0898
 6615TIP3    H241337   0.232   5.263  14.635 -0.9695  0.6131  0.2294
 6616TIP3   OH241338   1.064   5.223   4.058 -0.1284  0.5164 -0.0799
 6616TIP3    H141339   1.148   5.257   4.028 -0.1324  1.4623  0.9343
 6616TIP3    H241340   1.087   5.150   4.116 -0.0586  0.1185 -0.5938
 6617TIP3   OH241341   4.408   2.682   6.489 -0.7523 -0.4315 -0.3424
 6617TIP3    H141342   4.432   2.628   6.414  0.4221 -1.7052  0.8947
 6617TIP3    H241343   4.321   2.651   6.514 -0.5627 -0.9590 -0.3271
 6618TIP3   OH241344   2.032   2.882   2.829  0.3671  0.4136 -0.6080
 6618TIP3    H141345   2.020   2.832   2.910  0.4632 -1.0470 -1.4615
 6618TIP3    H241346   2.023   2.973   2.856  0.6511 -0.0188  1.0933
 6619TIP3   OH241347   3.828   4.291   2.569  0.1078  0.3571  0.6042
 6619TIP3    H141348   3.785   4.237   2.636 -0.6258 -1.0179 -0.9047
 6619TIP3    H241349   3.901   4.237   2.539  1.7675  1.8496  1.7245
 6620TIP3   OH241350   4.697   1.578   5.851 -0.1985 -0.3810  0.0520
 6620TIP3    H141351   4.764   1.643   5.872 -0.1483 -0.5713  0.4895
 6620TIP3    H241352   4.688   1.583   5.756 -0.3623  0.4294  0.1034
 6621TIP3   OH241353   5.244   0.475   0.394  0.1583  0.2235 -0.3122
 6621TIP3    H141354   5.288   0.523   0.324 -0.4313 -0.6809 -1.3387
 6621TIP3    H241355   5.182   0.418   0.348 -0.0615 -0.5788  0.9409
 6622TIP3   OH241356   5.599   6.019   3.607  0.2920  0.1514 -0.7545
 6622TIP3    H141357   5.626   6.101   3.565 -0.0224  0.1710 -0.9171
 6622TIP3    H241358   5.549   6.047   3.683  0.6862  0.1137 -0.4760
 6623TIP3   OH241359   4.975   1.192   6.149 -0.1737 -0.3150 -0.3704
 6623TIP3    H141360   5.065   1.172   6.122  0.0810 -0.5640  0.5867
 6623TIP3    H241361   4.986   1.249   6.226 -0.8709  1.3007 -1.4262
 6624TIP3   OH241362   5.748   1.167  12.394 -0.0935 -0.0624  0.3920
 6624TIP3    H141363   5.676   1.119  12.355 -0.7148 -0.4832  1.9853
 6624TIP3    H241364   5.821   1.155  12.333 -0.8553 -1.1532 -0.3382
 6625TIP3   OH241365   0.189   1.511  14.346  0.8015  0.3305  1.0605
 6625TIP3    H141366   0.266   1.464  14.316 -0.1302 -0.5308 -0.0536
 6625TIP3    H241367   0.200   1.517  14.441  2.3476  0.4623  0.8950
 6626TIP3   OH241368   0.550   5.854  15.925 -0.1738  0.0293  0.5243
 6626TIP3    H141369   0.533   5.776  15.872  0.0539 -0.5645  1.3075
 6626TIP3    H241370   0.501   5.923  15.881  0.4697 -0.3150 -0.7976
 6627TIP3   OH241371   1.232   3.337  15.355  0.9391 -0.3711  0.7081
 6627TIP3    H141372   1.220   3.259  15.409  0.2638 -0.1318  0.9165
 6627TIP3    H241373   1.212   3.410  15.414 -0.3754 -0.1340 -0.0064
 6628TIP3   OH241374   5.377   4.200   1.215 -0.2015  0.9524 -0.5004
 6628TIP3    H141375   5.413   4.289   1.218 -0.3771  1.0130 -0.2009
 6628TIP3    H241376   5.340   4.193   1.127  0.5751  0.8759 -0.8338
 6629TIP3   OH241377   4.489   6.635   3.954  0.1591  0.2553 -0.4374
 6629TIP3    H141378   4.558   6.580   3.920 -0.3922 -0.7713  0.0644
 6629TIP3    H241379   4.463   6.593   4.036 -1.1103  0.5664 -0.6600
 6630TIP3   OH241380   1.585   2.713  14.238  0.0769  0.7279  0.2569
 6630TIP3    H141381   1.580   2.802  14.272 -0.1286  0.7918  0.0586
 6630TIP3    H241382   1.517   2.709  14.171  0.2402  0.4913  0.1063
 6631TIP3   OH241383   0.307   1.964  16.317  0.2979 -0.3367 -0.4996
 6631TIP3    H141384   0.369   1.892  16.318  0.1728 -0.4418  0.0168
 6631TIP3    H241385   0.362   2.043  16.318  0.4406 -0.4189  1.2507
 6632TIP3   OH241386   4.577   2.950   5.586  0.1429 -0.0154 -0.4122
 6632TIP3    H141387   4.645   2.932   5.521 -0.4001  0.6877 -1.1900
 6632TIP3    H241388   4.573   3.045   5.593  0.9650 -0.0670  1.5090
 6633TIP3   OH241389   3.538   3.118   0.828  0.1421 -0.9996  0.5554
 6633TIP3    H141390   3.557   3.211   0.833 -0.3953 -0.8541  0.0254
 6633TIP3    H241391   3.614   3.080   0.784 -0.5166 -0.5044 -1.0734
 6634TIP3   OH241392   1.170   0.537  10.621  0.5039  0.5740 -0.1635
 6634TIP3    H141393   1.122   0.534  10.704  0.6685  1.3398 -0.0393
 6634TIP3    H241394   1.134   0.464  10.571  0.6663 -0.1352  0.7200
 6635TIP3   OH241395   2.165   1.350   3.932  0.3267  0.0226  0.0731
 6635TIP3    H141396   2.100   1.388   3.872  0.9793  0.5480 -0.3061
 6635TIP3    H241397   2.113   1.293   3.989 -0.6352  1.2695  0.4850
 6636TIP3   OH241398   2.965   3.099   5.632 -0.2532  0.2421  0.4517
 6636TIP3    H141399   2.961   3.039   5.706 -1.0357 -0.2995 -0.0134
 6636TIP3    H241400   3.018   3.172   5.663  0.7587 -0.7025  1.0173
 6637TIP3   OH241401   4.502   3.767  15.545 -0.7647 -0.0696  0.1577
 6637TIP3    H141402   4.513   3.854  15.583  1.2936  0.2600 -1.0380
 6637TIP3    H241403   4.488   3.709  15.620 -1.2510  1.1325  1.0294
 6638TIP3   OH241404   1.872   6.469  17.168  0.3941 -0.6605 -0.2588
 6638TIP3    H141405   1.782   6.495  17.151  0.9336  0.5535 -1.4495
 6638TIP3    H241406   1.915   6.471  17.082  2.4107  2.3824  0.6340
 6639TIP3   OH241407   6.449   0.145   5.656  0.1335 -0.0341 -0.7697
 6639TIP3    H141408   6.464   0.064   5.705  0.0767  0.1565 -0.4333
 6639TIP3    H241409   6.409   0.205   5.720  1.8397  0.8805 -0.5003
 6640TIP3   OH241410   1.762   0.307   0.735  0.0758 -0.6875 -0.1481
 6640TIP3    H141411   1.705   0.233   0.711 -0.0990  0.1702 -2.7006
 6640TIP3    H241412   1.816   0.321   0.657 -0.0771  2.0205  0.1564
 6641TIP3   OH241413   4.928   1.742  13.613 -0.3754 -0.4063 -0.2513
 6641TIP3    H141414   4.889   1.663  13.574 -3.1656 -0.5953  2.5284
 6641TIP3    H241415   4.855   1.803  13.621  1.0147  1.2142  0.7419
 6642TIP3   OH241416   4.505   6.519   4.537  0.0794  0.1900  0.0718
 6642TIP3    H141417   4.596   6.518   4.569 -0.4937  0.6910  1.8457
 6642TIP3    H241418   4.461   6.453   4.591 -0.9448  1.0880  0.3658
 6643TIP3   OH241419   6.525   6.494  10.820 -0.4951  0.1002  0.2005
 6643TIP3    H141420   6.620   6.483  10.824 -0.7830 -3.0156  1.2703
 6643TIP3    H241421   6.494   6.414  10.778 -2.6109  1.6112 -1.2774
 6644TIP3   OH241422   2.164   0.805   5.102 -0.0870 -0.7272  0.1751
 6644TIP3    H141423   2.126   0.751   5.033  2.3643 -1.1407 -0.9393
 6644TIP3    H241424   2.229   0.749   5.144  2.7819  1.3084 -1.2371
 6645TIP3   OH241425   1.333   2.455   0.896  0.3076  0.1924 -0.8788
 6645TIP3    H141426   1.386   2.518   0.848  3.3639 -1.7817 -0.4201
 6645TIP3    H241427   1.331   2.377   0.840  1.4734 -1.1560  0.8267
 6646TIP3   OH241428   4.648   5.573   1.501 -0.7299  0.3500 -0.1591
 6646TIP3    H141429   4.606   5.559   1.417 -1.6931  0.4629  0.2874
 6646TIP3    H241430   4.727   5.519   1.498 -1.3980 -0.6230 -0.6540
 6647TIP3   OH241431   2.705   1.039   3.211 -0.6108  0.0511 -0.1506
 6647TIP3    H141432   2.712   1.133   3.231  1.4249  0.5249 -2.4854
 6647TIP3    H241433   2.782   1.000   3.251 -0.0465 -0.1107 -1.3339
 6648TIP3   OH241434   1.156   0.852   5.312  0.1616  0.2688 -0.0086
 6648TIP3    H141435   1.179   0.912   5.240 -1.5374 -0.2645 -1.0654
 6648TIP3    H241436   1.185   0.766   5.282  0.3803  0.1911  0.4164
 6649TIP3   OH241437   0.253   2.010  13.557 -0.2671 -0.5982 -0.5183
 6649TIP3    H141438   0.341   1.996  13.524 -0.6007 -2.0937 -0.8444
 6649TIP3    H241439   0.242   1.943  13.625 -1.1374 -0.4072 -0.4601
 6650TIP3   OH241440   6.346   3.878  13.665 -0.0918  0.6110  0.0817
 6650TIP3    H141441   6.368   3.919  13.749  0.1598 -0.3975  0.5202
 6650TIP3    H241442   6.311   3.792  13.689 -0.8319  0.6529 -0.8081
 6651TIP3   OH241443   5.832   3.033   3.233  0.4474 -0.3806  0.1044
 6651TIP3    H141444   5.904   3.052   3.293 -0.7999 -0.6546  1.7571
 6651TIP3    H241445   5.846   2.942   3.206  2.5334  0.5367 -2.2878
 6652TIP3   OH241446   2.074   0.485  12.433  0.3253 -0.5652 -0.5614
 6652TIP3    H141447   1.990   0.468  12.393 -1.6251  3.2724  1.3732
 6652TIP3    H241448   2.058   0.478  12.527  2.2785 -0.0353 -0.1325
 6653TIP3   OH241449   4.089   0.752   5.698 -0.4198  0.6558 -0.2272
 6653TIP3    H141450   4.134   0.815   5.642 -0.1954  0.5671 -0.1475
 6653TIP3    H241451   4.140   0.750   5.778 -1.4056  1.6733  0.4659
 6654TIP3   OH241452   3.338   6.042  15.741 -0.1864  0.2523  0.0652
 6654TIP3    H141453   3.360   5.950  15.760 -2.4719 -0.1317  1.2132
 6654TIP3    H241454   3.286   6.038  15.661  1.8367  0.8964 -1.3556
 6655TIP3   OH241455   4.836   2.744   3.057  0.0256 -0.6170  1.2946
 6655TIP3    H141456   4.753   2.720   3.099 -0.5887  0.1650  0.5784
 6655TIP3    H241457   4.817   2.738   2.963  0.7973 -0.4779  1.1253
 6656TIP3   OH241458   2.403   1.743  11.713  0.3588  0.3353 -0.0935
 6656TIP3    H141459   2.441   1.823  11.676  3.2020 -0.9461 -0.1894
 6656TIP3    H241460   2.329   1.774  11.765  0.3898  2.8478 -1.3763
 6657TIP3   OH241461   4.430   4.933   3.713  0.3222  0.5974 -0.4979
 6657TIP3    H141462   4.426   4.856   3.770 -0.7470  1.2837  0.3940
 6657TIP3    H241463   4.401   4.902   3.628 -1.0372  0.2112  0.0947
 6658TIP3   OH241464   0.649   6.039  14.298  0.0819 -0.3370 -0.4290
 6658TIP3    H141465   0.736   6.064  14.266 -0.2293  0.2006 -0.8772
 6658TIP3    H241466   0.613   5.982  14.230 -0.5143  0.6716 -0.9803
 6659TIP3   OH241467   5.054   4.273   3.655  0.3709  0.0514 -0.5062
 6659TIP3    H141468   5.011   4.339   3.600  2.4767  2.6605  0.7524
 6659TIP3    H241469   5.147   4.282   3.635  1.0103 -0.2430  1.9944
 6660TIP3   OH241470   3.778   5.553   1.944  0.3704  0.1208 -0.0492
 6660TIP3    H141471   3.828   5.472   1.935  1.3915  0.6586  0.5032
 6660TIP3    H241472   3.753   5.555   2.036 -1.1361 -0.3822 -0.4242
 6661TIP3   OH241473   4.227   2.735   3.311 -0.0133 -0.1056 -0.9526
 6661TIP3    H141474   4.301   2.694   3.355 -0.1909  0.5607  0.0022
 6661TIP3    H241475   4.152   2.715   3.367  0.0110  2.1002 -0.0387
 6662TIP3   OH241476   6.353   5.919   3.878 -0.5270  0.1064 -0.1163
 6662TIP3    H141477   6.436   5.878   3.906  0.3554  1.6905 -0.2805
 6662TIP3    H241478   6.305   5.932   3.960 -1.8680 -3.2499 -0.2379
 6663TIP3   OH241479   6.476   1.142   5.131  1.0866  0.0981  0.3906
 6663TIP3    H141480   6.509   1.194   5.057  1.3933 -1.4015 -0.5871
 6663TIP3    H241481   6.486   1.198   5.207  3.9509  0.5145 -0.1872
 6664TIP3   OH241482   6.724   3.392   6.420 -0.4920  0.1869  0.0431
 6664TIP3    H141483   6.769   3.321   6.465 -0.7879 -0.9288 -1.3239
 6664TIP3    H241484   6.658   3.424   6.482 -0.8615 -1.2568  0.4184
 6665TIP3   OH241485   5.579   3.533  11.134 -0.5832  0.3912 -0.0356
 6665TIP3    H141486   5.675   3.540  11.127 -0.5125 -0.7236 -0.4563
 6665TIP3    H241487   5.565   3.470  11.205 -1.0507  1.5396  0.9203
 6666TIP3   OH241488   1.018   1.770  15.907  0.1878 -0.3530  0.2449
 6666TIP3    H141489   0.971   1.710  15.964  0.1175 -0.7396 -0.2199
 6666TIP3    H241490   0.962   1.780  15.830  0.1337  0.4121  0.3716
 6667TIP3   OH241491   4.200   4.638   4.800  0.0919  0.8805 -0.1600
 6667TIP3    H141492   4.158   4.684   4.872  1.9697 -1.1175  2.4228
 6667TIP3    H241493   4.292   4.665   4.805  0.7353 -1.1691 -0.1610
 6668TIP3   OH241494   5.437   3.262   0.221 -0.5891 -0.0726 -0.2570
 6668TIP3    H141495   5.467   3.204   0.291 -1.3215 -1.8868 -1.3834
 6668TIP3    H241496   5.502   3.253   0.152 -1.0049  0.0163 -0.6667
 6669TIP3   OH241497   4.096   4.531   5.526  0.0232  0.6805 -0.1624
 6669TIP3    H141498   4.127   4.571   5.607  1.5466 -0.9296  0.1027
 6669TIP3    H241499   4.004   4.509   5.544  0.6140 -0.6211  1.5438
 6670TIP3   OH241500   2.235   3.402   4.765 -0.6768  0.2678  0.4512
 6670TIP3    H141501   2.219   3.390   4.859 -1.0976  0.0039  0.3513
 6670TIP3    H241502   2.168   3.348   4.723  0.4302 -0.8025 -0.0010
 6671TIP3   OH241503   5.009   4.138   4.771  0.0967  0.4624 -0.3997
 6671TIP3    H141504   4.970   4.185   4.697  0.4895 -0.4709 -1.2123
 6671TIP3    H241505   4.990   4.046   4.753 -0.3687  0.2631  0.9990
 6672TIP3   OH241506   3.009   4.679  11.283 -0.7687  0.1436  0.0202
 6672TIP3    H141507   2.926   4.692  11.238 -1.3330 -1.1013  0.6635
 6672TIP3    H241508   3.075   4.697  11.216 -1.5770 -0.5777 -1.0116
 6673TIP3   OH241509   4.439   3.693   1.979  0.0598 -0.0527 -0.0962
 6673TIP3    H141510   4.358   3.673   1.933  1.2423 -0.6062 -2.0158
 6673TIP3    H241511   4.410   3.741   2.057 -2.0039  1.2423 -1.5519
 6674TIP3   OH241512   0.285   5.461   5.650 -0.8368  0.5710 -0.1625
 6674TIP3    H141513   0.256   5.515   5.724 -2.9600 -0.4418 -0.1836
 6674TIP3    H241514   0.261   5.512   5.573  0.1361  1.0211 -0.1773
 6675TIP3   OH241515   3.145   2.391   5.872  0.3112  0.0699 -0.3866
 6675TIP3    H141516   3.197   2.457   5.826  1.4715 -0.7542 -0.2911
 6675TIP3    H241517   3.070   2.374   5.815  1.4527 -0.5562 -1.7423
 6676TIP3   OH241518   0.439   2.623  14.228 -0.1291  0.4888  0.0964
 6676TIP3    H141519   0.357   2.591  14.190 -0.8042  0.0344  1.8126
 6676TIP3    H241520   0.492   2.544  14.239 -0.0777  0.5624  0.3797
 6677TIP3   OH241521   3.181   6.310   5.084  0.6073 -0.0318 -0.1109
 6677TIP3    H141522   3.169   6.404   5.075  2.1183  0.2474  0.5213
 6677TIP3    H241523   3.181   6.294   5.178  0.7120 -0.6124 -0.2025
 6678TIP3   OH241524   6.481   4.102  16.558  0.2784  0.3491  0.3987
 6678TIP3    H141525   6.486   4.164  16.485  0.1310 -0.9459 -0.7514
 6678TIP3    H241526   6.409   4.134  16.611  0.5005  1.4203  0.0896
 6679TIP3   OH241527   5.202   6.085  13.515 -0.1254  0.0444  0.2636
 6679TIP3    H141528   5.226   6.159  13.459  0.7160 -1.3002 -1.2291
 6679TIP3    H241529   5.187   6.012  13.455 -0.9312 -1.0236  1.6814
 6680TIP3   OH241530   6.157   1.914   2.752  0.2498 -0.3744 -0.0239
 6680TIP3    H141531   6.079   1.896   2.700  0.6089  0.7393 -0.9905
 6680TIP3    H241532   6.166   1.838   2.808 -2.1363 -0.0705  0.8854
 6681TIP3   OH241533   0.757   6.600   3.935 -0.1572 -0.4571  0.1652
 6681TIP3    H141534   0.846   6.629   3.915  0.5145 -2.4638  0.0138
 6681TIP3    H241535   0.707   6.681   3.944  1.8872  0.7755  1.3318
 6682TIP3   OH241536   4.156   5.469  15.877 -0.1227 -0.5029  0.3801
 6682TIP3    H141537   4.216   5.421  15.820  1.8764  1.3732  0.7694
 6682TIP3    H241538   4.207   5.488  15.956 -0.5004  2.8271 -0.0262
 6683TIP3   OH241539   5.156   5.590  13.183  0.3632  0.2168 -0.1184
 6683TIP3    H141540   5.193   5.514  13.138  0.7633 -0.5170  1.3680
 6683TIP3    H241541   5.074   5.607  13.138  0.6205 -0.6490 -0.9476
 6684TIP3   OH241542   1.520   0.975   0.785  0.0242 -0.0834  0.3207
 6684TIP3    H141543   1.566   0.966   0.702 -0.3619  1.6419 -0.1112
 6684TIP3    H241544   1.589   0.994   0.849  0.1028  0.9437 -0.0477
 6685TIP3   OH241545   0.258   6.697  11.477 -0.0332  0.2362  0.3087
 6685TIP3    H141546   0.211   6.677  11.397  0.0335 -0.5913  0.4746
 6685TIP3    H241547   0.264   6.614  11.524  1.0412  0.4446  0.5790
 6686TIP3   OH241548   4.330   5.470   4.244 -0.5145  0.0455 -0.2418
 6686TIP3    H141549   4.336   5.419   4.163 -2.5724 -0.2399 -0.2706
 6686TIP3    H241550   4.419   5.504   4.258 -0.3154  0.9988 -3.1904
 6687TIP3   OH241551   1.734   4.890  11.453 -0.0838  0.3288  0.1678
 6687TIP3    H141552   1.718   4.892  11.358  0.2899  1.3307  0.1177
 6687TIP3    H241553   1.829   4.884  11.460 -0.1872 -1.4194  0.4883
 6688TIP3   OH241554   3.935   5.114   1.795 -0.3061 -0.4610 -0.0372
 6688TIP3    H141555   3.948   5.020   1.806 -0.3577 -0.4449  0.1687
 6688TIP3    H241556   4.020   5.148   1.770 -0.3332 -0.5919 -0.3073
 6689TIP3   OH241557   1.478   2.806  15.340  0.2798  0.5351 -0.2226
 6689TIP3    H141558   1.516   2.894  15.334  0.2399  0.6531  1.0580
 6689TIP3    H241559   1.394   2.819  15.384  0.5455 -0.2125  0.5326
 6690TIP3   OH241560   4.316   1.327  14.941  0.3400 -0.3302 -0.0961
 6690TIP3    H141561   4.339   1.241  14.977 -0.2035 -0.4831 -0.1015
 6690TIP3    H241562   4.350   1.326  14.852  0.3059 -0.5576 -0.1081
 6691TIP3   OH241563   1.724   6.511   2.419  0.3291  0.2591  0.4264
 6691TIP3    H141564   1.758   6.451   2.352  0.4955  1.0440 -0.2108
 6691TIP3    H241565   1.685   6.454   2.485  0.9737 -0.5761  0.1107
 6692TIP3   OH241566   5.193   2.150   1.855 -0.1514  0.7409  0.5775
 6692TIP3    H141567   5.116   2.109   1.894 -0.1537  0.2125  0.0413
 6692TIP3    H241568   5.197   2.113   1.767  1.6916 -0.5535  1.1600
 6693TIP3   OH241569   2.582   5.653  14.867 -0.2171  0.3522  0.1334
 6693TIP3    H141570   2.667   5.623  14.899  0.4539  1.8637 -0.1455
 6693TIP3    H241571   2.537   5.573  14.841  1.5959 -0.4145 -0.8760
 6694TIP3   OH241572   6.319   2.662   0.885  0.2200  0.4746 -0.0111
 6694TIP3    H141573   6.390   2.637   0.826 -0.1121  2.7439 -1.4944
 6694TIP3    H241574   6.350   2.742   0.928 -1.4732  1.6745 -0.8872
 6695TIP3   OH241575   0.934   6.451  11.771  0.1101 -0.2849 -0.2190
 6695TIP3    H141576   0.858   6.496  11.808  0.7355  1.5150 -1.0126
 6695TIP3    H241577   0.973   6.515  11.712  2.4608 -1.0247  0.4288
 6696TIP3   OH241578   0.969   0.623   3.826 -0.4829 -0.7801 -0.1815
 6696TIP3    H141579   0.963   0.552   3.890 -0.4312  0.2027  0.9460
 6696TIP3    H241580   0.937   0.700   3.872 -0.9557 -0.1334 -1.5191
 6697TIP3   OH241581   0.467   0.879   0.118 -0.3452  0.2985  0.1753
 6697TIP3    H141582   0.406   0.910   0.051 -1.5424 -1.7300  0.2429
 6697TIP3    H241583   0.518   0.956   0.142 -2.2289  1.8491 -0.5868
 6698TIP3   OH241584   0.104   4.010  12.738  0.0546 -0.0284 -0.2054
 6698TIP3    H141585   0.049   4.032  12.663  0.5083  1.6905 -0.0701
 6698TIP3    H241586   0.177   4.072  12.734  0.5083 -0.4208  1.2035
 6699TIP3   OH241587   4.628   5.089   5.941 -0.6269  0.0304  0.2275
 6699TIP3    H141588   4.634   5.000   5.976 -1.1070 -0.1226 -0.0720
 6699TIP3    H241589   4.643   5.145   6.017 -0.0608 -0.3036  0.3696
 6700TIP3   OH241590   0.341   4.061  16.917  0.0250 -0.2048  0.2315
 6700TIP3    H141591   0.432   4.038  16.936  0.1144 -0.7875 -0.8400
 6700TIP3    H241592   0.342   4.093  16.827 -0.4621  2.0481  0.9536
 6701TIP3   OH241593   5.483   3.329   3.423 -0.3832  0.4746 -0.0008
 6701TIP3    H141594   5.542   3.361   3.355  0.5104 -0.9529  0.0618
 6701TIP3    H241595   5.395   3.350   3.391  0.1019  1.5196 -0.6809
 6702TIP3   OH241596   1.925   4.477  16.529  0.1646  0.8762 -0.0850
 6702TIP3    H141597   1.887   4.409  16.473 -0.0748  1.3762 -0.5355
 6702TIP3    H241598   1.958   4.429  16.605 -0.7618  0.3579  0.0013
 6703TIP3   OH241599   1.661   6.516   3.965 -0.5394  0.0211  0.6917
 6703TIP3    H141600   1.704   6.499   4.048  0.3081  2.9952  0.9915
 6703TIP3    H241601   1.644   6.610   3.966 -2.4942 -0.2196 -1.5962
 6704TIP3   OH241602   2.920   0.203  12.361  0.6179 -0.3380  0.5330
 6704TIP3    H141603   2.831   0.194  12.395  0.0810 -1.0057 -0.9729
 6704TIP3    H241604   2.967   0.250  12.430 -1.0460  0.5997  1.0937
 6705TIP3   OH241605   2.986   1.124  11.826 -0.6946 -0.0480 -0.4667
 6705TIP3    H141606   3.068   1.152  11.865  0.5419  0.3748 -3.1599
 6705TIP3    H241607   2.924   1.194  11.846 -0.2865 -0.1121  1.1263
 6706TIP3   OH241608   6.631   5.634   5.016 -0.3541 -1.1900 -0.4528
 6706TIP3    H141609   6.544   5.593   5.011 -1.4608  0.8447  0.6307
 6706TIP3    H241610   6.615   5.719   5.058  2.4963 -1.6798  1.9896
 6707TIP3   OH241611   2.109   2.261   0.440 -0.5039 -0.1063  0.0556
 6707TIP3    H141612   2.028   2.270   0.491 -0.2631  1.4074  0.2353
 6707TIP3    H241613   2.079   2.244   0.351 -1.3641  4.4601 -0.8187
 6708TIP3   OH241614   2.021   1.200  12.838  0.2827  0.2443 -0.3451
 6708TIP3    H141615   1.966   1.192  12.760  1.2612  2.0237 -1.2985
 6708TIP3    H241616   1.999   1.285  12.875  1.6749  0.5857 -0.2187
 6709TIP3   OH241617   3.229   2.877   5.451  0.0283  0.2599 -0.0076
 6709TIP3    H141618   3.220   2.840   5.363  0.6725  1.2552 -0.5100
 6709TIP3    H241619   3.186   2.814   5.508 -0.1599 -0.5380 -1.0065
 6710TIP3   OH241620   0.811   2.862  15.387 -0.3456  0.1124  0.2189
 6710TIP3    H141621   0.822   2.922  15.313 -1.7946  0.3795  0.1920
 6710TIP3    H241622   0.732   2.893  15.431 -0.7239 -1.3554  0.6059
 6711TIP3   OH241623   3.051   4.390  12.747 -0.2093 -0.5996 -0.1496
 6711TIP3    H141624   3.094   4.370  12.831 -1.3368  1.4749  1.0150
 6711TIP3    H241625   2.958   4.393  12.768 -0.5440 -0.4489 -1.5848
 6712TIP3   OH241626   1.645   3.938  16.828  0.2254  0.4428  0.7125
 6712TIP3    H141627   1.650   4.002  16.899 -1.0670  0.9454  0.3815
 6712TIP3    H241628   1.578   3.973  16.769  1.8051  0.4391 -1.1695
 6713TIP3   OH241629   3.821   3.567   0.499  0.1503  0.7140  0.2071
 6713TIP3    H141630   3.871   3.588   0.420  0.4953  0.3720  0.3332
 6713TIP3    H241631   3.846   3.635   0.562  2.6970 -1.0474  1.2415
 6714TIP3   OH241632   2.604   0.179  14.287 -0.4905 -0.1401 -0.0675
 6714TIP3    H141633   2.623   0.213  14.375 -1.6653  0.2403  0.0621
 6714TIP3    H241634   2.631   0.249  14.228  0.1440 -0.3272 -0.0076
 6715TIP3   OH241635   1.320   4.928  11.469 -0.1070 -0.4809  0.2985
 6715TIP3    H141636   1.365   4.886  11.395 -0.7901 -0.9130  0.1161
 6715TIP3    H241637   1.385   4.988  11.505  0.1036  0.0593 -0.9193
 6716TIP3   OH241638   1.318   2.022  16.660  0.1420 -0.1838 -0.3261
 6716TIP3    H141639   1.355   1.952  16.607  0.0077 -0.3724 -0.1713
 6716TIP3    H241640   1.388   2.046  16.721  0.7372  0.8840 -1.3985
 6717TIP3   OH241641   1.747   2.290  17.200  0.5000 -0.3267  0.0083
 6717TIP3    H141642   1.695   2.301  17.279  0.7252 -0.6414  0.2010
 6717TIP3    H241643   1.739   2.374  17.154 -0.8913 -0.6571 -0.4007
 6718TIP3   OH241644   6.781   2.901  12.223  0.1449  0.1156  0.2336
 6718TIP3    H141645   6.760   2.920  12.314  1.5985  1.7872  0.2646
 6718TIP3    H241646   6.777   2.986  12.179  1.7994 -0.2693 -0.7441
 6719TIP3   OH241647   3.059   0.661   0.110  0.2351  0.6140 -0.1134
 6719TIP3    H141648   3.151   0.679   0.130  0.5082 -0.2226 -0.5651
 6719TIP3    H241649   3.045   0.571   0.140 -0.6189  0.9553  0.5429
 6720TIP3   OH241650   2.940   2.964  15.972 -0.3473  0.1845  0.0843
 6720TIP3    H141651   3.033   2.950  15.957 -0.1861  2.6113 -1.7255
 6720TIP3    H241652   2.897   2.925  15.896 -0.7426 -0.1129  0.4573
 6721TIP3   OH241653   5.994   6.672   1.956  0.0628 -0.3945 -0.0056
 6721TIP3    H141654   5.972   6.728   2.030 -0.3329 -0.0405 -0.3809
 6721TIP3    H241655   5.938   6.594   1.966  1.8809 -1.5828  1.4962
 6722TIP3   OH241656   2.541   1.635  15.812 -0.3147 -0.0261 -0.2392
 6722TIP3    H141657   2.636   1.629  15.799 -0.4017 -0.8140 -0.5575
 6722TIP3    H241658   2.519   1.723  15.782  0.2626  0.0267 -0.5260
 6723TIP3   OH241659   5.238   4.074   6.020 -0.0782 -0.0522  0.0722
 6723TIP3    H141660   5.216   4.157   6.062  2.3017  0.7948 -0.1553
 6723TIP3    H241661   5.306   4.097   5.956 -1.6157 -1.7156 -2.3151
 6724TIP3   OH241662   1.256   0.053   4.386 -0.1551 -0.2779  0.2654
 6724TIP3    H141663   1.196   0.120   4.419 -2.1838 -2.5174  1.4556
 6724TIP3    H241664   1.330   0.055   4.448  0.2228  1.3176 -0.1816
 6725TIP3   OH241665   1.297   2.089  13.795  0.6049 -0.2578  0.0040
 6725TIP3    H141666   1.286   2.012  13.851  0.6602 -0.7592 -0.6628
 6725TIP3    H241667   1.207   2.116  13.775  0.5782  0.2569  0.7707
 6726TIP3   OH241668   6.044   4.418   1.711  0.7252 -0.1728  0.1788
 6726TIP3    H141669   6.075   4.328   1.699 -1.2152 -1.0119  0.9809
 6726TIP3    H241670   5.970   4.410   1.772  0.7791  2.0369  0.6244
 6727TIP3   OH241671   5.819   0.657   1.716 -0.1672 -0.4885  0.2472
 6727TIP3    H141672   5.859   0.575   1.688 -2.3141 -0.7373 -2.4800
 6727TIP3    H241673   5.761   0.631   1.788  2.2058 -0.5693  2.2570
 6728TIP3   OH241674   4.589   3.517  13.595  0.6229 -0.0077 -0.0003
 6728TIP3    H141675   4.577   3.611  13.611  1.0173 -0.0200  0.3950
 6728TIP3    H241676   4.682   3.508  13.577  0.3470 -0.1321 -1.4459
 6729TIP3   OH241677   6.170   1.835  13.497  0.0904 -0.0919  0.1026
 6729TIP3    H141678   6.157   1.765  13.433  0.1027  0.3878 -0.4468
 6729TIP3    H241679   6.093   1.830  13.554  0.2161 -0.7036  0.2220
 6730TIP3   OH241680   1.383   6.312  12.165 -0.0838  0.0169 -0.1643
 6730TIP3    H141681   1.299   6.348  12.196 -1.2839 -1.1162 -1.9539
 6730TIP3    H241682   1.372   6.217  12.173  1.3154 -0.1288  0.1997
 6731TIP3   OH241683   5.807   3.971  15.282 -0.0930  0.2580  0.2974
 6731TIP3    H141684   5.781   4.034  15.215 -0.6747 -0.3102 -0.0177
 6731TIP3    H241685   5.760   3.999  15.361  0.6634  0.9812  0.5087
 6732TIP3   OH241686   1.043   5.528  15.938 -0.4611 -0.0286 -0.0020
 6732TIP3    H141687   0.990   5.557  16.012 -2.1581  0.2245 -1.2468
 6732TIP3    H241688   1.107   5.597  15.925 -1.5840  1.0159 -0.1396
 6733TIP3   OH241689   5.118   1.962   3.417  0.3147  0.5076  0.4542
 6733TIP3    H141690   5.180   1.979   3.346  0.8856 -0.0521  0.8037
 6733TIP3    H241691   5.074   2.046   3.431  0.9114  0.8844  0.1165
 6734TIP3   OH241692   4.300   4.726   3.856  0.3324  0.0667  0.3581
 6734TIP3    H141693   4.281   4.672   3.933 -0.6307 -0.8561 -0.4843
 6734TIP3    H241694   4.276   4.670   3.782  2.7092  0.3477 -0.6859
 6735TIP3   OH241695   6.234   1.787   0.523  0.0767 -0.8223 -0.2212
 6735TIP3    H141696   6.239   1.863   0.465 -0.9867  0.2437  1.0033
 6735TIP3    H241697   6.166   1.732   0.484  0.5664 -0.9540 -0.8983
 6736TIP3   OH241698   4.099   0.485   3.357 -0.1356 -0.4790  0.4681
 6736TIP3    H141699   4.051   0.453   3.281  0.6906  0.6776 -0.5650
 6736TIP3    H241700   4.066   0.432   3.430 -2.4283 -0.2358 -0.3158
 6737TIP3   OH241701   6.723   5.553  12.168 -0.0957  0.1920  0.5920
 6737TIP3    H141702   6.689   5.487  12.108  0.9830  0.8771 -0.8282
 6737TIP3    H241703   6.650   5.615  12.180  0.2207  1.0671 -1.5568
 6738TIP3   OH241704   5.827   0.105  14.957  0.3739 -0.4163  0.1335
 6738TIP3    H141705   5.731   0.100  14.953  0.4687 -1.5978 -1.8952
 6738TIP3    H241706   5.848   0.197  14.946 -0.5126 -0.2862 -0.5435
 6739TIP3   OH241707   6.106   5.463  13.216 -0.0536 -0.0534  0.3714
 6739TIP3    H141708   6.091   5.504  13.301 -1.4451  1.9713 -0.7834
 6739TIP3    H241709   6.022   5.424  13.193  0.8710 -2.5049  0.8066
 6740TIP3   OH241710   6.470   0.376   3.952  0.4989 -0.4487  0.1049
 6740TIP3    H141711   6.564   0.364   3.961  0.3813 -0.7892  0.9482
 6740TIP3    H241712   6.431   0.314   4.014 -0.3056 -0.9424 -0.8402
 6741TIP3   OH241713   5.530   4.085   3.571 -0.5859  0.0712 -0.0220
 6741TIP3    H141714   5.528   4.011   3.631  2.3387 -0.1091  0.0038
 6741TIP3    H241715   5.609   4.133   3.595 -1.3031  2.0803 -1.3715
 6742TIP3   OH241716   4.871   0.855  16.766  0.2171 -0.0995 -0.3017
 6742TIP3    H141717   4.845   0.903  16.845 -0.7185 -0.1569 -0.5613
 6742TIP3    H241718   4.827   0.901  16.694  1.3194  0.1471 -0.8366
 6743TIP3   OH241719   5.465   4.484   5.820  0.2195 -0.2642  0.4386
 6743TIP3    H141720   5.436   4.479   5.911  0.5103  0.7322  0.6040
 6743TIP3    H241721   5.524   4.560   5.818 -0.5847  0.3691 -0.7907
 6744TIP3   OH241722   2.716   3.011   2.925 -0.3026 -0.3785  0.4451
 6744TIP3    H141723   2.787   3.007   2.860  0.1927  1.4032  0.8003
 6744TIP3    H241724   2.750   2.963   3.000  0.6274  0.5533  0.6551
 6745TIP3   OH241725   5.560   4.997   5.670 -0.0863  0.6726 -0.8189
 6745TIP3    H141726   5.538   4.905   5.683  0.0122  0.7218 -0.2365
 6745TIP3    H241727   5.592   5.026   5.756  1.3163  0.8481 -1.3733
 6746TIP3   OH241728   2.615   5.290  16.966 -0.1577 -0.8620 -0.0609
 6746TIP3    H141729   2.642   5.373  17.006  1.8290 -2.1105  1.3560
 6746TIP3    H241730   2.550   5.316  16.900 -1.0845  1.6276  1.6599
 6747TIP3   OH241731   6.686   4.547  14.035 -0.1564 -0.1724 -0.5311
 6747TIP3    H141732   6.654   4.497  14.111 -0.6321 -0.1490 -0.7100
 6747TIP3    H241733   6.755   4.493  13.998  0.0931 -0.1779 -0.0691
 6748TIP3   OH241734   2.330   4.119  14.400  0.3220  0.0949 -0.5480
 6748TIP3    H141735   2.260   4.184  14.390 -1.6708 -1.9434 -0.8443
 6748TIP3    H241736   2.293   4.054  14.460  2.8929  0.0442  1.1317
 6749TIP3   OH241737   5.859   4.359   1.905  0.5718  0.3258 -0.0857
 6749TIP3    H141738   5.765   4.373   1.916  0.4080 -0.9163  0.2521
 6749TIP3    H241739   5.893   4.356   1.995  0.9030  0.5192 -0.2019
 6750TIP3   OH241740   2.349   2.491   3.150  0.3090  0.1123  0.2879
 6750TIP3    H141741   2.346   2.399   3.175  0.1635 -0.2745 -1.0493
 6750TIP3    H241742   2.303   2.494   3.066 -0.6525  1.5923  0.8232
 6751TIP3   OH241743   2.866   5.964  11.821 -0.6832 -0.2657  0.6260
 6751TIP3    H141744   2.939   5.918  11.862 -0.9310  0.5603  2.0826
 6751TIP3    H241745   2.819   5.896  11.773 -0.9179 -1.5345  2.5129
 6752TIP3   OH241746   3.132   3.254   2.708 -0.6288  0.0039  0.3465
 6752TIP3    H141747   3.172   3.212   2.785 -1.9241 -0.9272  0.5577
 6752TIP3    H241748   3.156   3.197   2.635 -0.4453  0.1840  0.2685
 6753TIP3   OH241749   1.253   3.866  17.221 -0.3207  0.5853  0.4555
 6753TIP3    H141750   1.298   3.944  17.188 -0.6340 -0.0991 -1.8050
 6753TIP3    H241751   1.290   3.851  17.308  3.3183  0.4809 -0.9428
 6754TIP3   OH241752   6.449   2.352   1.552  0.0600 -0.6815 -0.0933
 6754TIP3    H141753   6.453   2.268   1.508 -0.4234  0.4466 -2.4485
 6754TIP3    H241754   6.489   2.413   1.491 -2.0915  1.2590  0.2948
 6755TIP3   OH241755   2.069   0.436  13.706  0.2180 -0.2283 -0.5689
 6755TIP3    H141756   2.133   0.366  13.722 -0.8643 -0.8108  1.4756
 6755TIP3    H241757   2.123   0.512  13.684  1.4507 -1.4851 -2.1536
 6756TIP3   OH241758   1.221   5.971   4.980  0.0776  0.4435  0.7292
 6756TIP3    H141759   1.214   5.918   5.060 -0.1152  0.1519  0.5247
 6756TIP3    H241760   1.296   5.934   4.933 -0.8031 -0.4772 -0.0033
 6757TIP3   OH241761   1.118   5.114   2.801  0.7918 -0.2106 -0.4237
 6757TIP3    H141762   1.169   5.116   2.882  1.6770  0.7007 -0.9795
 6757TIP3    H241763   1.181   5.137   2.732 -0.1755  0.0590 -1.2473
 6758TIP3   OH241764   6.279   1.915  11.079  0.3315  0.4307 -0.3797
 6758TIP3    H141765   6.340   1.967  11.027  0.7984 -0.3038 -0.5720
 6758TIP3    H241766   6.193   1.934  11.040  0.5372  0.8018 -0.6584
 6759TIP3   OH241767   4.274   5.279   3.435 -0.1069  0.0786  0.3223
 6759TIP3    H141768   4.342   5.228   3.479  0.8173  1.3890  0.4837
 6759TIP3    H241769   4.284   5.367   3.470 -2.6305  0.0971  1.1602
 6760TIP3   OH241770   6.214   4.496   4.218 -0.1545 -0.3585  0.0850
 6760TIP3    H141771   6.289   4.457   4.263  0.8133  0.9066 -0.3932
 6760TIP3    H241772   6.149   4.509   4.288  1.1245  1.0769  1.0821
 6761TIP3   OH241773   2.584   5.956  12.316  0.0374  0.4748 -0.0996
 6761TIP3    H141774   2.502   5.920  12.350  0.0997 -1.5990 -1.9307
 6761TIP3    H241775   2.577   5.948  12.221  2.3527  0.1965 -0.3137
 6762TIP3   OH241776   1.869   6.682  14.157 -0.4946 -0.5806  0.0869
 6762TIP3    H141777   1.862   6.656  14.249 -1.2814 -0.2879  0.1109
 6762TIP3    H241778   1.953   6.644  14.128 -1.4214 -2.9165  0.2030
 6763TIP3   OH241779   6.306   2.007  12.887 -0.1055 -0.0471 -0.1098
 6763TIP3    H141780   6.379   1.964  12.930  0.1149 -0.5951 -1.0114
 6763TIP3    H241781   6.345   2.079  12.839 -0.5054  1.4222  1.6301
 6764TIP3   OH241782   0.341   3.682  12.503 -0.1716 -0.8838  0.5306
 6764TIP3    H141783   0.414   3.674  12.564  0.1055 -0.7820  0.2187
 6764TIP3    H241784   0.382   3.675  12.416 -0.2858  0.8806  0.2956
 6765TIP3   OH241785   2.873   2.642   1.810  0.1590 -0.0098  0.6299
 6765TIP3    H141786   2.843   2.553   1.792 -2.9447  0.8286  1.0530
 6765TIP3    H241787   2.827   2.667   1.890  0.9138  1.9854  0.4857
 6766TIP3   OH241788   2.093   2.256  13.796  0.3608 -0.0241  0.1813
 6766TIP3    H141789   2.020   2.253  13.733 -0.2072  1.2779  0.7395
 6766TIP3    H241790   2.070   2.328  13.855  2.0012  0.2530  0.5092
 6767TIP3   OH241791   0.804   4.602  11.622 -0.2790 -0.0959 -0.1100
 6767TIP3    H141792   0.767   4.674  11.673 -1.8425 -0.5279 -0.5885
 6767TIP3    H241793   0.806   4.635  11.532  0.4348 -0.1167 -0.1078
 6768TIP3   OH241794   5.424   2.302   4.093  0.0658 -0.4093 -0.1836
 6768TIP3    H141795   5.376   2.285   4.174  0.6815  0.5802  0.4160
 6768TIP3    H241796   5.362   2.350   4.038 -0.2127 -0.6983 -0.1217
 6769TIP3   OH241797   4.813   2.359  13.596 -0.2174 -0.0794  0.2664
 6769TIP3    H141798   4.775   2.291  13.651 -0.4461  0.5012  0.8477
 6769TIP3    H241799   4.817   2.436  13.653 -1.5992  0.9029 -0.8909
 6770TIP3   OH241800   1.142   0.141   2.291 -0.0149  0.3932 -0.6346
 6770TIP3    H141801   1.116   0.107   2.205 -3.4994 -2.4570  1.2696
 6770TIP3    H241802   1.175   0.064   2.338 -0.2907  1.4022  1.2931
 6771TIP3   OH241803   4.292   4.318  17.000  0.6319 -0.6731  0.4972
 6771TIP3    H141804   4.215   4.274  16.963  0.6850 -1.1695  0.9495
 6771TIP3    H241805   4.353   4.246  17.018  0.5838 -0.4602  1.5740
 6772TIP3   OH241806   3.843   3.061  11.306 -0.3303  0.0498 -0.4075
 6772TIP3    H141807   3.927   3.062  11.259 -0.0871 -1.4359 -0.0589
 6772TIP3    H241808   3.783   3.019  11.245 -0.0933 -1.5866  0.4478
 6773TIP3   OH241809   6.068   2.541  13.409 -0.0359 -0.1911 -0.8909
 6773TIP3    H141810   6.005   2.540  13.337 -0.7759 -0.3147 -0.2630
 6773TIP3    H241811   6.146   2.582  13.372 -0.8278  0.9245 -1.4121
 6774TIP3   OH241812   3.930   6.294  15.690  0.5912 -1.0053  0.0048
 6774TIP3    H141813   3.955   6.384  15.711  0.3291 -0.3553 -2.2370
 6774TIP3    H241814   3.987   6.240  15.745  2.2310  0.5017 -0.1334
 6775TIP3   OH241815   0.303   6.699  14.339 -0.0402 -0.3895  0.0148
 6775TIP3    H141816   0.273   6.744  14.418  0.8608 -0.2004  0.2672
 6775TIP3    H241817   0.224   6.664  14.299 -0.7785  1.4163 -0.1819
 6776TIP3   OH241818   1.995   4.135   2.937 -0.1326 -0.0889  0.0520
 6776TIP3    H141819   1.952   4.136   3.023  1.6664 -1.5528  1.0476
 6776TIP3    H241820   2.016   4.227   2.919 -0.4189  0.2250  1.2512
 6777TIP3   OH241821   4.491   2.061   1.524  0.3645 -0.1510 -1.0383
 6777TIP3    H141822   4.456   2.028   1.441 -0.7776  0.6220 -0.8898
 6777TIP3    H241823   4.431   2.026   1.591  1.6053 -1.2522 -0.4543
 6778TIP3   OH241824   3.721   3.477  14.213 -0.2665  0.3568 -0.2762
 6778TIP3    H141825   3.667   3.404  14.182 -1.8693  0.6825  1.5172
 6778TIP3    H241826   3.800   3.436  14.248 -0.7572 -0.4450 -0.0833
 6779TIP3   OH241827   5.714   4.936   0.215  0.6423  0.0195  0.2744
 6779TIP3    H141828   5.650   5.007   0.221  0.3250 -0.1546 -0.8207
 6779TIP3    H241829   5.669   4.859   0.251  0.0654 -0.1992 -0.8751
 6780TIP3   OH241830   4.910   4.685   1.949  0.0818  0.4138 -0.0125
 6780TIP3    H141831   4.927   4.627   2.022 -1.7060 -0.6063 -0.3395
 6780TIP3    H241832   4.970   4.759   1.962  3.5319 -2.0898 -0.3926
 6781TIP3   OH241833   3.180   2.619  11.627 -0.5290  0.4801 -0.1611
 6781TIP3    H141834   3.091   2.586  11.618  0.2909 -1.9777 -0.0379
 6781TIP3    H241835   3.173   2.691  11.689 -2.2867 -0.3059  0.6079
 6782TIP3   OH241836   6.527   0.867  11.966  0.0396  0.2881 -0.0090
 6782TIP3    H141837   6.534   0.785  11.918 -1.2757  0.0702  0.1210
 6782TIP3    H241838   6.511   0.933  11.897  2.2918  0.6698 -0.2362
 6783TIP3   OH241839   0.899   6.518   5.012 -0.2974 -0.0657 -0.1611
 6783TIP3    H141840   0.850   6.592   4.976 -0.2973  0.0244  0.0207
 6783TIP3    H241841   0.991   6.539   4.991 -0.1782  0.5791  0.9161
 6784TIP3   OH241842   5.439   6.359   3.577  0.3267  0.8179 -0.1515
 6784TIP3    H141843   5.374   6.296   3.609 -0.9114 -0.5974 -4.6698
 6784TIP3    H241844   5.399   6.445   3.592 -0.4567  0.2359  1.2518
 6785TIP3   OH241845   0.070   6.286   3.989  0.2562 -0.0709  0.4172
 6785TIP3    H141846   0.067   6.232   3.910  1.0770  2.1991 -1.2673
 6785TIP3    H241847  -0.017   6.324   3.995  0.0841 -0.5217  0.8366
 6786TIP3   OH241848   3.056   2.928   3.572 -0.8681  0.4480  0.1950
 6786TIP3    H141849   3.078   3.015   3.604 -1.2434  0.5003  0.3234
 6786TIP3    H241850   3.139   2.891   3.543 -0.7655  0.9967 -0.2215
 6787TIP3   OH241851   4.274   6.337   4.381 -0.5404  0.4539 -0.2223
 6787TIP3    H141852   4.358   6.337   4.337 -0.0427  0.9470  0.7040
 6787TIP3    H241853   4.263   6.247   4.412  0.8681  0.9273  1.8754
 6788TIP3   OH241854   0.396   0.679   2.664 -0.0237 -0.3004 -0.6671
 6788TIP3    H141855   0.405   0.584   2.653  0.4435 -0.9456  3.6354
 6788TIP3    H241856   0.302   0.695   2.650 -0.0632 -1.3071 -1.7334
 6789TIP3   OH241857   3.097   1.919  15.791  0.3849  0.1972  0.1338
 6789TIP3    H141858   3.036   1.954  15.856 -1.7132 -0.3995 -1.3987
 6789TIP3    H241859   3.126   1.836  15.828  1.5034  1.1672  1.5469
 6790TIP3   OH241860   2.253   4.986   1.481  0.1528 -0.1963  0.3210
 6790TIP3    H141861   2.335   5.004   1.528 -0.2357 -0.0784  0.9651
 6790TIP3    H241862   2.276   4.995   1.389  0.6677  0.6855  0.5228
 6791TIP3   OH241863   2.236   1.134  13.401  0.0603  0.2756 -0.3466
 6791TIP3    H141864   2.262   1.126  13.309  1.6879  0.0316  0.1052
 6791TIP3    H241865   2.318   1.126  13.450 -0.7126  0.8959  1.1097
 6792TIP3   OH241866   6.650   2.330  15.571  0.0066  0.0720 -0.5664
 6792TIP3    H141867   6.630   2.420  15.547  1.4789  0.6070  0.0920
 6792TIP3    H241868   6.688   2.292  15.492 -0.4704  0.0723 -0.7974
 6793TIP3   OH241869   0.740   2.437   1.581 -0.0150  0.1205  0.8358
 6793TIP3    H141870   0.719   2.394   1.664 -1.0453 -0.0192  0.5110
 6793TIP3    H241871   0.706   2.526   1.592  1.4078  0.6524  1.2087
 6794TIP3   OH241872   4.789   1.300   4.215  0.5983  0.2096  0.0041
 6794TIP3    H141873   4.837   1.361   4.271 -0.1673  0.4177  0.4584
 6794TIP3    H241874   4.811   1.327   4.126  0.9923  0.5646  0.2061
 6795TIP3   OH241875   5.960   6.159  14.590  0.4199  0.2549  0.1053
 6795TIP3    H141876   6.013   6.087  14.555  1.0732  0.7951 -0.0551
 6795TIP3    H241877   5.960   6.145  14.684  1.7423  0.8091  0.2145
 6796TIP3   OH241878   4.763   4.233  11.701  0.8112  0.0801 -0.1484
 6796TIP3    H141879   4.803   4.316  11.677  0.6511  0.2869  0.2919
 6796TIP3    H241880   4.814   4.202  11.775  1.3145 -0.5639 -0.7507
 6797TIP3   OH241881   4.825   2.792  12.668  0.3799  0.2664 -0.1763
 6797TIP3    H141882   4.778   2.875  12.672 -0.4151 -0.2208  2.1457
 6797TIP3    H241883   4.901   2.804  12.724 -1.2792 -1.3663  2.6630
 6798TIP3   OH241884   5.705   4.084   2.091 -0.8268  0.4168  0.5923
 6798TIP3    H141885   5.643   4.041   2.150 -1.3834  1.0841  0.5094
 6798TIP3    H241886   5.651   4.145   2.041  0.0951  1.9607  1.4304
 6799TIP3   OH241887   2.029   1.846  12.067 -0.2701 -0.0173 -0.0716
 6799TIP3    H141888   2.038   1.891  11.983 -0.3202  0.5807  0.2350
 6799TIP3    H241889   2.118   1.843  12.102 -0.4652  1.1703  0.5712
 6800TIP3   OH241890   0.879   3.329   5.042 -0.4337 -0.0250  0.5638
 6800TIP3    H141891   0.939   3.259   5.065  1.4526  1.1517 -0.5223
 6800TIP3    H241892   0.795   3.303   5.080  0.3610 -2.5026  0.7508
 6801TIP3   OH241893   4.676   4.696  11.721  0.0630  0.0180 -0.6302
 6801TIP3    H141894   4.610   4.703  11.652  0.3425  1.0351 -0.8162
 6801TIP3    H241895   4.714   4.609  11.709  0.0900  0.1652 -1.7518
 6802TIP3   OH241896   0.189   5.418  15.731  0.3603 -0.2830  0.1834
 6802TIP3    H141897   0.102   5.390  15.704 -0.3394  2.4911 -0.8366
 6802TIP3    H241898   0.175   5.464  15.814  0.7172  0.6691 -0.2625
 6803TIP3   OH241899   3.750   6.792   3.794  0.0060 -0.3546 -0.1491
 6803TIP3    H141900   3.833   6.780   3.840  0.4500  0.0256 -0.8413
 6803TIP3    H241901   3.755   6.881   3.759  0.9368 -1.5493 -3.4336
 6804TIP3   OH241902   1.193   4.196  14.708  0.0465  0.1704  0.3477
 6804TIP3    H141903   1.264   4.232  14.761  0.8126  0.5129 -0.8825
 6804TIP3    H241904   1.224   4.109  14.682 -0.6216 -0.2808  1.0067
 6805TIP3   OH241905   3.520   6.649   0.340 -0.2250  0.0491 -0.3062
 6805TIP3    H141906   3.524   6.715   0.409  1.5314  0.4433 -0.7331
 6805TIP3    H241907   3.472   6.692   0.269 -0.8592  0.1235  0.1558
 6806TIP3   OH241908   4.273   5.216  10.957  0.1578 -0.0804 -0.0009
 6806TIP3    H141909   4.236   5.296  10.995 -2.6718 -1.8937  1.4997
 6806TIP3    H241910   4.353   5.201  11.007  0.5807  1.5985 -0.1078
 6807TIP3   OH241911   5.372   5.869  10.550 -0.2873 -0.2438 -0.3944
 6807TIP3    H141912   5.308   5.940  10.551  0.3047  0.3002  0.1610
 6807TIP3    H241913   5.330   5.798  10.598 -1.7392 -1.0716 -2.7572
 6808TIP3   OH241914   0.366   4.409   4.486 -0.3169 -0.5732  0.1325
 6808TIP3    H141915   0.279   4.380   4.511 -1.3969 -0.9336 -3.4019
 6808TIP3    H241916   0.408   4.331   4.448  1.0159 -0.0548  0.4566
 6809TIP3   OH241917   4.832   1.833   1.942 -0.3071 -0.4420  0.2338
 6809TIP3    H141918   4.751   1.837   1.992  0.1948 -0.2096  1.0555
 6809TIP3    H241919   4.841   1.741   1.917 -1.9316 -0.1285 -1.7825
 6810TIP3   OH241920   6.319   3.602   0.279  0.1066 -0.3089  0.0241
 6810TIP3    H141921   6.403   3.629   0.242 -0.6014  0.5049 -1.0607
 6810TIP3    H241922   6.342   3.557   0.360  1.6463 -0.9167 -0.6971
 6811TIP3   OH241923   3.825   3.733  15.828  0.6363  0.0361 -0.2191
 6811TIP3    H141924   3.795   3.796  15.763 -1.2927 -0.4889  0.1237
 6811TIP3    H241925   3.844   3.653  15.778 -0.7831 -0.3473 -0.1740
 6812TIP3   OH241926   4.165   5.473   5.363  0.3065 -0.4911  0.2934
 6812TIP3    H141927   4.116   5.538   5.311  0.4156 -0.2346  0.5069
 6812TIP3    H241928   4.222   5.430   5.300  2.3126  1.5628  0.5832
 6813TIP3   OH241929   0.747   4.565  13.134  0.2389 -0.0839 -0.0597
 6813TIP3    H141930   0.827   4.543  13.182  0.7869 -2.4466 -1.8539
 6813TIP3    H241931   0.770   4.643  13.083  1.5542 -0.8970 -0.7720
 6814TIP3   OH241932   3.916   2.934  15.016 -0.0580 -0.6259  0.3671
 6814TIP3    H141933   3.821   2.922  15.014 -0.1231 -0.1039  0.1458
 6814TIP3    H241934   3.932   2.987  15.094  0.1946 -1.8308  1.1616
 6815TIP3   OH241935   4.886   3.340   3.001  0.0370  0.1213 -0.5909
 6815TIP3    H141936   4.838   3.293   3.069  0.9099  0.1666  0.0659
 6815TIP3    H241937   4.819   3.364   2.937 -0.3864 -2.5977 -1.3286
 6816TIP3   OH241938   6.179   5.179  14.998 -0.0757  0.0679 -0.4552
 6816TIP3    H141939   6.266   5.159  14.964  0.1031  0.8007 -0.4351
 6816TIP3    H241940   6.174   5.128  15.079  1.3181  1.9107  0.8739
 6817TIP3   OH241941   0.009   1.865  11.408  0.4365 -0.9983 -0.4213
 6817TIP3    H141942   0.094   1.823  11.402  0.5745 -0.7819 -0.0051
 6817TIP3    H241943  -0.036   1.841  11.327  0.8741 -1.1527 -0.6177
 6818TIP3   OH241944   0.239   1.862  14.546  0.3831  0.0540  0.6208
 6818TIP3    H141945   0.145   1.859  14.564  0.2059 -0.8191 -0.3991
 6818TIP3    H241946   0.261   1.773  14.519  0.4125  1.2731 -4.2601
 6819TIP3   OH241947   3.805   6.401  13.009 -0.2043  0.0253  0.3597
 6819TIP3    H141948   3.787   6.489  13.041  0.6161  0.4852 -0.3950
 6819TIP3    H241949   3.891   6.408  12.968  0.9805 -1.6442  2.3271
 6820TIP3   OH241950   6.445   5.497   6.418 -1.0148 -0.4169  0.1846
 6820TIP3    H141951   6.466   5.432   6.485 -0.6547 -1.1460 -0.6216
 6820TIP3    H241952   6.358   5.529   6.442 -0.6396 -0.2056  1.3438
 6821TIP3   OH241953   0.180   5.410  12.564 -0.6932  0.3238  0.3477
 6821TIP3    H141954   0.222   5.493  12.588 -0.4903  0.2690  0.1811
 6821TIP3    H241955   0.101   5.436  12.517 -0.0752  0.4153 -0.6498
 6822TIP3   OH241956   5.221   5.520  10.876  0.7537 -0.7220 -0.1920
 6822TIP3    H141957   5.132   5.500  10.906  0.7263  0.5223  0.6270
 6822TIP3    H241958   5.270   5.440  10.891 -0.1030 -1.2508 -0.1393
 6823TIP3   OH241959   5.253   5.805  12.137  0.6926 -0.0596 -0.4673
 6823TIP3    H141960   5.191   5.869  12.172  0.6674 -0.7345  0.7819
 6823TIP3    H241961   5.219   5.720  12.166 -0.0553 -0.8274 -3.2245
 6824TIP3   OH241962   3.971   2.749   5.272  0.0531 -0.2128  0.0067
 6824TIP3    H141963   4.056   2.713   5.247  0.2581 -1.3759  2.1433
 6824TIP3    H241964   3.958   2.823   5.213  1.8533 -0.9110 -1.3495
 6825TIP3   OH241965   4.818   2.511   4.476  0.0193  0.7196 -0.0113
 6825TIP3    H141966   4.759   2.546   4.543 -0.0410 -0.9694  0.8709
 6825TIP3    H241967   4.900   2.495   4.524  0.6209  1.3231 -0.8101
 6826TIP3   OH241968   4.130   6.040   2.930 -0.5174 -0.0056  0.1310
 6826TIP3    H141969   4.109   5.965   2.985  0.3585  0.0885  0.6034
 6826TIP3    H241970   4.056   6.047   2.869 -1.5562 -0.0439  1.3556
 6827TIP3   OH241971   2.779   2.762   6.002 -0.1309 -0.2359  0.2164
 6827TIP3    H141972   2.708   2.718   5.955  1.0847 -0.9144 -1.0337
 6827TIP3    H241973   2.745   2.773   6.091 -1.7584 -0.6392 -0.3252
 6828TIP3   OH241974   6.780   3.484   5.851  0.1836 -0.1539 -0.1042
 6828TIP3    H141975   6.733   3.474   5.934 -0.6489  0.3362 -0.4976
 6828TIP3    H241976   6.872   3.484   5.875  0.0952 -2.5404  0.5722
 6829TIP3   OH241977   1.814   2.737  12.826 -0.3764  0.2806  0.3234
 6829TIP3    H141978   1.839   2.815  12.876  1.3513 -0.4838  0.6983
 6829TIP3    H241979   1.852   2.752  12.739 -3.7444  1.8181 -1.0661
 6830TIP3   OH241980   4.114   4.538   5.218 -0.8378  0.2336 -0.7203
 6830TIP3    H141981   4.035   4.592   5.223  0.8571  2.7864  2.1946
 6830TIP3    H241982   4.123   4.500   5.305  1.2356  0.2201 -0.8852
 6831TIP3   OH241983   4.991   6.792   5.755  0.0547 -0.2856 -0.0493
 6831TIP3    H141984   5.079   6.781   5.790 -1.2712  1.5788  4.7319
 6831TIP3    H241985   4.993   6.877   5.712  0.3362  0.4873  1.4136
 6832TIP3   OH241986   1.832   0.851   6.029  0.8804 -0.2681 -0.2372
 6832TIP3    H141987   1.900   0.907   6.067  0.7812  0.4774 -1.1276
 6832TIP3    H241988   1.865   0.831   5.941  0.3253 -0.5606 -0.3775
 6833TIP3   OH241989   2.696   0.520  13.716 -0.4507  0.1727  0.0174
 6833TIP3    H141990   2.641   0.598  13.705 -0.1746  0.1044 -2.2225
 6833TIP3    H241991   2.646   0.450  13.675 -0.1915 -0.6262  1.0344
 6834TIP3   OH241992   3.917   0.047   5.718 -0.0027  0.4721  0.6071
 6834TIP3    H141993   3.842   0.058   5.776 -1.7187  0.8032 -1.5547
 6834TIP3    H241994   3.922   0.129   5.669  1.4551  0.2465  0.3462
 6835TIP3   OH241995   2.002   1.178  14.421 -0.1295  0.3577  0.2913
 6835TIP3    H141996   2.095   1.202  14.425  0.9738 -3.2393  0.0431
 6835TIP3    H241997   1.965   1.210  14.503  1.7425  0.4202  1.1523
 6836TIP3   OH241998   1.181   2.306  10.811  0.5535 -0.3151 -0.2023
 6836TIP3    H141999   1.269   2.319  10.775  0.9837 -1.6810  0.3256
 6836TIP3    H242000   1.135   2.254  10.745 -0.7011  2.3972 -1.6315
 6837TIP3   OH242001   2.400   0.255   2.940 -0.1979  0.0202  0.8548
 6837TIP3    H142002   2.305   0.250   2.946 -0.5497  1.9588 -1.3477
 6837TIP3    H242003   2.421   0.218   2.854  0.8099  1.1604  0.5694
 6838TIP3   OH242004   4.895   1.422  10.916  0.2539 -0.4968 -0.4234
 6838TIP3    H142005   4.978   1.403  10.872 -0.4105 -0.8436 -1.5528
 6838TIP3    H242006   4.846   1.476  10.854  0.5647  1.8095  1.2005
 6839TIP3   OH242007   5.119   3.316  13.641 -0.2137  0.4301  0.4883
 6839TIP3    H142008   5.201   3.272  13.664 -0.2819  0.0532  0.0241
 6839TIP3    H242009   5.052   3.249  13.655 -0.5363  0.9660  1.6057
 6840TIP3   OH242010   1.992   2.651   4.483  0.7387 -0.2985  0.0630
 6840TIP3    H142011   1.923   2.704   4.524  2.0103 -0.1476  2.1730
 6840TIP3    H242012   1.948   2.604   4.412 -1.5175 -0.2131  1.3258
 6841TIP3   OH242013   5.507   3.877   6.636  0.1058  0.3184 -0.1045
 6841TIP3    H142014   5.595   3.841   6.645 -0.5938 -1.2702  0.8682
 6841TIP3    H242015   5.454   3.803   6.607 -0.7156  1.5585 -2.0233
 6842TIP3   OH242016   5.268   1.037  15.018 -0.1751  0.2860  0.1975
 6842TIP3    H142017   5.227   0.971  14.962  1.0389  0.0574 -0.4594
 6842TIP3    H242018   5.266   0.999  15.106  0.1941 -0.4820 -0.1158
 6843TIP3   OH242019   5.016   3.409  16.078 -0.2885 -0.4847  0.3079
 6843TIP3    H142020   4.939   3.356  16.057 -0.3458  0.2083 -1.3917
 6843TIP3    H242021   4.987   3.464  16.151 -1.4014 -0.2805 -0.2611
 6844TIP3   OH242022   3.828   1.354  17.197 -0.2403  0.6550 -0.4419
 6844TIP3    H142023   3.752   1.411  17.181 -0.6728 -0.1970 -1.6450
 6844TIP3    H242024   3.790   1.266  17.203  0.6582  0.2103 -1.1593
 6845TIP3   OH242025   5.701   3.807  13.799 -0.0755 -0.7137 -0.4826
 6845TIP3    H142026   5.790   3.793  13.765 -0.6051 -1.8875 -1.4715
 6845TIP3    H242027   5.652   3.730  13.770 -1.8375  0.6569 -1.3653
 6846TIP3   OH242028   3.999   2.438   3.091  0.2070 -0.1948 -0.5156
 6846TIP3    H142029   3.968   2.430   3.181 -2.2548 -0.1207 -1.3035
 6846TIP3    H242030   4.092   2.413   3.096 -0.0153 -0.7888  1.9146
 6847TIP3   OH242031   5.970   6.719  15.809  0.4863  0.1410 -0.8684
 6847TIP3    H142032   5.954   6.811  15.829 -0.7802 -0.4338  1.0133
 6847TIP3    H242033   5.883   6.683  15.791  0.4437 -1.3608  1.7687
 6848TIP3   OH242034   3.458   1.659   2.478 -0.0378 -0.1012 -0.2237
 6848TIP3    H142035   3.447   1.751   2.452 -1.1410  0.0741  0.8118
 6848TIP3    H242036   3.377   1.636   2.522  0.6198 -1.2935  0.4201
 6849TIP3   OH242037   2.601   2.824  13.063  0.5419 -0.1345 -0.1496
 6849TIP3    H142038   2.652   2.831  13.144  0.4475 -0.8731 -0.0192
 6849TIP3    H242039   2.636   2.893  13.007  1.0582 -0.0379  0.2779
 6850TIP3   OH242040   2.881   3.473   3.672  0.3335 -0.1381  0.2566
 6850TIP3    H142041   2.786   3.480   3.682  0.2121  1.4833 -1.3937
 6850TIP3    H242042   2.915   3.466   3.761 -1.1977  1.7900  1.0698
 6851TIP3   OH242043   4.177   5.705  12.233 -0.0959  0.1604  0.1057
 6851TIP3    H142044   4.140   5.707  12.321 -3.0788 -0.6468 -1.0115
 6851TIP3    H242045   4.209   5.794  12.218  0.3172  0.3503  1.9114
 6852TIP3   OH242046   0.358   4.439   3.559 -0.1500 -0.1540 -0.0776
 6852TIP3    H142047   0.269   4.424   3.528 -0.5656  1.5898  0.1774
 6852TIP3    H242048   0.350   4.514   3.619  1.2114 -1.0636  1.3218
 6853TIP3   OH242049   3.110   0.957  14.619 -0.5330  0.0508  0.5394
 6853TIP3    H142050   3.041   0.973  14.555 -0.1516  2.1889  0.5981
 6853TIP3    H242051   3.068   0.971  14.704 -0.1182  1.1092  0.5847
 6854TIP3   OH242052   4.030   2.279  11.751 -0.0377 -0.1765 -0.4877
 6854TIP3    H142053   4.105   2.306  11.698  2.6428  0.1528  3.1062
 6854TIP3    H242054   3.983   2.361  11.768  0.5142  0.1148 -0.3393
 6855TIP3   OH242055   2.562   1.490  11.392 -0.1139  0.0026  0.0522
 6855TIP3    H142056   2.490   1.428  11.409 -0.0912  0.1576  0.7400
 6855TIP3    H242057   2.633   1.459  11.449 -0.4516  1.2673  1.2100
 6856TIP3   OH242058   0.189   5.602  11.434 -0.9135  0.0617 -0.5201
 6856TIP3    H142059   0.254   5.648  11.380 -0.1654  0.6024  0.7826
 6856TIP3    H242060   0.152   5.671  11.489 -1.9975 -0.4023 -0.6479
 6857TIP3   OH242061   3.379   1.905  16.467 -0.0967 -0.2757 -0.3127
 6857TIP3    H142062   3.328   1.893  16.548 -1.0374 -0.3531 -0.8965
 6857TIP3    H242063   3.333   1.975  16.420  1.3530  0.8846 -0.0859
 6858TIP3   OH242064   0.705   2.071  14.790 -0.3268  0.3522 -0.4610
 6858TIP3    H142065   0.710   1.988  14.743  0.5796  0.5503 -0.7356
 6858TIP3    H242066   0.718   2.137  14.722  1.0616  0.6430  0.0408
 6859TIP3   OH242067   5.251   3.368   6.431 -1.0203 -0.6566  0.3490
 6859TIP3    H142068   5.270   3.330   6.517 -0.2457 -2.0127 -0.3999
 6859TIP3    H242069   5.171   3.323   6.402 -2.1341  0.8364  0.9450
 6860TIP3   OH242070   0.736   1.574   1.409  0.2987 -0.1786 -0.4828
 6860TIP3    H142071   0.809   1.545   1.463  0.3342  0.2665 -0.2916
 6860TIP3    H242072   0.658   1.554   1.460  0.3391  0.4065 -0.1781
 6861TIP3   OH242073   6.268   1.017  14.124 -0.3085 -0.0521 -0.5379
 6861TIP3    H142074   6.235   1.095  14.168 -0.5642  0.4371 -1.5430
 6861TIP3    H242075   6.358   1.008  14.155 -0.7010 -0.1469  0.6043
 6862TIP3   OH242076   6.367   1.523   2.231 -0.0295  0.0343 -0.1973
 6862TIP3    H142077   6.313   1.461   2.280 -1.0798  1.2054  0.1796
 6862TIP3    H242078   6.346   1.609   2.268  0.2688  0.7978 -1.6870
 6863TIP3   OH242079   4.416   6.417   5.192 -0.3011  0.0318 -0.2271
 6863TIP3    H142080   4.342   6.372   5.233 -1.5314  1.8808 -0.2693
 6863TIP3    H242081   4.470   6.446   5.265 -0.6103  0.2513 -0.0804
 6864TIP3   OH242082   6.602   0.099  14.950 -0.5466  0.0205  0.3391
 6864TIP3    H142083   6.692   0.066  14.951 -0.1527  0.6425 -2.8957
 6864TIP3    H242084   6.604   0.170  14.886 -3.4604 -0.2724 -0.1907
 6865TIP3   OH242085   0.356   3.823  13.845 -0.0782 -0.3700  0.6061
 6865TIP3    H142086   0.294   3.767  13.797  1.7458 -0.6900 -1.5455
 6865TIP3    H242087   0.427   3.764  13.870  0.4821  0.4273  0.9410
 6866TIP3   OH242088   2.713   0.953   4.766  0.0041  0.0515 -0.0604
 6866TIP3    H142089   2.800   0.985   4.790  2.1114 -3.4758 -2.1718
 6866TIP3    H242090   2.675   1.025   4.714  2.2065  1.2143 -0.1747
 6867TIP3   OH242091   5.757   5.156   2.033 -0.3346 -0.5570  0.8329
 6867TIP3    H142092   5.825   5.144   2.099 -0.3600 -1.3869  0.7252
 6867TIP3    H242093   5.678   5.180   2.083  0.5640  3.0384  0.7916
 6868TIP3   OH242094   3.222   4.426  16.675  0.4831 -0.9368 -0.0637
 6868TIP3    H142095   3.276   4.388  16.606  1.4370 -1.1353  0.7704
 6868TIP3    H242096   3.229   4.365  16.748 -1.7467 -1.5356 -0.2486
 6869TIP3   OH242097   2.382   0.197  16.682 -1.0035  0.0965  0.5179
 6869TIP3    H142098   2.384   0.112  16.637 -0.9714 -0.0026  0.7076
 6869TIP3    H242099   2.403   0.177  16.773 -2.3544  0.1174  0.8594
 6870TIP3   OH242100   6.674   5.393   5.607  0.0495 -0.5763  0.6259
 6870TIP3    H142101   6.663   5.473   5.556 -1.6854 -1.4945 -0.5442
 6870TIP3    H242102   6.591   5.382   5.653  0.5466 -1.3094  1.3873
 6871TIP3   OH242103   0.342   6.408   0.680 -0.6764  0.3486 -0.4680
 6871TIP3    H142104   0.354   6.363   0.597  3.3441 -1.1916  0.6967
 6871TIP3    H242105   0.314   6.339   0.740 -1.5819  1.0125 -0.1125
 6872TIP3   OH242106   3.699   0.446   5.466  0.5317  0.1905  0.0547
 6872TIP3    H142107   3.787   0.484   5.470  0.7477  0.1364 -2.4609
 6872TIP3    H242108   3.706   0.376   5.402 -0.9615 -1.0564  1.1886
 6873TIP3   OH242109   3.653   1.283  12.582 -0.1491 -0.4948  0.3786
 6873TIP3    H142110   3.596   1.312  12.653  0.8965  0.2808  0.9314
 6873TIP3    H242111   3.742   1.286  12.619  0.4187 -0.1105 -0.9349
 6874TIP3   OH242112   6.645   2.762   6.036  0.0441  0.0314 -0.4281
 6874TIP3    H142113   6.579   2.697   6.010  0.4852  0.1253 -1.8824
 6874TIP3    H242114   6.622   2.840   5.985 -0.0159  0.7834  0.7190
 6875TIP3   OH242115   0.406   1.633   0.167  0.3913 -0.1884  0.0014
 6875TIP3    H142116   0.455   1.702   0.210  0.9057 -1.5474  1.6882
 6875TIP3    H242117   0.461   1.555   0.174 -2.0638 -1.9079  2.4158
 6876TIP3   OH242118   1.894   5.666   3.003  0.5692  0.6595 -0.0160
 6876TIP3    H142119   1.924   5.618   2.926 -0.4202  0.4997 -0.3170
 6876TIP3    H242120   1.875   5.597   3.067 -0.8360  0.6305 -0.4415
 6877TIP3   OH242121   4.754   0.188  15.457  0.4802 -0.3013 -0.2910
 6877TIP3    H142122   4.838   0.177  15.412  1.5962  0.4063  1.4926
 6877TIP3    H242123   4.722   0.099  15.471  0.1614 -0.5430 -2.2809
 6878TIP3   OH242124   0.534   5.650  11.353  0.4459 -0.0901 -0.6938
 6878TIP3    H142125   0.524   5.740  11.322 -0.0315  0.0096 -0.2635
 6878TIP3    H242126   0.570   5.659  11.441 -1.8318 -0.1945  0.3305
 6879TIP3   OH242127   2.504   0.074   1.890 -0.4755 -0.3954  0.1528
 6879TIP3    H142128   2.571   0.126   1.935 -0.3766 -0.6003  0.2441
 6879TIP3    H242129   2.489  -0.001   1.948  0.0920 -0.9756 -0.4336
 6880TIP3   OH242130   1.413   4.927  16.789 -0.2325 -0.4026 -0.0913
 6880TIP3    H142131   1.461   4.983  16.728  2.9072 -0.7381  1.8117
 6880TIP3    H242132   1.365   4.988  16.845 -0.2141  0.1123 -0.6254
 6881TIP3   OH242133   3.898   4.315   6.050  0.2602 -0.3509 -0.2022
 6881TIP3    H142134   3.845   4.386   6.013 -0.1422 -1.4165 -1.7904
 6881TIP3    H242135   3.898   4.332   6.144 -2.1878  0.2077 -0.2243
 6882TIP3   OH242136   0.727   5.555   4.232 -0.0856 -0.4122 -0.4626
 6882TIP3    H142137   0.773   5.558   4.315 -2.4255 -0.4805  0.9412
 6882TIP3    H242138   0.774   5.490   4.180  0.3106 -1.8425  1.5795
 6883TIP3   OH242139   6.194   3.698   0.715 -0.4159 -0.2286 -0.7501
 6883TIP3    H142140   6.177   3.697   0.809  0.8176  1.0096 -0.4755
 6883TIP3    H242141   6.138   3.630   0.679 -0.5806 -1.0260  0.9451
 6884TIP3   OH242142   2.723   0.732  12.249 -0.2178 -1.0714  0.5516
 6884TIP3    H142143   2.684   0.723  12.336  1.7381 -1.7805  1.4230
 6884TIP3    H242144   2.687   0.660  12.198 -1.0056 -0.9508  0.9293
 6885TIP3   OH242145   1.561   0.674  15.090 -0.1619 -0.1683 -0.2457
 6885TIP3    H142146   1.536   0.690  14.999 -1.8440 -0.6088  0.1004
 6885TIP3    H242147   1.482   0.695  15.140  1.2067  1.6906  1.3030
 6886TIP3   OH242148   0.673   6.004   3.089  0.0543  0.4110 -0.0997
 6886TIP3    H142149   0.626   5.951   3.025  1.2545 -0.8051 -0.0136
 6886TIP3    H242150   0.605   6.058   3.130 -1.1149 -0.6275 -0.6128
 6887TIP3   OH242151   0.950   4.824   5.278  0.4160 -0.2255 -0.0324
 6887TIP3    H142152   1.031   4.813   5.328 -0.0420  1.1599  1.0904
 6887TIP3    H242153   0.977   4.823   5.187  1.3584 -2.2828  0.2250
 6888TIP3   OH242154   0.721   4.710  10.720  0.0467  0.2010 -0.4579
 6888TIP3    H142155   0.679   4.793  10.697  0.4329  0.3629 -0.6009
 6888TIP3    H242156   0.785   4.733  10.788  0.5301  0.1160 -0.8746
 6889TIP3   OH242157   6.763   1.243   2.845  0.2697 -0.2970 -0.1969
 6889TIP3    H142158   6.742   1.176   2.910 -1.5723  0.1988 -0.2133
 6889TIP3    H242159   6.678   1.284   2.825  1.1999  1.4057 -0.8721
 6890TIP3   OH242160   1.894   4.835  13.700 -0.1588 -0.0766 -0.3708
 6890TIP3    H142161   1.812   4.785  13.705 -0.4356  0.4473  0.6119
 6890TIP3    H242162   1.898   4.866  13.609 -1.2360  0.1957 -0.3398
 6891TIP3   OH242163   4.259   4.545   3.644 -0.6378 -0.2786 -0.4466
 6891TIP3    H142164   4.181   4.555   3.590 -0.5434 -0.3658 -0.5980
 6891TIP3    H242165   4.286   4.455   3.630  0.1303  0.0689 -1.2503
 6892TIP3   OH242166   4.869   2.555  12.536  0.3832 -0.4294 -0.1549
 6892TIP3    H142167   4.936   2.515  12.592  0.7136  0.7769  0.3407
 6892TIP3    H242168   4.845   2.636  12.581  0.4836  0.4570 -1.6337
 6893TIP3   OH242169   5.521   1.240  15.884 -0.5131  0.1361  0.2879
 6893TIP3    H142170   5.514   1.144  15.882  0.5742  0.0496  0.1535
 6893TIP3    H242171   5.440   1.269  15.927 -1.7511 -0.7172 -1.3610
 6894TIP3   OH242172   6.414   6.093   5.194 -0.0489 -0.3170 -0.0005
 6894TIP3    H142173   6.495   6.059   5.232 -0.4511 -1.0533  0.2388
 6894TIP3    H242174   6.366   6.014   5.167 -0.5115  0.1256 -0.4924
 6895TIP3   OH242175   3.832   2.187   5.471 -0.5935 -0.7789  0.5538
 6895TIP3    H142176   3.926   2.203   5.478 -0.6117 -0.4484  0.1029
 6895TIP3    H242177   3.807   2.227   5.388 -1.7026  1.9203  2.0471
 6896TIP3   OH242178   5.955   4.679  13.458  0.0846 -0.5485 -0.7308
 6896TIP3    H142179   6.007   4.630  13.522 -1.0767 -2.0828 -0.8982
 6896TIP3    H242180   5.941   4.617  13.386  0.2630  0.7116 -1.8884
 6897TIP3   OH242181   6.358   0.576   0.081 -0.1445  0.0446  0.1076
 6897TIP3    H142182   6.381   0.628   0.159  2.0931 -1.7741  0.7705
 6897TIP3    H242183   6.406   0.618   0.010 -0.3143  0.3213  0.1524
 6898TIP3   OH242184   4.538   6.536  16.562  0.3513 -0.2267 -0.3468
 6898TIP3    H142185   4.606   6.587  16.606  1.2708 -1.2745 -0.4841
 6898TIP3    H242186   4.519   6.584  16.482  0.9644  0.0675 -0.3207
 6899TIP3   OH242187   2.418   1.715   2.953  0.2491 -0.0154  0.1559
 6899TIP3    H142188   2.501   1.667   2.951 -0.4104 -1.2233 -2.3928
 6899TIP3    H242189   2.422   1.775   2.879 -0.4044  1.3202  1.1660
 6900TIP3   OH242190   1.514   4.382   1.427  0.4080 -0.0397  0.4438
 6900TIP3    H142191   1.569   4.452   1.464  0.8581 -0.8353  1.3139
 6900TIP3    H242192   1.434   4.427   1.399  0.5690  0.7888  1.2534
 6901TIP3   OH242193   0.184   3.062   2.292 -0.4868 -0.0043  0.2012
 6901TIP3    H142194   0.174   3.010   2.371 -1.3169 -1.6436 -0.9163
 6901TIP3    H242195   0.151   3.005   2.222 -1.0895  1.9024 -1.1452
 6902TIP3   OH242196   6.458   1.847   5.486 -0.6948  0.1871 -0.3741
 6902TIP3    H142197   6.532   1.897   5.522  0.9646 -1.7753 -0.8544
 6902TIP3    H242198   6.394   1.846   5.557  0.0451  1.3130  0.3589
 6903TIP3   OH242199   1.366   3.353   2.696  0.5536  0.4736  0.2730
 6903TIP3    H142200   1.327   3.333   2.781  1.0475 -0.4395  0.3048
 6903TIP3    H242201   1.459   3.369   2.716  0.5090  1.0669  0.0084
 6904TIP3   OH242202   4.129   0.797   2.124 -0.5355  0.2198  0.1479
 6904TIP3    H142203   4.092   0.876   2.083 -1.8226 -0.5965 -0.3345
 6904TIP3    H242204   4.223   0.805   2.112 -0.8254  0.2924 -2.4909
 6905TIP3   OH242205   0.692   2.549   2.170 -0.5114  0.3934  0.3137
 6905TIP3    H142206   0.597   2.556   2.179 -0.5703  0.4714 -0.3571
 6905TIP3    H242207   0.724   2.638   2.185 -0.8038  1.0546 -2.4994
 6906TIP3   OH242208   1.303   6.273   1.765  0.2135 -0.6668  0.1093
 6906TIP3    H142209   1.302   6.367   1.783  0.4978 -0.6482  0.0385
 6906TIP3    H242210   1.380   6.241   1.813 -0.6414 -1.0916  1.2377
 6907TIP3   OH242211   6.205   6.160  12.247 -0.4111 -0.2082 -0.1221
 6907TIP3    H142212   6.228   6.202  12.330 -1.2435 -1.3162  0.6947
 6907TIP3    H242213   6.153   6.084  12.272 -2.0661  0.3105 -1.7232
 6908TIP3   OH242214   1.519   1.305  12.012  0.0411 -0.1695  0.4549
 6908TIP3    H142215   1.519   1.385  11.959 -1.0540  0.3214  1.1609
 6908TIP3    H242216   1.606   1.267  11.998  1.2049  1.9807  1.2969
 6909TIP3   OH242217   4.622   2.435  15.649  0.1494 -0.3172  0.1298
 6909TIP3    H142218   4.697   2.491  15.631 -0.0005  0.3158  1.3544
 6909TIP3    H242219   4.643   2.352  15.608  0.2464  0.6983 -2.0151
 6910TIP3   OH242220   1.717   5.089  14.939  0.0991 -0.5782 -0.0495
 6910TIP3    H142221   1.770   5.010  14.932 -0.7011 -1.1584  0.1937
 6910TIP3    H242222   1.704   5.119  14.849 -2.4582 -2.7142 -0.5083
 6911TIP3   OH242223   2.160   1.630   0.271 -0.3178  0.5648 -0.1637
 6911TIP3    H142224   2.152   1.623   0.366  1.7030  2.2546  0.2036
 6911TIP3    H242225   2.131   1.545   0.238  0.4164 -0.6285  2.0478
 6912TIP3   OH242226   3.477   4.504   0.805 -0.1278 -0.8650  0.0400
 6912TIP3    H142227   3.496   4.440   0.736  0.6059 -1.2135  0.5556
 6912TIP3    H242228   3.382   4.517   0.801 -0.0456 -0.5898 -1.2811
 6913TIP3   OH242229   3.870   6.259  15.035  0.4758 -0.7358 -0.2585
 6913TIP3    H142230   3.958   6.296  15.028 -0.0455  0.2568 -2.1109
 6913TIP3    H242231   3.857   6.212  14.953 -0.9944 -0.2269 -0.3424
 6914TIP3   OH242232   4.996   5.186  15.774 -0.5801 -0.3543 -0.1862
 6914TIP3    H142233   4.939   5.165  15.848 -0.6987 -1.0753 -0.4692
 6914TIP3    H242234   5.068   5.236  15.812 -0.9851 -0.1347  0.3040
 6915TIP3   OH242235   0.568   4.084   1.617  0.2634 -0.0901  0.1028
 6915TIP3    H142236   0.550   3.990   1.628 -0.4439  0.0864  0.4679
 6915TIP3    H242237   0.501   4.128   1.669  0.3320  0.6372 -0.4097
 6916TIP3   OH242238   1.293   1.786   1.746 -0.5902 -0.2222 -0.1732
 6916TIP3    H142239   1.375   1.739   1.756  0.0001  0.6959 -0.6534
 6916TIP3    H242240   1.279   1.792   1.652  0.0194  1.6832 -0.1767
 6917TIP3   OH242241   5.002   2.941  12.843 -0.0978  0.1104 -0.6189
 6917TIP3    H142242   4.955   2.966  12.923  1.3032 -3.2356  1.4562
 6917TIP3    H242243   5.082   2.994  12.845 -0.1496  0.1735  0.1270
 6918TIP3   OH242244   5.785   4.406  12.597  0.2604  0.0536 -0.4072
 6918TIP3    H142245   5.691   4.404  12.580 -0.3300  3.6606  1.3962
 6918TIP3    H242246   5.795   4.358  12.679 -0.3537  1.1278  0.3277
 6919TIP3   OH242247   1.191   0.819  16.498  0.1867  0.0421  0.1260
 6919TIP3    H142248   1.277   0.851  16.472 -0.2697  0.1123 -1.3631
 6919TIP3    H242249   1.151   0.893  16.543  0.4295  0.4298 -0.2901
 6920TIP3   OH242250   1.634   0.512   1.000  0.0774 -0.2710  0.2225
 6920TIP3    H142251   1.592   0.554   0.926 -0.2345  0.8204  0.9957
 6920TIP3    H242252   1.714   0.562   1.015  0.5478 -0.9786  0.1319
 6921TIP3   OH242253   2.963   1.475   0.300 -0.7132 -0.1866  0.2525
 6921TIP3    H142254   2.868   1.480   0.287 -0.7348  0.5684  0.7045
 6921TIP3    H242255   2.973   1.448   0.391 -0.4797  1.9687  0.8985
 6922TIP3   OH242256   0.785   5.097   2.188  0.1657  0.0820  0.4304
 6922TIP3    H142257   0.868   5.111   2.142 -0.7279  2.7275 -0.5308
 6922TIP3    H242258   0.754   5.013   2.156  0.4825  0.9817 -2.4830
 6923TIP3   OH242259   2.552   6.814   4.100 -0.4610  0.0025  0.0479
 6923TIP3    H142260   2.599   6.892   4.072  0.2812 -0.0811  0.9963
 6923TIP3    H242261   2.546   6.823   4.195 -1.4175 -0.5211  0.0494
 6924TIP3   OH242262   5.839   3.527  11.041  0.5579 -0.0227 -0.1371
 6924TIP3    H142263   5.883   3.461  10.988 -2.0397 -1.3346 -0.8544
 6924TIP3    H242264   5.897   3.604  11.038  3.4031 -1.9973  0.2177
 6925TIP3   OH242265   2.237   6.606  14.413  0.1422  0.1359  0.5715
 6925TIP3    H142266   2.279   6.689  14.391 -0.0702 -0.2224 -1.3864
 6925TIP3    H242267   2.272   6.584  14.500  3.7221  0.0900 -0.6921
 6926TIP3   OH242268   6.106   3.405   5.888  0.2513  0.1333 -0.0394
 6926TIP3    H142269   6.096   3.416   5.983 -1.0207  1.0998 -0.2641
 6926TIP3    H242270   6.069   3.484   5.850 -1.1035 -1.0948 -1.4224
 6927TIP3   OH242271   4.094   2.713  16.978  0.3748  0.5250  0.0543
 6927TIP3    H142272   4.116   2.684  17.066 -0.2774  0.3433  0.1613
 6927TIP3    H242273   4.114   2.638  16.922  0.4874  0.5307  0.0868
 6928TIP3   OH242274   3.166   5.749   3.489  0.0820 -0.2677 -0.5155
 6928TIP3    H142275   3.243   5.773   3.541  0.3870 -2.5278  0.1809
 6928TIP3    H242276   3.184   5.660   3.461 -1.9365 -0.5333 -1.0621
 6929TIP3   OH242277   4.848   2.722  13.447  0.1444  0.1492 -0.1210
 6929TIP3    H142278   4.929   2.771  13.431  0.4877 -0.1922  0.5749
 6929TIP3    H242279   4.866   2.635  13.413  0.6357 -0.3839  1.4273
 6930TIP3   OH242280   5.706   0.077   1.033 -0.2648  0.2639  0.6181
 6930TIP3    H142281   5.783   0.135   1.034  0.5750 -0.6957 -1.7105
 6930TIP3    H242282   5.652   0.108   1.106  0.2794  3.7660 -0.2965
 6931TIP3   OH242283   4.737   0.325  14.580  0.0638  0.9322 -0.4855
 6931TIP3    H142284   4.773   0.243  14.545 -0.6366 -0.2734  1.4325
 6931TIP3    H242285   4.812   0.384  14.584  1.0755 -0.3359  0.1179
 6932TIP3   OH242286   2.641   5.234   0.290 -0.2056  0.4086 -0.5510
 6932TIP3    H142287   2.572   5.168   0.294 -0.0605  0.2590 -0.4960
 6932TIP3    H242288   2.707   5.204   0.353 -0.0702  0.5277 -0.6356
 6933TIP3   OH242289   1.688   6.089   5.423 -0.6529  0.3431  0.0495
 6933TIP3    H142290   1.649   6.019   5.371 -0.8488 -1.1177  2.0188
 6933TIP3    H242291   1.612   6.135   5.460 -0.5460 -0.1548  0.9180
 6934TIP3   OH242292   0.754   3.247   4.160  0.8015  0.0863 -0.0101
 6934TIP3    H142293   0.775   3.233   4.068 -1.5557 -0.2885 -0.5515
 6934TIP3    H242294   0.742   3.342   4.168 -2.0925 -0.1241 -0.9051
 6935TIP3   OH242295   0.153   3.933   2.130 -0.3744  0.1615 -0.1522
 6935TIP3    H142296   0.069   3.975   2.146 -0.2285 -0.5720  3.2502
 6935TIP3    H242297   0.209   3.962   2.201  1.4168 -1.4497 -0.8100
 6936TIP3   OH242298   1.792   2.845   4.617 -0.0047  0.1098  0.0979
 6936TIP3    H142299   1.703   2.833   4.648  0.5738 -0.5763  1.6170
 6936TIP3    H242300   1.836   2.892   4.688  0.8023  0.5783 -0.6890
 6937TIP3   OH242301   4.965   3.448   4.596 -0.4512  0.7002 -0.0497
 6937TIP3    H142302   5.027   3.499   4.544  0.8783 -0.9172 -0.1366
 6937TIP3    H242303   4.994   3.459   4.686 -1.7636  2.1661  0.2446
 6938TIP3   OH242304   3.130   1.891   5.522 -0.1739 -0.0547 -0.6278
 6938TIP3    H142305   3.128   1.890   5.617 -0.7674  0.2795 -0.6301
 6938TIP3    H242306   3.050   1.937   5.497 -0.2115 -0.4675 -1.2956
 6939TIP3   OH242307   2.127   0.724  14.340  0.3469  0.3441  0.0597
 6939TIP3    H142308   2.074   0.648  14.364 -2.3584  1.4871 -1.7982
 6939TIP3    H242309   2.174   0.696  14.261  1.0343 -0.0143  0.5754
 6940TIP3   OH242310   1.839   2.487   5.508  0.9976 -0.3954 -0.1626
 6940TIP3    H142311   1.890   2.534   5.441  0.6898 -0.7801 -0.6787
 6940TIP3    H242312   1.750   2.518   5.496  0.8838 -0.7181 -0.1615
 6941TIP3   OH242313   4.751   3.052  11.641 -0.0248 -0.2406  0.1485
 6941TIP3    H142314   4.747   3.047  11.546 -0.0984  4.3641 -0.3568
 6941TIP3    H242315   4.843   3.067  11.660 -0.2589  0.9666  0.4773
 6942TIP3   OH242316   0.291   3.977   4.317  0.0765  0.2658 -0.5120
 6942TIP3    H142317   0.310   3.917   4.389 -0.5199  0.9083  0.2151
 6942TIP3    H242318   0.367   3.972   4.260  1.3898  1.0355  1.0712
 6943TIP3   OH242319   6.355   2.954  14.836  0.0816 -0.5252 -0.0188
 6943TIP3    H142320   6.345   2.999  14.920  0.5884 -0.7985  0.1890
 6943TIP3    H242321   6.273   2.972  14.790 -0.1964 -0.3632  0.5283
 6944TIP3   OH242322   6.165   4.154  14.257 -0.4471 -0.3884  0.0986
 6944TIP3    H142323   6.247   4.108  14.273 -0.3926 -0.5218 -0.5520
 6944TIP3    H242324   6.106   4.087  14.222 -0.0434  0.2257 -1.8716
 6945TIP3   OH242325   0.159   3.168   0.284 -0.6992  0.1606  0.0446
 6945TIP3    H142326   0.078   3.145   0.330 -1.3159  1.1510 -0.5010
 6945TIP3    H242327   0.211   3.088   0.284 -1.1780 -0.1750  1.4351
 6946TIP3   OH242328   2.093   6.673   0.276  0.2287  0.0281 -0.0805
 6946TIP3    H142329   2.072   6.764   0.299  1.3014  0.3886 -0.4628
 6946TIP3    H242330   2.155   6.680   0.204 -0.4542 -1.0394 -0.8078
 6947TIP3   OH242331   0.581   5.108   2.909  0.2919 -0.4166  0.4081
 6947TIP3    H142332   0.643   5.107   2.982  0.5477 -1.3211  0.1913
 6947TIP3    H242333   0.630   5.072   2.835 -0.4304 -0.9746  0.1895
 6948TIP3   OH242334   2.015   6.372  16.909 -0.1698 -1.2504  0.8276
 6948TIP3    H142335   2.088   6.319  16.880 -1.0720 -2.6322  0.9678
 6948TIP3    H242336   1.970   6.398  16.829  1.6163  1.4701  0.5604
 6949TIP3   OH242337   6.666   0.782   3.946  0.4007 -0.1298  0.7156
 6949TIP3    H142338   6.647   0.822   3.861  2.0037 -2.3867 -0.8288
 6949TIP3    H242339   6.595   0.721   3.960  0.0615  0.3436  1.1006
 6950TIP3   OH242340   5.228   4.137  11.473 -0.1658  0.1579  0.0463
 6950TIP3    H142341   5.149   4.190  11.479  0.9679  2.1409 -1.5678
 6950TIP3    H242342   5.278   4.160  11.551 -0.0360  0.8302 -0.2378
 6951TIP3   OH242343   3.613   6.637   1.506  0.1984 -0.4433 -0.4517
 6951TIP3    H142344   3.519   6.626   1.519  0.3429 -0.0045  1.1432
 6951TIP3    H242345   3.623   6.729   1.483  0.1454 -0.7665 -1.8747
 6952TIP3   OH242346   2.367   5.812  11.587 -0.2928 -0.6640  0.8448
 6952TIP3    H142347   2.273   5.809  11.572 -0.2749  1.8184 -0.1858
 6952TIP3    H242348   2.403   5.751  11.521 -0.9967  1.5420 -1.7794
 6953TIP3   OH242349   4.751   0.538   1.984 -0.3881  0.2160 -0.1146
 6953TIP3    H142350   4.782   0.560   2.072 -1.0190 -0.5577  0.3269
 6953TIP3    H242351   4.736   0.622   1.941  1.3984  0.6039 -0.0326
 6954TIP3   OH242352   2.058   0.601   4.486 -0.0602 -0.2158 -0.7520
 6954TIP3    H142353   2.078   0.683   4.441 -0.2531  1.1616  1.5096
 6954TIP3    H242354   1.966   0.584   4.465  0.6232 -1.3001 -3.2680
 6955TIP3   OH242355   3.477   1.478   2.724 -0.0042  0.7504 -0.1238
 6955TIP3    H142356   3.498   1.528   2.645  0.2556  1.4973  0.4102
 6955TIP3    H242357   3.382   1.486   2.732 -0.1579 -0.1163 -0.8687
 6956TIP3   OH242358   2.437   4.133   2.795 -0.5396  0.0608 -0.1449
 6956TIP3    H142359   2.510   4.093   2.843 -0.3226  1.6138  0.8755
 6956TIP3    H242360   2.359   4.109   2.845 -0.5778 -0.2602 -0.3490
 6957TIP3   OH242361   1.429   3.850   5.305  0.3525 -0.4362  0.6180
 6957TIP3    H142362   1.351   3.879   5.256  1.3840 -0.7390 -1.3189
 6957TIP3    H242363   1.405   3.861   5.397 -1.4978  0.7305  0.0594
 6958TIP3   OH242364   6.640   3.101  14.549  0.0892 -0.3137  0.3061
 6958TIP3    H142365   6.706   3.162  14.582  0.5798 -0.1786 -0.8551
 6958TIP3    H242366   6.667   3.084  14.458 -0.3478 -1.8321  0.4322
 6959TIP3   OH242367   2.228   3.741   1.454  0.5132  0.2658  0.2624
 6959TIP3    H142368   2.230   3.734   1.358  0.6853  2.0843  0.0847
 6959TIP3    H242369   2.224   3.651   1.485  0.6418 -0.3704 -1.4545
 6960TIP3   OH242370   0.816   3.548   0.558 -0.0242  0.0254  0.5773
 6960TIP3    H142371   0.783   3.489   0.490 -0.8496  1.7061 -0.5575
 6960TIP3    H242372   0.909   3.525   0.567 -0.1090 -0.8060 -0.5048
 6961TIP3   OH242373   6.690   1.211  13.192  0.9779  0.7805 -0.1087
 6961TIP3    H142374   6.702   1.194  13.099  2.4970 -1.2495  0.4030
 6961TIP3    H242375   6.605   1.255  13.197 -0.8692 -2.1656 -2.1635
 6962TIP3   OH242376   4.558   1.782   4.669 -1.0968 -0.3613  0.1458
 6962TIP3    H142377   4.522   1.722   4.734 -2.4010  1.5469  1.2895
 6962TIP3    H242378   4.481   1.820   4.626 -0.2850 -0.3484 -1.3857
 6963TIP3   OH242379   5.824   0.248  13.212 -0.3452 -0.1248  0.2654
 6963TIP3    H142380   5.917   0.241  13.191 -0.4609  0.1930 -0.3909
 6963TIP3    H242381   5.817   0.217  13.302  0.4870  0.4253  0.5347
 6964TIP3   OH242382   0.824   2.684  16.074  0.5953  0.3156  0.0946
 6964TIP3    H142383   0.825   2.780  16.075 -0.7230  0.3418  1.2246
 6964TIP3    H242384   0.744   2.662  16.027  0.3802 -0.2313  0.7129
 6965TIP3   OH242385   3.416   3.913   5.248  0.1440 -0.0580  0.0889
 6965TIP3    H142386   3.469   3.986   5.278  0.4951 -0.5261  0.6371
 6965TIP3    H242387   3.338   3.953   5.210 -0.9881  0.5792  2.8426
 6966TIP3   OH242388   0.996   4.263  17.207  0.4866  0.5844 -0.4193
 6966TIP3    H142389   0.986   4.351  17.169 -1.7242  0.2136 -0.8285
 6966TIP3    H242390   0.971   4.203  17.137 -0.8164 -0.2289  0.6903
 6967TIP3   OH242391   4.649   2.329   4.700  0.2330  0.1609 -0.3955
 6967TIP3    H142392   4.716   2.296   4.760 -0.0856  1.3455  0.6404
 6967TIP3    H242393   4.667   2.423   4.693 -0.4914  0.2492 -1.1889
 6968TIP3   OH242394   1.409   3.976  16.506 -0.0409  0.2278  0.0673
 6968TIP3    H142395   1.410   4.070  16.525  1.1712  0.3632 -0.5885
 6968TIP3    H242396   1.320   3.959  16.476 -0.3081  1.1436  0.3073
 6969TIP3   OH242397   4.247   4.083  13.084 -0.4199  0.5988  0.2307
 6969TIP3    H142398   4.206   4.169  13.075 -0.6051  0.3530 -1.9900
 6969TIP3    H242399   4.269   4.058  12.994  0.7372 -1.1523  0.9441
 6970TIP3   OH242400   0.038   3.363  16.909  0.4099 -0.5034  0.8341
 6970TIP3    H142401   0.107   3.361  16.974  1.3675  1.1566 -0.0737
 6970TIP3    H242402   0.083   3.367  16.825 -0.7386  1.7160  0.2593
 6971TIP3   OH242403   0.057   2.906   1.490 -0.3683  0.3456  0.4787
 6971TIP3    H142404  -0.006   2.961   1.443  0.8655 -0.1897 -1.9459
 6971TIP3    H242405   0.011   2.823   1.502 -0.4546  0.2304 -0.5279
 6972TIP3   OH242406   0.606   1.493  11.638 -0.5250  0.5022  0.3119
 6972TIP3    H142407   0.684   1.510  11.586 -1.9090  3.6451 -1.0043
 6972TIP3    H242408   0.625   1.530  11.724 -0.5127  1.1296  0.0393
 6973TIP3   OH242409   2.139   1.262   5.555 -0.3108 -0.3476 -0.5455
 6973TIP3    H142410   2.122   1.221   5.640 -1.7587 -0.3456 -0.8009
 6973TIP3    H242411   2.088   1.343   5.557  0.1322 -0.0453 -1.1896
 6974TIP3   OH242412   0.752   5.837  15.050 -0.0002  0.5388  0.2807
 6974TIP3    H142413   0.818   5.810  15.114  1.4987  4.1651  0.4917
 6974TIP3    H242414   0.717   5.919  15.086 -0.9334  1.3668 -2.3215
 6975TIP3   OH242415   4.764   0.034  12.684  0.8090  0.1408  0.5910
 6975TIP3    H142416   4.761   0.039  12.779  0.2904 -2.3442  0.7755
 6975TIP3    H242417   4.674   0.013  12.658  1.1232 -0.0499 -0.3790
 6976TIP3   OH242418   4.967   4.798  16.951 -0.2197 -0.4783 -0.0848
 6976TIP3    H142419   5.051   4.820  16.911 -0.4750 -0.2333 -0.4930
 6976TIP3    H242420   4.913   4.768  16.878 -1.4607  2.1824 -0.3659
 6977TIP3   OH242421   6.502   4.686   4.527  0.0106  0.0817  0.5024
 6977TIP3    H142422   6.454   4.606   4.547 -0.4480 -0.0062 -0.8650
 6977TIP3    H242423   6.471   4.712   4.440 -1.5734  2.9964  1.7678
 6978TIP3   OH242424   4.764   3.118  11.378  0.0244  0.2686  0.0555
 6978TIP3    H142425   4.833   3.181  11.356 -1.0597  1.7973  0.8679
 6978TIP3    H242426   4.710   3.113  11.299 -0.0639  0.5800  0.0973
 6979TIP3   OH242427   4.951   5.324   4.361  0.4913 -0.3236  0.8381
 6979TIP3    H142428   5.037   5.294   4.392  0.4631 -0.2040  1.0336
 6979TIP3    H242429   4.939   5.279   4.278  0.6191 -0.5608  0.9461
 6980TIP3   OH242430   0.698   1.872  17.232  0.5005  0.2132 -0.6126
 6980TIP3    H142431   0.771   1.873  17.171 -0.1286  0.2052 -1.3710
 6980TIP3    H242432   0.636   1.809  17.196 -1.2714  2.4148 -1.6614
 6981TIP3   OH242433   6.092   3.891  15.367 -0.3261  0.3963  0.5040
 6981TIP3    H142434   5.999   3.872  15.376 -0.5929  1.6096  0.5084
 6981TIP3    H242435   6.096   3.971  15.314  0.7717 -0.3581 -0.5959
 6982TIP3   OH242436   3.888   5.417  11.202  0.0049  0.4419  0.3717
 6982TIP3    H142437   3.890   5.482  11.273 -0.5591  0.2091  0.6010
 6982TIP3    H242438   3.886   5.333  11.247 -2.6051  0.3109  0.1262
 6983TIP3   OH242439   0.724   2.158   0.713 -0.2631  0.0056 -0.2382
 6983TIP3    H142440   0.662   2.092   0.742 -0.4231  0.2730  0.0423
 6983TIP3    H242441   0.799   2.109   0.680 -0.0062 -0.3108  0.7782
 6984TIP3   OH242442   6.188   4.530   2.702  0.5131  0.2443 -0.2083
 6984TIP3    H142443   6.203   4.622   2.679  0.1129  0.5021  0.5168
 6984TIP3    H242444   6.262   4.483   2.664  0.4522  0.7941 -1.0333
 6985TIP3   OH242445   5.440   2.951   1.871  0.1664  0.0700  0.5840
 6985TIP3    H142446   5.365   2.950   1.812 -1.4402 -0.0483  2.4904
 6985TIP3    H242447   5.443   3.042   1.904  2.7047  0.8802 -1.5660
 6986TIP3   OH242448   6.452   5.015  11.558 -0.3647 -0.0499 -0.0680
 6986TIP3    H142449   6.525   5.003  11.619  2.1306 -1.1729 -3.0146
 6986TIP3    H242450   6.392   4.944  11.578 -1.0328  1.1952  2.7656
 6987TIP3   OH242451   0.696   6.233  11.315  0.1873 -0.5991 -0.3455
 6987TIP3    H142452   0.638   6.303  11.284 -0.6129 -0.9528  0.3118
 6987TIP3    H242453   0.768   6.280  11.357 -0.2414 -0.1483 -0.0867
 6988TIP3   OH242454   5.443   5.901  12.695  0.4387  0.2716 -0.3676
 6988TIP3    H142455   5.371   5.965  12.697 -0.4006 -0.5880 -1.5785
 6988TIP3    H242456   5.434   5.852  12.777 -0.6790 -0.1395 -0.7172
 6989TIP3   OH242457   2.628   0.159  13.382  0.0124 -0.1999 -0.8093
 6989TIP3    H142458   2.586   0.221  13.442  1.7555  1.7470 -1.4872
 6989TIP3    H242459   2.695   0.116  13.435 -0.4439 -0.7050 -0.6303
 6990TIP3   OH242460   5.164   2.387   6.046 -0.1070 -0.0590 -0.1797
 6990TIP3    H142461   5.083   2.435   6.030 -0.6241 -1.1488 -1.0248
 6990TIP3    H242462   5.188   2.409   6.136 -2.2469 -0.9863  0.6869
 6991TIP3   OH242463   4.186   3.366   5.876 -0.3884 -0.2151  0.0966
 6991TIP3    H142464   4.207   3.390   5.967 -0.5980  1.3013 -0.2263
 6991TIP3    H242465   4.248   3.297   5.855  0.2537  0.0184  1.1244
 6992TIP3   OH242466   2.437   5.469   4.013  0.0215 -0.6505  0.3012
 6992TIP3    H142467   2.374   5.538   4.037 -1.3792 -2.1126  1.0435
 6992TIP3    H242468   2.495   5.510   3.949  0.0886  1.6155  1.7297
 6993TIP3   OH242469   1.849   5.632  16.243 -0.0384 -0.1129  0.5051
 6993TIP3    H142470   1.788   5.559  16.244  0.9234 -0.9361  1.5722
 6993TIP3    H242471   1.808   5.696  16.184 -1.2907 -1.1501  0.1876
 6994TIP3   OH242472   2.139   2.086  14.695  0.2195  0.3380  0.0408
 6994TIP3    H142473   2.226   2.118  14.719  0.1584 -0.6193  1.6671
 6994TIP3    H242474   2.089   2.166  14.677  1.6005  0.8793 -1.6530
 6995TIP3   OH242475   3.730   4.819   4.718  0.4181  0.4829 -0.3161
 6995TIP3    H142476   3.761   4.880   4.651  0.9815 -0.9494 -1.4327
 6995TIP3    H242477   3.745   4.732   4.679  0.4050 -0.3835  1.5274
 6996TIP3   OH242478   5.793   2.968  17.071  0.2013 -0.3449 -0.2374
 6996TIP3    H142479   5.742   2.905  17.020  1.0204 -0.1041 -1.3849
 6996TIP3    H242480   5.813   3.039  17.010  0.1052  0.5941  0.7764
 6997TIP3   OH242481   3.871   5.385   3.382 -0.1751  0.5488 -0.8151
 6997TIP3    H142482   3.900   5.475   3.365 -2.3341  1.1670 -1.4005
 6997TIP3    H242483   3.860   5.382   3.477  1.0014  0.5199 -0.6595
 6998TIP3   OH242484   5.433   6.397  14.952 -0.0038 -0.0873  0.1665
 6998TIP3    H142485   5.375   6.346  14.896 -0.9519 -0.7908  1.7443
 6998TIP3    H242486   5.382   6.475  14.974  0.6173  0.5109 -0.4414
 6999TIP3   OH242487   1.176   2.111   1.523 -0.9576  0.5976  0.1786
 6999TIP3    H142488   1.112   2.042   1.538 -0.6037 -0.2280 -1.7453
 6999TIP3    H242489   1.124   2.187   1.497 -1.2315 -0.0629 -1.3577
 7000TIP3   OH242490   6.722   5.768   1.796  0.1251 -0.2206  0.2263
 7000TIP3    H142491   6.804   5.779   1.748 -0.0523 -1.6167 -0.4492
 7000TIP3    H242492   6.655   5.762   1.727 -0.6717  1.5526  0.7733
 7001TIP3   OH242493   5.740   5.603  13.404  0.1259  0.0331  0.0741
 7001TIP3    H142494   5.767   5.663  13.334  0.0324  0.2043  0.1848
 7001TIP3    H242495   5.672   5.650  13.451 -0.7047 -0.5744 -0.4816
 7002TIP3   OH242496   1.583   5.755   2.560 -0.5450  0.2445  0.0047
 7002TIP3    H142497   1.554   5.843   2.584  1.9140  0.7841  1.3939
 7002TIP3    H242498   1.631   5.724   2.636  3.6910  0.1117 -2.3876
 7003TIP3   OH242499   2.939   1.358   3.759 -0.0585 -0.7345 -0.3654
 7003TIP3    H142500   2.871   1.425   3.761 -0.2440 -0.6819 -3.2564
 7003TIP3    H242501   3.012   1.399   3.713  1.6736 -1.0744  1.9426
 7004TIP3   OH242502   0.647   6.154   5.785 -0.5049 -0.2043 -0.4137
 7004TIP3    H142503   0.673   6.170   5.875  0.6316  0.3225 -0.8131
 7004TIP3    H242504   0.703   6.082   5.756 -2.1509 -1.6710 -0.1650
 7005TIP3   OH242505   4.793   0.700   0.152  0.3622  0.5043  0.4451
 7005TIP3    H142506   4.707   0.740   0.168  0.1995 -0.4461  2.2020
 7005TIP3    H242507   4.850   0.740   0.217  0.3829 -1.4433  1.7010
 7006TIP3   OH242508   4.193   2.484   3.678  0.2492 -0.5298  0.2699
 7006TIP3    H142509   4.271   2.470   3.731  1.3829  3.0261 -0.2041
 7006TIP3    H242510   4.136   2.536   3.734 -1.4052 -2.1435  0.1963
 7007TIP3   OH242511   2.457   1.843   4.415  0.2614 -0.2854  0.3401
 7007TIP3    H142512   2.472   1.771   4.353  1.5537 -0.9318  1.3657
 7007TIP3    H242513   2.362   1.843   4.428 -0.0881  0.0200 -1.7815
 7008TIP3   OH242514   0.417   6.061   2.983 -0.0107 -0.2665  0.5423
 7008TIP3    H142515   0.468   6.136   3.015  0.6071 -1.4686  2.5473
 7008TIP3    H242516   0.326   6.089   2.992  0.2116  0.8297 -0.3376
 7009TIP3   OH242517   3.378   3.966  15.440  0.2285 -0.4531  0.1992
 7009TIP3    H142518   3.310   3.990  15.502  1.5514 -0.9604  1.9320
 7009TIP3    H242519   3.445   3.923  15.493  2.0308  0.2700 -1.3801
 7010TIP3   OH242520   3.282   5.567  11.979 -0.2068 -0.2346  0.6943
 7010TIP3    H142521   3.278   5.642  12.039 -0.9728  0.5974 -0.3689
 7010TIP3    H242522   3.191   5.537  11.972  0.2178 -2.0517  2.0195
 7011TIP3   OH242523   1.447   2.406   1.292 -0.4668 -0.0743 -0.2134
 7011TIP3    H142524   1.386   2.342   1.256  2.1452 -3.0784  0.2205
 7011TIP3    H242525   1.428   2.407   1.386 -0.6630 -0.0712 -0.2537
 7012TIP3   OH242526   5.652   0.331  10.891  0.0716  0.0461  0.1503
 7012TIP3    H142527   5.674   0.399  10.955  0.0280  0.0451  0.1665
 7012TIP3    H242528   5.736   0.310  10.849  0.3141 -0.7735  1.0062
 7013TIP3   OH242529   2.632   3.524   1.162  0.1870  0.5313 -0.0422
 7013TIP3    H142530   2.583   3.606   1.154 -0.9849 -0.2301 -0.8937
 7013TIP3    H242531   2.707   3.536   1.104 -0.3396  0.7613 -0.6922
 7014TIP3   OH242532   2.816   4.295   2.711  0.3432 -0.5481 -0.1409
 7014TIP3    H142533   2.867   4.214   2.704  1.5661  0.1791  0.1258
 7014TIP3    H242534   2.797   4.318   2.620 -0.2833 -1.2868 -0.2094
 7015TIP3   OH242535   3.258   0.916   6.413 -0.5436  0.8857 -0.1319
 7015TIP3    H142536   3.181   0.915   6.469 -1.6909  1.0494 -1.6190
 7015TIP3    H242537   3.294   1.004   6.423  0.8824  0.0770  2.3674
 7016TIP3   OH242538   3.058   6.810   4.563  0.1122 -0.3608 -0.1135
 7016TIP3    H142539   3.134   6.868   4.562 -0.2275  0.0895 -0.1478
 7016TIP3    H242540   3.054   6.777   4.653  0.5364 -0.6412 -0.1961
 7017TIP3   OH242541   3.421   3.075  14.306 -0.2530  0.1510 -0.1011
 7017TIP3    H142542   3.457   3.019  14.375 -1.0855 -0.7202 -0.3559
 7017TIP3    H242543   3.364   3.136  14.352  0.6659  0.8197  0.1793
 7018TIP3   OH242544   5.783   0.220  13.841  0.5894 -0.1789 -0.1614
 7018TIP3    H142545   5.837   0.282  13.890  1.6630 -0.6278 -0.7454
 7018TIP3    H242546   5.731   0.275  13.782 -0.4191  0.3331  1.1760
 7019TIP3   OH242547   3.232   1.450   4.224 -0.6970  0.0666  0.1293
 7019TIP3    H142548   3.215   1.495   4.142  0.9138  1.9784  0.7744
 7019TIP3    H242549   3.172   1.491   4.287  0.1230  0.6814  0.5213
 7020TIP3   OH242550   3.223   1.708   3.152 -0.4227  0.2031 -0.8870
 7020TIP3    H142551   3.213   1.777   3.086 -1.9079  1.3545  0.4746
 7020TIP3    H242552   3.134   1.686   3.178  0.1091 -0.6912  0.2705
 7021TIP3   OH242553   6.107   6.354   1.651  0.1490  0.0020 -0.2367
 7021TIP3    H142554   6.119   6.261   1.673  2.3957  0.2492 -0.1861
 7021TIP3    H242555   6.084   6.353   1.558  2.6104 -0.5536 -0.8968
 7022TIP3   OH242556   4.362   4.457   5.568  0.1682  0.6606  0.4354
 7022TIP3    H142557   4.284   4.505   5.544 -0.5962 -0.8711 -0.2805
 7022TIP3    H242558   4.352   4.439   5.662  0.5338  1.9753  0.7392
 7023TIP3   OH242559   5.127   0.625  15.312  0.0543  0.6753  0.0868
 7023TIP3    H142560   5.032   0.623  15.300 -0.1543  0.1656  1.5315
 7023TIP3    H242561   5.139   0.679  15.391  0.8833  0.0002  0.4334
 7024TIP3   OH242562   5.572   2.572   1.161  0.0153 -0.1742  0.2781
 7024TIP3    H142563   5.589   2.582   1.255 -0.7824  0.3721  0.3716
 7024TIP3    H242564   5.659   2.555   1.123  0.3467 -0.3999  1.1078
 7025TIP3   OH242565   5.411   2.362  16.141 -0.9497  0.3907  0.3525
 7025TIP3    H142566   5.327   2.318  16.157 -1.7501  1.7322 -0.0202
 7025TIP3    H242567   5.414   2.377  16.047 -0.3290  0.4221  0.3712
 7026TIP3   OH242568   2.625   5.565  15.270 -0.2857 -0.3439  0.0718
 7026TIP3    H142569   2.657   5.533  15.354  2.0421  0.7881 -0.3002
 7026TIP3    H242570   2.533   5.589  15.287 -0.0553 -0.7312  2.1139
 7027TIP3   OH242571   1.160   1.674  14.856  0.6381  0.6234  0.0406
 7027TIP3    H142572   1.071   1.705  14.874  1.1564  2.1136  0.2176
 7027TIP3    H242573   1.216   1.744  14.888  1.8975 -0.3965  0.1338
 7028TIP3   OH242574   0.037   4.612  10.626 -0.6637 -0.2401 -0.4941
 7028TIP3    H142575  -0.013   4.596  10.546 -0.1520 -2.1185 -0.4751
 7028TIP3    H242576   0.115   4.658  10.596 -1.0493  0.1584 -0.9034
 7029TIP3   OH242577   3.480   2.374   3.982 -0.5411 -0.0385  0.1631
 7029TIP3    H142578   3.503   2.349   4.071 -0.0689  1.1573  0.3851
 7029TIP3    H242579   3.389   2.345   3.972 -0.3181 -0.9734  0.7133
 7030TIP3   OH242580   6.417   2.279   5.376  0.0158 -0.1358  0.1687
 7030TIP3    H142581   6.493   2.242   5.421 -0.2603 -2.9267 -1.4064
 7030TIP3    H242582   6.404   2.222   5.300 -4.9796 -1.2936  1.4923
 7031TIP3   OH242583   5.639   5.926  14.726 -0.0501  0.3040 -0.0194
 7031TIP3    H142584   5.592   5.908  14.645 -1.2657  0.8540  0.5537
 7031TIP3    H242585   5.683   5.843  14.746 -1.8132 -0.6491  0.1023
 7032TIP3   OH242586   2.987   0.290  11.202  0.2750  0.5825  0.1911
 7032TIP3    H142587   2.943   0.213  11.168  0.3146  1.8899 -3.1945
 7032TIP3    H242588   2.918   0.357  11.206  0.8809  1.2348 -0.1017
 7033TIP3   OH242589   5.041   4.726  13.624  1.2056  0.1477  0.0611
 7033TIP3    H142590   5.054   4.792  13.692 -0.8899  2.0584 -1.2208
 7033TIP3    H242591   5.086   4.762  13.547 -1.8371  1.4189 -1.3077
 7034TIP3   OH242592   6.489   0.468   1.050  0.2349 -0.3369 -0.2821
 7034TIP3    H142593   6.414   0.411   1.059 -0.7091  0.8138 -0.5896
 7034TIP3    H242594   6.488   0.524   1.128  1.1061 -0.6724 -0.0113
 7035TIP3   OH242595   0.488   1.541   1.562  0.1536  0.4447  0.3335
 7035TIP3    H142596   0.450   1.533   1.475  0.4256  1.3392  0.1195
 7035TIP3    H242597   0.414   1.563   1.619 -0.0396 -0.2370  0.3496
 7036TIP3   OH242598   3.467   5.172   2.282 -0.9060 -0.0991 -0.0575
 7036TIP3    H142599   3.402   5.209   2.222  0.1302  0.7333 -0.6879
 7036TIP3    H242600   3.414   5.124   2.347 -2.1112  0.0493 -0.8906
 7037TIP3   OH242601   1.993   2.194   0.191  0.1763  0.5823  0.7436
 7037TIP3    H142602   1.938   2.116   0.185 -2.4976  2.3539  0.4893
 7037TIP3    H242603   2.009   2.219   0.100  1.1917  0.2746  0.8211
 7038TIP3   OH242604   0.841   1.238   3.943 -0.1962 -0.5367  0.5868
 7038TIP3    H142605   0.805   1.307   4.000 -0.1143  0.1998 -0.2430
 7038TIP3    H242606   0.784   1.238   3.867  2.0752  1.3505 -1.2496
 7039TIP3   OH242607   4.430   4.915   4.663  0.0344  0.1761  0.0022
 7039TIP3    H142608   4.523   4.922   4.687  0.0318 -3.1142  1.5814
 7039TIP3    H242609   4.383   4.930   4.746 -0.7379  0.1274 -0.4172
 7040TIP3   OH242610   2.542   5.466   4.273  0.0384 -0.3129 -0.2656
 7040TIP3    H142611   2.500   5.383   4.296  0.0970 -0.5215 -0.8923
 7040TIP3    H242612   2.513   5.483   4.184 -0.0336  0.3861 -0.1150
 7041TIP3   OH242613   1.588   3.262   4.295  0.1579  0.2764 -0.4483
 7041TIP3    H142614   1.588   3.166   4.298 -1.4344  0.2683 -0.2059
 7041TIP3    H242615   1.636   3.288   4.374  0.5680 -0.3135 -0.4959
 7042TIP3   OH242616   2.315   4.419   4.224  0.8681  0.2369  0.2102
 7042TIP3    H142617   2.365   4.462   4.293 -0.0057 -0.8288  1.5589
 7042TIP3    H242618   2.376   4.355   4.187  0.7730 -0.5033  1.2992
 7043TIP3   OH242619   2.667   0.522  13.361 -0.4271 -0.1032 -0.5308
 7043TIP3    H142620   2.638   0.613  13.354 -2.5871 -0.8578 -3.0569
 7043TIP3    H242621   2.625   0.489  13.440  0.4765  1.0884  0.4712
 7044TIP3   OH242622   3.975   3.645   2.308 -0.6699 -0.2142  0.2600
 7044TIP3    H142623   4.009   3.641   2.398  1.0745 -1.2777 -0.3953
 7044TIP3    H242624   3.898   3.701   2.314  0.9687  2.0480  1.9675
 7045TIP3   OH242625   0.999   4.132  11.868  0.9066  0.0089  0.2063
 7045TIP3    H142626   1.081   4.179  11.853  0.4594  0.4719 -0.8998
 7045TIP3    H242627   0.940   4.198  11.905  0.7902 -0.1193  0.2499
 7046TIP3   OH242628   2.507   3.755  17.236 -0.5362 -0.3718  0.1746
 7046TIP3    H142629   2.454   3.826  17.201 -1.0652 -1.1529 -0.6357
 7046TIP3    H242630   2.528   3.783  17.325 -0.4414  0.9473 -0.2445
 7047TIP3   OH242631   6.451   2.315  17.120  0.0039 -0.8334 -0.4755
 7047TIP3    H142632   6.512   2.281  17.186 -0.6926 -1.4763 -0.1322
 7047TIP3    H242633   6.433   2.404  17.148 -2.6543 -2.0084  2.0714
 7048TIP3   OH242634   6.341   5.607   4.002 -0.0269 -0.5963  0.4705
 7048TIP3    H142635   6.396   5.541   4.044  1.7055 -0.0264 -0.7655
 7048TIP3    H242636   6.282   5.636   4.071  2.4506  0.0547  2.4803
 7049TIP3   OH242637   3.449   2.879  11.600 -0.3031 -0.4997 -0.0175
 7049TIP3    H142638   3.361   2.914  11.587 -0.4658 -0.4335  1.1622
 7049TIP3    H242639   3.506   2.954  11.591 -0.5689 -0.0817  1.4531
 7050TIP3   OH242640   2.185   3.225  15.006  0.2211 -0.2447  0.0322
 7050TIP3    H142641   2.235   3.254  14.929 -0.6324 -0.9574 -0.8099
 7050TIP3    H242642   2.100   3.267  14.996 -0.3850 -1.4755 -0.1961
 7051TIP3   OH242643   6.646   4.531  12.409 -0.3929 -0.3943  0.0982
 7051TIP3    H142644   6.667   4.441  12.433 -1.2294  0.1366  3.2473
 7051TIP3    H242645   6.550   4.536  12.413 -0.3911  0.5361 -0.5214
 7052TIP3   OH242646   0.919   6.480   4.640 -0.4164 -0.0042 -0.7421
 7052TIP3    H142647   0.930   6.396   4.686 -1.7111  0.7969  1.1492
 7052TIP3    H242648   0.999   6.528   4.658 -0.2936 -0.2633 -0.5871
 7053TIP3   OH242649   6.030   0.076  16.671 -0.4744  0.4556  0.7346
 7053TIP3    H142650   6.079   0.158  16.682  0.1225 -0.0867  2.2843
 7053TIP3    H242651   5.952   0.102  16.621  0.3678  1.7114  0.0154
 7054TIP3   OH242652   4.034   0.053  11.195 -0.1332 -0.1158  0.0936
 7054TIP3    H142653   4.042  -0.014  11.263 -0.6978 -1.9910 -1.5919
 7054TIP3    H242654   4.073   0.014  11.117 -1.5720  1.0103 -1.2741
 7055TIP3   OH242655   4.104   3.108   4.964  0.0089  0.2206 -0.1592
 7055TIP3    H142656   4.163   3.039   4.996  0.4042 -1.1143 -3.3727
 7055TIP3    H242657   4.124   3.115   4.871 -1.6288  3.1578 -0.4054
 7056TIP3   OH242658   5.186   1.688  17.096  0.5160 -0.4127 -0.0647
 7056TIP3    H142659   5.147   1.687  17.184  0.4248  2.0504 -0.0122
 7056TIP3    H242660   5.111   1.694  17.037  0.6427 -0.7051 -0.2625
 7057TIP3   OH242661   6.619   0.203  10.755  0.0864 -0.3802 -0.0447
 7057TIP3    H142662   6.538   0.255  10.758  0.8814  0.8730  0.6713
 7057TIP3    H242663   6.596   0.120  10.797 -0.8100 -0.0083  0.2255
 7058TIP3   OH242664   2.690   3.533   1.430 -0.5132  0.0902 -0.2987
 7058TIP3    H142665   2.648   3.527   1.344 -0.3847 -1.2452 -0.2855
 7058TIP3    H242666   2.778   3.566   1.411  0.1949 -1.9802 -0.9569
 7059TIP3   OH242667   0.323   3.610  11.590  0.0170 -0.6362 -0.8069
 7059TIP3    H142668   0.349   3.697  11.623 -1.2013 -0.3185 -0.6548
 7059TIP3    H242669   0.323   3.621  11.494  0.7924 -0.7553 -0.8309
 7060TIP3   OH242670   6.790   3.235  11.810  0.2209 -0.2686 -0.4219
 7060TIP3    H142671   6.703   3.209  11.839  0.1351 -1.1238 -1.3624
 7060TIP3    H242672   6.789   3.330  11.810  0.0799 -0.2289  1.8477
 7061TIP3   OH242673   1.992   3.548  16.383  0.7820  0.3051 -0.6111
 7061TIP3    H142674   2.045   3.534  16.305  1.3452  0.0794 -0.1942
 7061TIP3    H242675   1.961   3.638  16.375  1.7266  0.6412 -0.5634
 7062TIP3   OH242676   5.868   3.488   0.392 -0.1126 -0.0407 -0.0944
 7062TIP3    H142677   5.863   3.570   0.343 -0.1233  1.5513  2.4121
 7062TIP3    H242678   5.779   3.474   0.424  0.3932  0.3647  1.5736
 7063TIP3   OH242679   4.865   1.631  11.882  0.0484  0.1661  0.3415
 7063TIP3    H142680   4.812   1.569  11.931  0.2595 -0.1289  0.2042
 7063TIP3    H242681   4.847   1.716  11.921 -1.9525  0.3666 -0.8782
 7064TIP3   OH242682   4.206   1.190  15.581  0.1038  0.1427  0.6582
 7064TIP3    H142683   4.223   1.109  15.629 -1.1547 -1.2996 -1.1557
 7064TIP3    H242684   4.180   1.253  15.649  1.1950 -0.9292  2.1315
 7065TIP3   OH242685   3.711   4.514   2.009 -0.2484  0.9467  0.2781
 7065TIP3    H142686   3.759   4.431   2.002 -0.2412  0.9347  0.4739
 7065TIP3    H242687   3.619   4.488   2.005 -0.3244  0.7087  2.4141
 7066TIP3   OH242688   4.117   2.031   5.079  0.1442 -0.9492 -0.4882
 7066TIP3    H142689   4.160   2.081   5.149 -3.7680 -1.0344  2.3319
 7066TIP3    H242690   4.095   2.096   5.013 -2.6029  0.8748  1.9544
 7067TIP3   OH242691   0.815   5.932   5.055 -0.6505 -0.1997  0.1617
 7067TIP3    H142692   0.799   5.898   4.967  1.1360  0.9322 -0.6456
 7067TIP3    H242693   0.780   5.864   5.113 -2.9041 -0.4623 -1.3747
 7068TIP3   OH242694   5.242   0.561  12.850  0.4640 -0.3159  0.3424
 7068TIP3    H142695   5.157   0.516  12.841  1.3169 -1.6647 -1.8506
 7068TIP3    H242696   5.278   0.528  12.932 -0.1977 -1.4400  0.2032
 7069TIP3   OH242697   5.363   2.607   5.455 -0.0328 -0.0723 -0.1429
 7069TIP3    H142698   5.420   2.564   5.391  0.7312  0.3322  0.2493
 7069TIP3    H242699   5.407   2.690   5.474  0.5522 -0.8112  2.0126
 7070TIP3   OH242700   1.186   1.254  10.912 -0.4862 -0.3001 -0.0992
 7070TIP3    H142701   1.177   1.350  10.911 -0.0752 -0.2635 -1.2094
 7070TIP3    H242702   1.102   1.222  10.881  0.1323 -0.2082 -1.9956
 7071TIP3   OH242703   2.496   1.570   2.215 -0.1476 -0.2272 -0.0349
 7071TIP3    H142704   2.520   1.649   2.167  1.2559  1.3762  3.0383
 7071TIP3    H242705   2.438   1.601   2.284 -0.7380 -2.1534  0.3982
 7072TIP3   OH242706   3.839   1.695   2.518 -0.4412  0.4569 -0.5506
 7072TIP3    H142707   3.812   1.605   2.500  2.7885 -0.8630  0.4144
 7072TIP3    H242708   3.762   1.737   2.555 -1.6616 -2.3660  0.3334
 7073TIP3   OH242709   2.039   3.808   5.344  0.0436  0.4145  0.5518
 7073TIP3    H142710   2.023   3.779   5.254 -0.1023  0.8258  0.4460
 7073TIP3    H242711   1.960   3.855   5.369  0.0183  0.1653  0.9545
 7074TIP3   OH242712   2.914   3.091  13.753 -0.1198 -0.5331 -0.7072
 7074TIP3    H142713   2.894   3.170  13.804 -1.1753 -0.9627 -0.4423
 7074TIP3    H242714   2.874   3.019  13.802  0.5153 -1.1999 -1.1354
 7075TIP3   OH242715   0.549   2.171   4.701 -0.1978  0.6485  0.3238
 7075TIP3    H142716   0.601   2.250   4.687  1.2750 -0.3189  0.1966
 7075TIP3    H242717   0.587   2.130   4.779  0.9544 -1.4139 -1.2514
 7076TIP3   OH242718   1.043   5.198  12.556  0.6887  0.2606  0.2652
 7076TIP3    H142719   1.079   5.110  12.567  0.9554  0.5338  1.7270
 7076TIP3    H242720   0.982   5.208  12.629 -0.0640  0.9494 -0.4367
 7077TIP3   OH242721   2.606   4.022   4.734 -0.1911  0.4977 -0.0222
 7077TIP3    H142722   2.521   4.013   4.777  0.5805  0.9201  1.6972
 7077TIP3    H242723   2.658   3.949   4.767  0.2496  0.4632 -0.7587
 7078TIP3   OH242724   6.716   5.906  16.313 -0.2453  0.3721  0.3070
 7078TIP3    H142725   6.666   5.940  16.238 -1.2760  1.8267  1.5808
 7078TIP3    H242726   6.709   5.811  16.305  2.0243  0.3315 -2.9320
 7079TIP3   OH242727   4.632   4.817  11.311 -0.2503  0.2666  0.5800
 7079TIP3    H142728   4.684   4.896  11.330  0.7126 -0.3650  0.6368
 7079TIP3    H242729   4.603   4.828  11.221  0.5083  0.3520  0.3411
 7080TIP3   OH242730   4.515   3.554   0.315 -0.4532  0.3014  0.3609
 7080TIP3    H142731   4.594   3.555   0.261 -1.7316 -2.6693 -1.8491
 7080TIP3    H242732   4.449   3.599   0.262 -1.1472 -0.5563  0.4725
 7081TIP3   OH242733   5.011   0.930   5.072  0.3879 -0.2614  0.2929
 7081TIP3    H142734   5.105   0.941   5.085  0.3029  0.4584  0.3482
 7081TIP3    H242735   4.979   1.018   5.054 -0.1553 -0.6185 -0.5356
 7082TIP3   OH242736   5.872   5.789  11.150 -0.4725  0.0448  0.0348
 7082TIP3    H142737   5.886   5.872  11.106  0.7868 -0.5129 -0.6923
 7082TIP3    H242738   5.832   5.733  11.084 -0.0702 -0.3127  0.0828
 7083TIP3   OH242739   4.527   4.262  12.354  0.1297 -0.3122  0.6514
 7083TIP3    H142740   4.432   4.260  12.366  0.0852 -0.1684  0.3268
 7083TIP3    H242741   4.553   4.351  12.379 -0.4537  1.3643 -3.7961
 7084TIP3   OH242742   5.155   3.159  15.670  0.3297  0.1145 -0.4829
 7084TIP3    H142743   5.067   3.168  15.707  0.5957 -1.8129  0.8039
 7084TIP3    H242744   5.204   3.234  15.706 -0.6253  0.8820 -0.7533
 7085TIP3   OH242745   6.682   4.019  15.248  0.3867 -0.6607 -0.1941
 7085TIP3    H142746   6.631   3.948  15.286  0.4211 -0.0573  1.0272
 7085TIP3    H242747   6.739   3.976  15.184 -0.0605 -1.6320  0.0436
 7086TIP3   OH242748   2.201   6.460  11.504 -0.3198 -0.9027 -0.0207
 7086TIP3    H142749   2.246   6.469  11.420 -1.6449 -1.0379 -0.7712
 7086TIP3    H242750   2.109   6.474  11.484 -0.9419 -2.9762  1.0451
 7087TIP3   OH242751   0.090   0.535  11.087  0.1341 -0.1752  0.1117
 7087TIP3    H142752   0.007   0.491  11.065  0.1034  0.0443 -0.2236
 7087TIP3    H242753   0.087   0.617  11.038  1.5502 -1.1536 -1.7671
 7088TIP3   OH242754   0.882   1.185  15.686 -0.2451  0.4971 -0.0729
 7088TIP3    H142755   0.931   1.130  15.625  0.4843 -1.2283  1.9532
 7088TIP3    H242756   0.797   1.142  15.695  0.1372 -0.0458  1.1156
 7089TIP3   OH242757   6.020   4.961  14.885 -0.0812  0.2573 -0.3530
 7089TIP3    H142758   6.079   4.951  14.810  1.3035  1.2709  0.5527
 7089TIP3    H242759   6.017   5.056  14.900 -0.2950  0.0677  0.9036
 7090TIP3   OH242760   4.386   4.700   0.712 -0.2394 -0.6430 -0.1332
 7090TIP3    H142761   4.313   4.672   0.767  1.3361 -0.5916  2.0809
 7090TIP3    H242762   4.368   4.792   0.693 -0.3823 -0.4176  1.0494
 7091TIP3   OH242763   4.407   6.027  16.100  0.1983 -0.6314 -0.1981
 7091TIP3    H142764   4.464   6.065  16.167  0.4419 -1.5126  0.1200
 7091TIP3    H242765   4.458   6.033  16.019 -0.1001  0.4432 -0.3171
 7092TIP3   OH242766   3.489   5.743  14.260 -0.4355 -0.1340  0.2620
 7092TIP3    H142767   3.499   5.818  14.203 -1.8120 -1.4352 -1.8351
 7092TIP3    H242768   3.574   5.700  14.260 -0.1703  0.3918 -0.0532
 7093TIP3   OH242769   4.806   3.916   5.232 -0.1484  0.0672  0.0044
 7093TIP3    H142770   4.737   3.863   5.270  1.4798 -1.0751  1.4725
 7093TIP3    H242771   4.840   3.968   5.305  1.5047 -0.4788 -0.3319
 7094TIP3   OH242772   2.811   5.004   4.381  0.0640  0.0994 -0.2052
 7094TIP3    H142773   2.769   5.079   4.424  0.3026 -0.0231  0.2483
 7094TIP3    H242774   2.861   4.961   4.451  2.4170  1.2475 -1.0821
 7095TIP3   OH242775   0.505   6.680  12.742 -0.2283 -0.0321 -0.0842
 7095TIP3    H142776   0.515   6.617  12.813 -1.1793  0.4094  0.4620
 7095TIP3    H242777   0.439   6.742  12.773  0.7468  1.3013 -0.5638
 7096TIP3   OH242778   1.311   3.300  16.256  0.1833 -0.3313 -0.4974
 7096TIP3    H142779   1.391   3.264  16.293  0.8423  2.1417  0.6528
 7096TIP3    H242780   1.341   3.359  16.187 -0.6401  0.5169 -0.1494
 7097TIP3   OH242781   1.815   5.212  12.582  0.0253 -0.6828 -0.4444
 7097TIP3    H142782   1.725   5.234  12.557 -0.2730  0.2934  1.3095
 7097TIP3    H242783   1.870   5.267  12.527 -0.4552 -1.1047 -1.3563
 7098TIP3   OH242784   0.481   0.506   3.685 -0.6888 -0.0717 -0.2906
 7098TIP3    H142785   0.405   0.452   3.663 -0.8809 -0.4839  1.3274
 7098TIP3    H242786   0.464   0.537   3.774  0.5332  0.7400 -0.3163
 7099TIP3   OH242787   1.590   4.913  13.006 -0.7814  1.0120  0.0272
 7099TIP3    H142788   1.618   4.975  13.073 -0.2542  0.9701 -0.1463
 7099TIP3    H242789   1.505   4.882  13.035 -0.2774  0.5164  0.9993
 7100TIP3   OH242790   0.762   4.940   4.109  0.0532  0.0029 -0.1229
 7100TIP3    H142791   0.816   5.019   4.104 -0.7675  0.6157  0.5139
 7100TIP3    H242792   0.682   4.968   4.151 -0.1140 -1.2630  0.4530
 7101TIP3   OH242793   2.591   4.137   0.409  0.1056 -0.4398  0.3711
 7101TIP3    H142794   2.602   4.106   0.319 -0.9096  1.1740 -0.3469
 7101TIP3    H242795   2.674   4.115   0.452  1.1478 -0.0218 -1.3414
 7102TIP3   OH242796   4.942   2.172  15.810  0.3695 -0.9174  0.1555
 7102TIP3    H142797   4.955   2.077  15.806 -0.0863 -0.9681 -0.2679
 7102TIP3    H242798   4.993   2.206  15.736 -0.4920 -0.9614 -0.4798
 7103TIP3   OH242799   0.313   5.613   0.748  0.2662 -0.2528 -0.0297
 7103TIP3    H142800   0.248   5.569   0.803 -2.6095  2.4508 -0.9846
 7103TIP3    H242801   0.374   5.653   0.810  0.3977 -1.8371  0.9339
 7104TIP3   OH242802   4.026   6.781   3.979 -0.0934 -0.1782  0.5548
 7104TIP3    H142803   4.005   6.874   3.984 -0.6128 -0.2485 -0.2598
 7104TIP3    H242804   4.119   6.776   4.000 -0.0682  0.5221  0.6100
 7105TIP3   OH242805   6.069   5.778  12.713 -0.5819 -0.4251  0.1596
 7105TIP3    H142806   5.999   5.740  12.661 -0.1218 -0.1365 -0.6995
 7105TIP3    H242807   6.045   5.870  12.724  1.2581  0.6100 -3.1429
 7106TIP3   OH242808   5.382   1.517   5.209  0.2442 -0.2052 -0.0636
 7106TIP3    H142809   5.313   1.583   5.206  1.8731  1.6257  0.5024
 7106TIP3    H242810   5.335   1.434   5.215 -1.9048  1.0239  1.6489
 7107TIP3   OH242811   6.005   5.528  17.176  0.0686 -0.4651 -0.5599
 7107TIP3    H142812   6.078   5.536  17.114 -0.1124 -1.6022 -0.9314
 7107TIP3    H242813   6.044   5.487  17.253 -0.0156 -0.3436 -0.4512
 7108TIP3   OH242814   2.761   3.862  13.978 -0.0119  0.0039 -0.0403
 7108TIP3    H142815   2.778   3.949  14.015 -1.2031  0.6215 -0.8934
 7108TIP3    H242816   2.669   3.845  13.995 -0.1599 -0.4470 -1.1730
 7109TIP3   OH242817   4.939   1.573  15.261 -0.1019 -0.1982  0.4433
 7109TIP3    H142818   4.944   1.553  15.168  2.5589 -0.0928  0.4701
 7109TIP3    H242819   4.897   1.496  15.300  0.7719 -1.2572 -0.6130
 7110TIP3   OH242820   3.795   5.924  13.247 -0.3464  0.0809  0.0149
 7110TIP3    H142821   3.741   5.862  13.198  1.9012 -2.0230  0.0061
 7110TIP3    H242822   3.749   5.936  13.330 -0.6437 -2.0388  0.2083
 7111TIP3   OH242823   6.801   1.711   0.577  0.5030 -0.8827 -0.1531
 7111TIP3    H142824   6.886   1.669   0.591 -0.6003 -3.1465  0.1623
 7111TIP3    H242825   6.737   1.641   0.589 -1.4211  0.7023 -0.6143
 7112TIP3   OH242826   0.319   6.458  17.079  0.2858  0.0602 -0.1655
 7112TIP3    H142827   0.298   6.501  16.996 -0.4306  1.9029  0.9141
 7112TIP3    H242828   0.244   6.401  17.096  0.1677  0.1105 -0.5166
 7113TIP3   OH242829   4.484   4.879  14.365 -0.4629  0.1179 -0.3835
 7113TIP3    H142830   4.428   4.806  14.394 -0.1856 -0.1233 -0.4478
 7113TIP3    H242831   4.449   4.955  14.411  0.9752 -0.5192  1.9616
 7114TIP3   OH242832   1.815   5.135   3.099  0.0150  0.0973 -0.0210
 7114TIP3    H142833   1.722   5.114   3.104 -0.0150  0.2070 -0.1079
 7114TIP3    H242834   1.856   5.056   3.064  0.0924 -0.3129  0.9659
 7115TIP3   OH242835   0.653   4.613  16.065  0.2698 -0.1252  0.1244
 7115TIP3    H142836   0.712   4.571  16.001  1.5895  0.8397  0.6630
 7115TIP3    H242837   0.644   4.703  16.034 -0.4924 -0.1191  0.3540
 7116TIP3   OH242838   5.546   5.695  12.512 -0.4667  0.2470  0.0826
 7116TIP3    H142839   5.557   5.718  12.419  0.4834 -1.4033 -0.2401
 7116TIP3    H242840   5.536   5.780  12.556  0.5134  1.1428 -1.3346
 7117TIP3   OH242841   3.620   6.197   2.375 -0.6744  0.0077  0.3208
 7117TIP3    H142842   3.582   6.265   2.320 -1.3746 -0.7700 -0.1650
 7117TIP3    H242843   3.585   6.214   2.463 -0.6641  0.3952  0.2524
 7118TIP3   OH242844   2.616   0.369   2.349 -0.0386  0.1194  0.1540
 7118TIP3    H142845   2.568   0.417   2.416  2.7701  2.0452  0.9652
 7118TIP3    H242846   2.704   0.407   2.350  2.3906 -4.7272  0.5173
 7119TIP3   OH242847   0.702   5.389   5.039 -0.4836  0.4788  0.2647
 7119TIP3    H142848   0.625   5.334   5.024  0.7579 -0.4405 -4.3008
 7119TIP3    H242849   0.672   5.478   5.018 -0.7900  0.4566  0.5995
 7120TIP3   OH242850   0.533   0.217  11.197  0.0959  0.3800 -0.0379
 7120TIP3    H142851   0.473   0.283  11.163  0.3172  0.2651 -0.6652
 7120TIP3    H242852   0.584   0.263  11.264 -1.0372  0.3395  0.8727
 7121TIP3   OH242853   0.487   3.238   3.907  0.0556 -0.3843  0.4486
 7121TIP3    H142854   0.395   3.212   3.908  0.1246 -0.7732  2.3742
 7121TIP3    H242855   0.535   3.157   3.890  0.0779 -0.4907  0.9892
 7122TIP3   OH242856   4.269   4.139   3.754  0.1626  0.3214  0.3156
 7122TIP3    H142857   4.275   4.047   3.729 -0.1258  0.6061 -0.8493
 7122TIP3    H242858   4.209   4.140   3.829  2.8445 -0.8201  2.6559
 7123TIP3   OH242859   6.083   4.888  14.093 -0.3593  0.0783  0.1244
 7123TIP3    H142860   6.128   4.867  14.011 -1.8081  1.6269 -1.1305
 7123TIP3    H242861   6.144   4.947  14.138  0.0520 -0.0296 -0.2715
 7124TIP3   OH242862   3.820   2.150  15.288 -0.7310 -0.2650  0.0967
 7124TIP3    H142863   3.817   2.217  15.355 -1.7889 -1.4119  1.2513
 7124TIP3    H242864   3.733   2.151  15.248 -0.2968  0.0129 -0.8738
 7125TIP3   OH242865   5.276   4.982   2.498 -0.0822  0.1578  0.6377
 7125TIP3    H142866   5.359   5.009   2.538  0.1610  0.9345 -0.3592
 7125TIP3    H242867   5.280   4.886   2.498  0.7453  0.1811  0.7552
 7126TIP3   OH242868   4.955   5.445  14.860 -0.1785  0.0849 -0.5299
 7126TIP3    H142869   4.997   5.426  14.776 -0.5316 -0.1747 -0.6480
 7126TIP3    H242870   4.872   5.398  14.857 -0.5000  0.6337 -0.3149
 7127TIP3   OH242871   4.993   4.916   5.643 -0.2268 -0.3059 -0.3469
 7127TIP3    H142872   4.967   4.858   5.714  0.2541  0.3130  0.3492
 7127TIP3    H242873   4.914   4.966   5.622 -0.2317 -0.1155  0.1178
 7128TIP3   OH242874   6.535   5.617  15.176  0.0589  0.3266 -0.1680
 7128TIP3    H142875   6.472   5.688  15.163  1.8317  1.7026 -2.1108
 7128TIP3    H242876   6.483   5.544  15.208 -2.3584  1.6429 -0.7992
 7129TIP3   OH242877   3.146   3.919   3.414 -0.0872 -0.6362  0.0965
 7129TIP3    H142878   3.090   3.876   3.479  2.0662  0.6507  3.0176
 7129TIP3    H242879   3.117   4.010   3.413  0.7471 -0.3614  0.2568
 7130TIP3   OH242880   3.134   1.148  16.669 -0.1239 -0.0118  0.0893
 7130TIP3    H142881   3.179   1.230  16.650 -0.9685  0.4876  0.1526
 7130TIP3    H242882   3.048   1.176  16.701  0.2394 -0.8762  1.9505
 7131TIP3   OH242883   1.701   0.145   4.682 -0.5057 -0.0366 -0.1759
 7131TIP3    H142884   1.729   0.055   4.668  0.1140 -0.0915  1.2076
 7131TIP3    H242885   1.782   0.193   4.698 -1.0018 -0.1889  3.8809
 7132TIP3   OH242886   1.853   4.546  10.533  0.3733 -0.3933  0.3679
 7132TIP3    H142887   1.787   4.606  10.568 -0.8281 -1.8880  0.7347
 7132TIP3    H242888   1.809   4.500  10.463  1.0492 -1.3697  0.5666
 7133TIP3   OH242889   6.610   2.468  13.266 -0.4809  0.5500 -0.1312
 7133TIP3    H142890   6.537   2.460  13.205 -0.1894 -1.7917 -0.2431
 7133TIP3    H242891   6.594   2.400  13.332 -0.1137  2.1845  1.7289
 7134TIP3   OH242892   4.078   0.052  16.733 -0.3168 -0.0143  0.3159
 7134TIP3    H142893   4.087   0.120  16.799  0.1696 -1.1834  1.5084
 7134TIP3    H242894   3.998   0.075  16.686 -1.2190  0.3565  1.9338
 7135TIP3   OH242895   1.804   1.597  12.692  0.0922 -0.1026 -0.0616
 7135TIP3    H142896   1.724   1.633  12.730 -0.6724  1.3280 -2.7501
 7135TIP3    H242897   1.773   1.536  12.624  1.3142 -0.5912 -0.2153
 7136TIP3   OH242898   2.099   1.893  11.806  0.1664  0.2047 -0.0504
 7136TIP3    H142899   2.169   1.957  11.820  1.1290 -0.8529  0.1132
 7136TIP3    H242900   2.052   1.926  11.729  1.4945  0.3997 -0.8068
 7137TIP3   OH242901   2.490   6.785  13.260 -0.5759 -0.4118  0.2845
 7137TIP3    H142902   2.404   6.812  13.226 -0.2011 -0.9474 -1.1710
 7137TIP3    H242903   2.529   6.866  13.293 -1.6718 -0.1761  1.0875
 7138TIP3   OH242904   3.597   1.991  17.036 -0.0346 -0.2607 -0.1937
 7138TIP3    H142905   3.609   1.933  16.961 -0.1561 -1.3259  0.5918
 7138TIP3    H242906   3.648   2.069  17.014 -0.0884 -0.5375 -1.3853
 7139TIP3   OH242907   0.510   3.149   0.162 -0.6610 -0.0571  0.3532
 7139TIP3    H142908   0.605   3.140   0.156 -0.7787 -0.2681 -1.6588
 7139TIP3    H242909   0.492   3.142   0.256  1.3597  0.7332  0.8471
 7140TIP3   OH242910   2.094   6.189  11.644  0.0633 -0.5211  0.6131
 7140TIP3    H142911   2.128   6.125  11.582 -2.4151 -1.6981  0.3721
 7140TIP3    H242912   2.061   6.261  11.589 -0.3385 -0.6638  0.6610
 7141TIP3   OH242913   2.168   5.582  15.343 -0.0587 -0.2865  0.0976
 7141TIP3    H142914   2.074   5.567  15.335  0.1578 -1.7629 -0.0627
 7141TIP3    H242915   2.179   5.620  15.430 -0.7148 -1.0800  0.5451
 7142TIP3   OH242916   5.402   5.457  12.012  0.4973  0.0242 -0.1598
 7142TIP3    H142917   5.471   5.518  11.985  1.1328  0.3694  1.9828
 7142TIP3    H242918   5.449   5.384  12.052 -0.3309  0.5125  1.8266
 7143TIP3   OH242919   3.157   1.702  15.968  0.6350 -0.0667 -0.5442
 7143TIP3    H142920   3.222   1.683  16.035 -0.4448 -0.2093  0.5065
 7143TIP3    H242921   3.123   1.616  15.942  0.8373  0.0075 -1.0684
 7144TIP3   OH242922   4.586   2.593   3.766 -0.0502 -0.2414 -0.1695
 7144TIP3    H142923   4.530   2.655   3.813  0.1184 -1.6677  2.0512
 7144TIP3    H242924   4.667   2.641   3.749 -0.2279  0.4098  0.7665
 7145TIP3   OH242925   1.877   3.890  14.448  0.2762  0.0778  0.1248
 7145TIP3    H142926   1.806   3.898  14.384  1.8821 -1.7037 -2.0378
 7145TIP3    H242927   1.837   3.845  14.522 -1.6256  2.1490  0.4584
 7146TIP3   OH242928   3.241   2.459   4.173  0.4799  0.2305 -0.4785
 7146TIP3    H142929   3.335   2.452   4.190  0.3382  0.1198  0.2882
 7146TIP3    H242930   3.201   2.393   4.230 -0.2681  1.9590  1.1100
 7147TIP3   OH242931   4.634   3.579   1.318 -0.3314  0.1019 -0.1969
 7147TIP3    H142932   4.574   3.585   1.244  0.3471 -1.0929 -0.8877
 7147TIP3    H242933   4.721   3.590   1.279  0.0005  0.0612  0.5122
 7148TIP3   OH242934   0.286   1.665  12.913  0.7685 -0.6160  0.4651
 7148TIP3    H142935   0.306   1.645  12.821 -0.3939  0.8571 -0.1491
 7148TIP3    H242936   0.259   1.581  12.950  0.5229 -1.0971 -0.7473
 7149TIP3   OH242937   5.755   0.004   2.887  0.1617  0.1863  0.7617
 7149TIP3    H142938   5.747   0.022   2.981  1.5564 -0.1488  0.9713
 7149TIP3    H242939   5.671   0.031   2.850 -0.2129  0.8340  2.0234
 7150TIP3   OH242940   1.173   5.929   1.176 -0.7921 -0.1666  0.2135
 7150TIP3    H142941   1.095   5.954   1.227 -1.3705 -1.0260 -0.2264
 7150TIP3    H242942   1.169   5.984   1.098 -0.6625  0.1617  0.4329
 7151TIP3   OH242943   5.695   0.379   0.752 -0.3294  0.1333  0.0384
 7151TIP3    H142944   5.770   0.412   0.802 -0.1873  0.8997 -0.6610
 7151TIP3    H242945   5.627   0.365   0.818  0.0671  0.4790  0.5341
 7152TIP3   OH242946   3.683   1.858   0.572 -0.6287  0.4120  0.2349
 7152TIP3    H142947   3.589   1.840   0.576 -0.6770  0.4833 -0.4434
 7152TIP3    H242948   3.691   1.951   0.595 -0.6069  0.1388  1.4003
 7153TIP3   OH242949   5.836   2.917  10.903 -0.3159  0.4915 -0.1935
 7153TIP3    H142950   5.899   2.857  10.864 -0.2715 -0.2717  1.0289
 7153TIP3    H242951   5.834   2.894  10.996 -0.5655  2.1409  0.2401
 7154TIP3   OH242952   1.726   6.098  15.635  0.3607  1.0764  0.5582
 7154TIP3    H142953   1.678   6.166  15.683 -1.9717 -0.7287  0.9863
 7154TIP3    H242954   1.662   6.064  15.571  1.0719 -1.3663  1.0426
 7155TIP3   OH242955   3.109   0.207  11.702 -0.1281  0.0841  0.0997
 7155TIP3    H142956   3.116   0.167  11.789 -1.2030 -2.5915 -0.9415
 7155TIP3    H242957   3.067   0.140  11.648  3.4934  0.2988 -3.3833
 7156TIP3   OH242958   1.431   2.763   0.342 -0.1809  0.5499  0.1968
 7156TIP3    H142959   1.412   2.855   0.360  0.6844  0.6389  0.6905
 7156TIP3    H242960   1.487   2.735   0.414 -1.1380 -0.6139  0.5220
 7157TIP3   OH242961   3.132   3.919   3.123 -0.0080  0.0031 -0.1359
 7157TIP3    H142962   3.139   3.859   3.049 -0.1058  0.0602 -0.1914
 7157TIP3    H242963   3.166   3.869   3.198 -2.6253 -1.1169  0.3952
 7158TIP3   OH242964   0.618   0.642   0.183  0.3357  0.2173 -0.3883
 7158TIP3    H142965   0.590   0.733   0.185 -1.6007 -0.3483  0.0552
 7158TIP3    H242966   0.565   0.602   0.115  1.6863 -0.4586 -1.0957
 7159TIP3   OH242967   0.239   1.589  17.081  0.0017  0.3989  0.2478
 7159TIP3    H142968   0.180   1.533  17.131  2.3960 -1.3377  1.3372
 7159TIP3    H242969   0.295   1.629  17.147  0.7806  1.0940 -0.8085
 7160TIP3   OH242970   3.854   1.293  11.362  0.1655 -0.1982  0.0517
 7160TIP3    H142971   3.938   1.270  11.323  0.5556 -1.6426  1.6407
 7160TIP3    H242972   3.852   1.389  11.360  0.7409 -0.1928 -2.2086
 7161TIP3   OH242973   3.366   6.145  11.205 -0.1983 -0.3650  0.0818
 7161TIP3    H142974   3.434   6.127  11.140  0.0079  1.5026 -0.2666
 7161TIP3    H242975   3.321   6.222  11.171 -0.2654  0.4801  1.9995
 7162TIP3   OH242976   0.824   6.231  15.232  0.5573 -0.7203 -0.4989
 7162TIP3    H142977   0.912   6.249  15.201 -0.0121  0.8892 -1.3053
 7162TIP3    H242978   0.782   6.318  15.237 -0.0819 -1.0888  2.7018
 7163TIP3   OH242979   5.029   3.052  11.554  0.2022  0.5216  0.3908
 7163TIP3    H142980   4.990   3.023  11.471 -0.2315 -0.1853  0.8308
 7163TIP3    H242981   5.085   3.125  11.529 -0.0326  0.4157 -0.5102
 7164TIP3   OH242982   4.785   3.402   4.868 -0.5030 -0.1185 -0.2358
 7164TIP3    H142983   4.695   3.372   4.857  0.1221 -1.7909 -1.1949
 7164TIP3    H242984   4.833   3.324   4.897  0.5683  0.8607  0.7600
 7165TIP3   OH242985   3.249   6.798  14.651  0.4727  0.3445 -0.2474
 7165TIP3    H142986   3.306   6.875  14.650  0.0259  0.6907 -1.6851
 7165TIP3    H242987   3.205   6.802  14.736  2.7752 -0.1172  1.0207
 7166TIP3   OH242988   2.805   0.540   1.800  0.2996  0.6940  0.0005
 7166TIP3    H142989   2.734   0.583   1.752 -1.2107 -0.3853  1.1843
 7166TIP3    H242990   2.862   0.504   1.732 -1.3117 -0.0477 -1.0116
 7167TIP3   OH242991   0.047   2.772   5.848 -0.2586 -0.5379  0.0020
 7167TIP3    H142992  -0.022   2.837   5.839 -0.8814 -1.1880 -0.0821
 7167TIP3    H242993   0.000   2.690   5.868  0.5484 -0.7997  0.8981
 7168TIP3   OH242994   4.526   2.652  16.765  0.8796 -0.1488 -0.0831
 7168TIP3    H142995   4.500   2.561  16.752 -1.1953  0.2696  0.7023
 7168TIP3    H242996   4.468   2.702  16.708  0.4361  0.8004  1.1422
 7169TIP3   OH242997   1.716   2.522  12.112 -0.4849  0.2460 -0.4113
 7169TIP3    H142998   1.698   2.444  12.165  2.8528 -1.0213 -0.8899
 7169TIP3    H242999   1.707   2.595  12.173 -1.0265 -0.7694  0.7700
 7170TIP3   OH243000   0.993   6.034   6.118 -0.0788  0.5752  0.6244
 7170TIP3    H143001   1.067   6.028   6.179 -0.2766 -0.8012  0.7595
 7170TIP3    H243002   0.919   5.996   6.165 -0.0116 -1.4714 -0.7837
 7171TIP3   OH243003   3.775   6.426   1.424  0.1888  0.5779  0.1092
 7171TIP3    H143004   3.725   6.346   1.439 -0.3845  1.3998  3.3546
 7171TIP3    H243005   3.722   6.495   1.463  0.1013  2.8875 -3.5403
 7172TIP3   OH243006   4.853   0.469   1.755 -0.6803  0.2496  0.0055
 7172TIP3    H143007   4.917   0.540   1.760  0.7814 -1.0719  1.2882
 7172TIP3    H243008   4.787   0.491   1.820 -1.5086  1.5661 -1.2394
 7173TIP3   OH243009   2.160   3.634   5.528 -0.3288  0.4736  0.2530
 7173TIP3    H143010   2.122   3.717   5.501 -0.1626 -0.0112 -1.6281
 7173TIP3    H243011   2.093   3.593   5.583 -1.4876  0.7547 -0.8905
 7174TIP3   OH243012   5.180   0.362  16.553  0.2213  0.2769  0.4463
 7174TIP3    H143013   5.098   0.314  16.541  0.7173 -0.3178 -0.7046
 7174TIP3    H243014   5.232   0.340  16.476  1.5789  0.4206  1.2917
 7175TIP3   OH243015   3.780   1.149  11.096  0.4787 -0.4012 -0.3065
 7175TIP3    H143016   3.781   1.153  11.191  0.8828  1.4547 -0.3385
 7175TIP3    H243017   3.703   1.096  11.074 -2.7289  3.2006  1.0639
 7176TIP3   OH243018   5.153   1.364  17.022 -0.1912  0.5277 -0.0102
 7176TIP3    H143019   5.080   1.401  16.972  0.1449  0.8521 -0.2719
 7176TIP3    H243020   5.133   1.387  17.113 -1.6791 -1.5395  0.2575
 7177TIP3   OH243021   6.636   1.215  15.385 -0.1137 -0.0790  0.3240
 7177TIP3    H143022   6.550   1.240  15.419  0.0060  0.7431  0.0506
 7177TIP3    H243023   6.649   1.271  15.308  2.0634  2.3084  2.2065
 7178TIP3   OH243024   1.678   1.916   1.824 -0.0286 -0.1498 -0.1466
 7178TIP3    H143025   1.643   1.910   1.735 -1.5020 -0.1530  0.3942
 7178TIP3    H243026   1.772   1.929   1.812 -0.1036 -0.7370 -1.6892
 7179TIP3   OH243027   5.991   4.799  17.196 -0.3343  0.3586  0.5534
 7179TIP3    H143028   5.943   4.823  17.117  3.3076  1.5543 -1.5044
 7179TIP3    H243029   5.998   4.880  17.246  1.0761  0.6728 -0.1100
 7180TIP3   OH243030   2.190   0.063   3.746 -0.1118 -0.3046  0.5392
 7180TIP3    H143031   2.110   0.114   3.734  0.5034  1.0437  1.9038
 7180TIP3    H243032   2.195   0.007   3.668 -0.6805  1.8974 -1.1716
 7181TIP3   OH243033   4.862   1.049  11.609 -0.0595  0.3644 -0.0566
 7181TIP3    H143034   4.894   1.112  11.674  0.2812  0.3884 -0.2432
 7181TIP3    H243035   4.927   1.053  11.538 -0.5511  0.5145 -0.5058
 7182TIP3   OH243036   4.061   4.727   1.138 -0.3889  0.2866  0.8320
 7182TIP3    H143037   4.109   4.771   1.208  1.1134  0.9982 -0.6041
 7182TIP3    H243038   4.100   4.639   1.134  0.3603  0.6460  0.1036
 7183TIP3   OH243039   3.824   6.712   2.887  0.1320  0.1726 -0.4553
 7183TIP3    H143040   3.777   6.637   2.926 -0.4883  1.4889  1.4966
 7183TIP3    H243041   3.909   6.676   2.861 -0.4240 -1.3747 -0.2741
 7184TIP3   OH243042   3.997   5.106   0.998  0.0826  0.5062  0.2032
 7184TIP3    H143043   4.067   5.040   0.994 -0.3004  0.1224 -0.6615
 7184TIP3    H243044   4.009   5.149   1.082  0.7274 -0.2546  0.5216
 7185TIP3   OH243045   1.411   1.753  13.712  0.2288 -0.4326  0.5140
 7185TIP3    H143046   1.366   1.796  13.785 -0.7867  1.5142 -1.1599
 7185TIP3    H243047   1.342   1.731  13.650  1.2388 -0.1953 -0.7545
 7186TIP3   OH243048   1.231   6.157  11.052  0.1390 -0.2107  0.2969
 7186TIP3    H143049   1.304   6.145  11.112 -0.3118  1.2792  1.1888
 7186TIP3    H243050   1.273   6.177  10.968  0.8240  2.4089  1.1815
 7187TIP3   OH243051   1.912   1.206  10.823  0.0543  0.3930  0.1851
 7187TIP3    H143052   1.818   1.225  10.825 -0.0010  1.1497 -3.1725
 7187TIP3    H243053   1.917   1.111  10.827 -1.0277  0.2345 -1.3932
 7188TIP3   OH243054   4.551   0.600   2.418  0.1265 -0.3985  0.1668
 7188TIP3    H143055   4.608   0.675   2.434 -1.7690  1.0539  0.5995
 7188TIP3    H243056   4.585   0.531   2.475  0.3430  1.0221  1.8531
 7189TIP3   OH243057   0.706   1.102   2.443 -0.2934 -0.3139  0.3152
 7189TIP3    H143058   0.700   1.185   2.395 -0.5115 -1.1970 -1.2706
 7189TIP3    H243059   0.661   1.118   2.525 -0.4379  1.1082 -0.0140
 7190TIP3   OH243060   3.142   0.108   5.095 -0.4869  0.3385 -0.2592
 7190TIP3    H143061   3.235   0.093   5.113 -0.1025 -1.1413 -2.9490
 7190TIP3    H243062   3.099   0.027   5.125 -0.8095  0.6585  0.1630
 7191TIP3   OH243063   2.844   2.882  13.943 -0.1062 -0.1637  0.0642
 7191TIP3    H143064   2.760   2.913  13.908 -0.7574  0.6415  2.1488
 7191TIP3    H243065   2.821   2.803  13.992  0.4214 -0.1330  0.3613
 7192TIP3   OH243066   6.754   2.272  11.994 -0.1109  0.3825 -0.5986
 7192TIP3    H143067   6.772   2.336  12.062 -0.7238 -1.3734  1.3362
 7192TIP3    H243068   6.840   2.244  11.964  0.2028  0.4611  0.1950
 7193TIP3   OH243069   2.019   0.662   5.337  0.4132 -0.1146  0.1895
 7193TIP3    H143070   2.037   0.746   5.378  1.3816 -0.9322  1.5196
 7193TIP3    H243071   2.084   0.655   5.267  1.7225 -0.6118  1.3992
 7194TIP3   OH243072   3.115   3.303   3.468  0.5934  0.2873 -0.4392
 7194TIP3    H143073   3.065   3.379   3.439  0.9269  0.6872  0.0236
 7194TIP3    H243074   3.061   3.263   3.537  0.2448 -0.1167 -0.9374
 7195TIP3   OH243075   2.792   5.045   2.560  0.0977 -0.3932  0.0886
 7195TIP3    H143076   2.798   5.123   2.504  0.8926  0.0837  0.8008
 7195TIP3    H243077   2.877   5.041   2.604 -0.5908 -0.5996  1.4499
 7196TIP3   OH243078   6.391   0.664  13.141 -0.6135  0.1372  0.5355
 7196TIP3    H143079   6.376   0.666  13.046  1.2800  1.5702  0.1828
 7196TIP3    H243080   6.327   0.725  13.176 -0.8272  0.1842  0.0753
 7197TIP3   OH243081   6.583   3.664  15.913  0.5095  0.5099 -0.8654
 7197TIP3    H143082   6.601   3.758  15.924  1.8781  0.2376 -0.5346
 7197TIP3    H243083   6.502   3.649  15.963  0.5066  1.4340 -0.5674
 7198TIP3   OH243084   5.822   2.675   1.000 -0.0393 -0.0910  0.3147
 7198TIP3    H143085   5.792   2.759   1.034  0.7396  0.9470 -1.4346
 7198TIP3    H243086   5.866   2.633   1.074 -3.5483 -0.6607  2.3061
 7199TIP3   OH243087   3.154   6.086  13.943  0.1899  0.0979  0.4897
 7199TIP3    H143088   3.213   6.011  13.956  0.4018  0.2469  0.3847
 7199TIP3    H243089   3.095   6.057  13.874  0.0630 -0.0970  0.6774
 7200TIP3   OH243090   1.029   2.747  14.649 -0.3890 -0.1105 -0.1068
 7200TIP3    H143091   1.005   2.687  14.578 -0.9164  0.6135 -0.5576
 7200TIP3    H243092   1.039   2.832  14.606 -0.8274  0.3587  0.7029
 7201TIP3   OH243093   4.108   0.949  14.977  0.3860 -0.2079  0.0444
 7201TIP3    H143094   4.053   0.974  14.903 -0.6325 -0.6712  0.6242
 7201TIP3    H243095   4.061   0.876  15.018  1.1757 -0.2716  0.8598
 7202TIP3   OH243096   0.711   2.668   0.825  0.7667  0.1078  0.4106
 7202TIP3    H143097   0.764   2.668   0.904  0.8181 -0.1940  0.3780
 7202TIP3    H243098   0.635   2.721   0.847 -1.0451 -2.8412  1.9350
 7203TIP3   OH243099   3.261   4.982   5.174 -0.2738  0.0579 -0.5903
 7203TIP3    H143100   3.318   5.029   5.113 -0.7301  0.2312 -0.8866
 7203TIP3    H243101   3.178   4.975   5.128 -0.0714 -1.5297 -0.7834
 7204TIP3   OH243102   5.613   0.624  15.898  0.9742 -0.0756 -0.3872
 7204TIP3    H143103   5.573   0.555  15.950  1.0477 -0.4772 -0.8567
 7204TIP3    H243104   5.615   0.700  15.956  1.1239 -0.5351  0.2228
 7205TIP3   OH243105   4.583   0.712  16.711 -0.6820  0.0610 -0.4479
 7205TIP3    H143106   4.489   0.725  16.698 -0.6160  1.6536  0.3769
 7205TIP3    H243107   4.621   0.726  16.624 -1.1754 -0.2439 -0.7158
 7206TIP3   OH243108   4.166   3.921   2.286  0.5925  0.3135 -0.0624
 7206TIP3    H143109   4.101   3.890   2.223 -0.2871  1.4069  0.2725
 7206TIP3    H243110   4.244   3.940   2.233  0.4014 -0.2940 -0.5778
 7207TIP3   OH243111   0.325   0.414   0.690 -0.4112  0.6481  0.2778
 7207TIP3    H143112   0.314   0.508   0.672  1.5955  0.9356  0.3133
 7207TIP3    H243113   0.377   0.381   0.616  1.3132  0.2003  1.6218
 7208TIP3   OH243114   2.129   6.648  12.369 -0.2526  0.1083 -0.3313
 7208TIP3    H143115   2.075   6.608  12.437 -0.7320  1.1498 -0.0761
 7208TIP3    H243116   2.214   6.662  12.410 -0.3347  0.1210 -0.1637
 7209TIP3   OH243117   5.890   6.699   4.075  0.2734 -0.1649 -0.3494
 7209TIP3    H143118   5.804   6.735   4.098  0.6599  0.6807 -0.2026
 7209TIP3    H243119   5.871   6.635   4.006 -0.3659  0.7805 -1.0845
 7210TIP3   OH243120   2.874   5.212  13.542  0.5837 -0.0375 -0.4390
 7210TIP3    H143121   2.808   5.270  13.580  1.7785  1.0295  0.1105
 7210TIP3    H243122   2.852   5.208  13.449 -0.9345 -0.6905 -0.0841
 7211TIP3   OH243123   2.888   2.871  12.313  0.7067 -0.2613  0.2411
 7211TIP3    H143124   2.895   2.965  12.294  0.8098 -0.4600 -0.8071
 7211TIP3    H243125   2.918   2.829  12.232  0.5969 -1.1955  0.6781
 7212TIP3   OH243126   0.267   2.783   2.403 -0.6943  0.4394  0.3097
 7212TIP3    H143127   0.319   2.798   2.482  0.2901  2.8504 -0.6897
 7212TIP3    H243128   0.329   2.744   2.341 -0.6657  1.1833 -0.1434
 7213TIP3   OH243129   5.735   6.397   6.060 -0.0579  0.0600  0.0990
 7213TIP3    H143130   5.787   6.319   6.041  0.3445  0.8972 -2.7381
 7213TIP3    H243131   5.797   6.459   6.098 -0.3039 -0.8374  2.0372
 7214TIP3   OH243132   5.359   4.018   4.367 -0.3082 -0.2282  0.0674
 7214TIP3    H143133   5.452   4.034   4.352 -0.4577 -0.3525 -1.0363
 7214TIP3    H243134   5.321   4.105   4.381 -0.0104 -0.1868  0.6337
 7215TIP3   OH243135   0.145   0.248  13.938 -0.0219 -0.0381 -0.6163
 7215TIP3    H143136   0.102   0.271  14.020 -3.2629 -0.0163 -2.1785
 7215TIP3    H243137   0.130   0.154  13.928  1.7417 -0.3750 -0.5033
 7216TIP3   OH243138   2.117   6.284  14.446  0.0122 -0.1488 -0.2903
 7216TIP3    H143139   2.105   6.376  14.471  2.6424  0.1619  0.0417
 7216TIP3    H243140   2.082   6.279  14.357 -0.7007  1.0067 -0.1018
 7217TIP3   OH243141   2.900   5.818  12.183 -0.6501 -0.2116  0.1207
 7217TIP3    H143142   2.857   5.780  12.107 -0.6609 -1.2127  0.6139
 7217TIP3    H243143   2.904   5.747  12.247  2.7428 -0.5771 -0.2961
 7218TIP3   OH243144   0.756   3.256   0.880 -0.3335  0.3179 -0.5936
 7218TIP3    H143145   0.843   3.255   0.841  0.0327 -0.8662  0.2095
 7218TIP3    H243146   0.770   3.287   0.970 -0.9138  1.2576 -0.8129
 7219TIP3   OH243147   5.995   5.901  13.257  0.2373 -0.2455 -0.0659
 7219TIP3    H143148   5.997   5.994  13.235 -1.2570 -0.6653 -2.1939
 7219TIP3    H243149   6.070   5.864  13.211  1.5492  0.0211  1.7334
 7220TIP3   OH243150   3.431   1.776   0.694  0.4093 -0.0551  0.4124
 7220TIP3    H143151   3.369   1.720   0.648  0.5577  0.9106 -1.0175
 7220TIP3    H243152   3.439   1.736   0.781 -1.3253 -0.8565  0.2595
 7221TIP3   OH243153   1.172   1.476  12.711 -0.1185  0.3032  0.3960
 7221TIP3    H143154   1.108   1.425  12.662  0.0192  0.4115  0.1001
 7221TIP3    H243155   1.255   1.430  12.696 -0.2908 -0.4604  1.6527
 7222TIP3   OH243156   2.676   1.837   5.985  0.3705 -0.2951 -0.5846
 7222TIP3    H143157   2.674   1.743   6.001  0.3229 -0.5822 -2.0683
 7222TIP3    H243158   2.674   1.877   6.072  2.7412 -1.6792  0.2100
 7223TIP3   OH243159   3.322   5.779  12.153 -0.1292 -0.0047  0.7151
 7223TIP3    H143160   3.281   5.865  12.152 -1.9489 -0.8075  1.5627
 7223TIP3    H243161   3.262   5.724  12.204  2.1487 -1.2178  2.2694
 7224TIP3   OH243162   2.555   1.998   1.002  0.0338 -0.3652 -0.1891
 7224TIP3    H143163   2.512   2.057   0.941 -2.1368  0.5708  2.0607
 7224TIP3    H243164   2.602   2.056   1.063 -1.3867 -0.9028  1.5200
 7225TIP3   OH243165   5.167   4.260  16.434  0.1879  0.4119 -0.0440
 7225TIP3    H143166   5.177   4.170  16.466  0.3814  0.4335 -0.0448
 7225TIP3    H243167   5.165   4.250  16.338  1.3604  0.5229 -0.0850
 7226TIP3   OH243168   1.774   1.198  11.932 -0.0998  0.2586 -0.4792
 7226TIP3    H143169   1.786   1.112  11.891  2.6081 -0.2692  1.1583
 7226TIP3    H243170   1.841   1.253  11.892  0.2541  0.6968  0.6760
 7227TIP3   OH243171   2.297   4.914  12.402 -0.1449  0.4243 -0.2526
 7227TIP3    H143172   2.364   4.908  12.469 -0.0736 -0.2885 -0.3716
 7227TIP3    H243173   2.275   4.822  12.383 -0.2971  0.6221 -1.0583
 7228TIP3   OH243174   1.656   4.055  11.487  0.4398 -0.3486 -0.2136
 7228TIP3    H143175   1.632   4.086  11.400  0.5896  0.3722 -0.0023
 7228TIP3    H243176   1.587   3.992  11.510 -0.6122  0.8137 -0.0992
 7229TIP3   OH243177   0.998   3.313  12.250 -0.5811  0.5294 -0.0436
 7229TIP3    H143178   0.989   3.286  12.158 -0.1606  0.8048 -0.1695
 7229TIP3    H243179   1.057   3.388  12.247 -0.8403  0.7580  0.4197
 7230TIP3   OH243180   3.098   2.424  17.161  0.1438  0.0143  0.0072
 7230TIP3    H143181   3.012   2.417  17.121  0.4597 -2.5357 -0.4249
 7230TIP3    H243182   3.083   2.403  17.253  0.0741  1.3744  0.3236
 7231TIP3   OH243183   6.803   4.911  16.353  0.1215  0.2303  1.1235
 7231TIP3    H143184   6.745   4.943  16.284  0.6398 -0.4590  0.3469
 7231TIP3    H243185   6.763   4.941  16.434 -0.2413  1.4775  0.5072
 7232TIP3   OH243186   4.699   5.060  14.687 -0.4558  0.0553  0.4397
 7232TIP3    H143187   4.763   5.033  14.621  1.1243 -1.2451  2.3671
 7232TIP3    H243188   4.637   5.115  14.639  0.1165 -1.4551 -2.2794
 7233TIP3   OH243189   1.822   2.798   0.250  0.4079  0.6354 -0.0154
 7233TIP3    H143190   1.760   2.868   0.232  1.9007  1.7760 -1.0477
 7233TIP3    H243191   1.772   2.732   0.296 -1.4580  1.6543 -0.4998
 7234TIP3   OH243192   5.637   3.061   5.937  0.1657 -0.3360  0.5466
 7234TIP3    H143193   5.691   3.041   6.014 -0.1281 -2.5373  0.2544
 7234TIP3    H243194   5.553   3.089   5.973  0.8690  1.2702  1.0015
 7235TIP3   OH243195   5.159   1.085   4.759 -0.0593 -0.3849  0.0991
 7235TIP3    H143196   5.079   1.053   4.718  0.6663 -1.4967 -0.5155
 7235TIP3    H243197   5.137   1.094   4.851 -0.3898 -2.6175  0.3122
 7236TIP3   OH243198   1.373   2.954  11.226 -0.0518 -0.3130 -0.0395
 7236TIP3    H143199   1.414   3.034  11.192  1.3226 -0.8672  0.2246
 7236TIP3    H243200   1.324   2.918  11.152  1.5140 -0.6186 -0.9862
 7237TIP3   OH243201   4.720   4.844   5.752  0.1435 -0.5381  0.3565
 7237TIP3    H143202   4.631   4.874   5.735 -0.0290 -0.8290  0.7509
 7237TIP3    H243203   4.725   4.835   5.847  0.8620  0.3037  0.4078
 7238TIP3   OH243204   5.303   5.543   6.189  0.1335 -0.2186  0.0053
 7238TIP3    H143205   5.327   5.458   6.152  0.2669 -1.2233  2.2631
 7238TIP3    H243206   5.295   5.527   6.283 -1.1767  1.9778  0.3332
 7239TIP3   OH243207   1.611   5.606  13.878  0.0557 -0.2365  0.1943
 7239TIP3    H143208   1.642   5.527  13.834  1.8381  1.5889 -2.1830
 7239TIP3    H243209   1.552   5.647  13.814 -0.8912  0.3431  1.3992
 7240TIP3   OH243210   4.239   6.152  13.140  0.3837  0.1186  0.2763
 7240TIP3    H143211   4.162   6.095  13.137  0.7826 -0.4995  1.3121
 7240TIP3    H243212   4.208   6.233  13.181 -0.2907  0.8739 -1.5943
 7241TIP3   OH243213   6.550   4.322   0.002 -0.3568 -0.3539 -0.1295
 7241TIP3    H143214   6.536   4.386   0.073  0.1258  0.9876 -1.1932
 7241TIP3    H243215   6.483   4.255   0.018 -0.1987 -0.1526  1.6407
 7242TIP3   OH243216   6.744   6.094   4.193 -0.1791 -0.6252 -0.3650
 7242TIP3    H143217   6.649   6.101   4.183 -0.1891 -2.7126 -2.1593
 7242TIP3    H243218   6.776   6.074   4.106  1.9839  0.2478  0.1731
 7243TIP3   OH243219   4.224   2.933   0.680  0.1634  0.1399  0.4243
 7243TIP3    H143220   4.157   2.911   0.615  0.8114 -0.8288  0.0609
 7243TIP3    H243221   4.294   2.974   0.630  0.1999  0.3925  0.6784
 7244TIP3   OH243222   0.036   5.142  14.365 -0.2417 -0.0954 -0.1156
 7244TIP3    H143223  -0.034   5.093  14.408 -0.9425 -0.4006 -1.5412
 7244TIP3    H243224   0.111   5.135  14.425 -1.0395 -0.8542  0.8311
 7245TIP3   OH243225   5.347   3.140  14.787 -0.1829  0.2304 -0.3514
 7245TIP3    H143226   5.277   3.155  14.850 -0.8728  0.6213 -1.2022
 7245TIP3    H243227   5.396   3.066  14.824 -0.0216  1.0179  1.0965
 7246TIP3   OH243228   4.809   6.672   5.434 -0.5893 -0.0742  0.3840
 7246TIP3    H143229   4.855   6.602   5.387 -1.5935  0.2823 -1.1945
 7246TIP3    H243230   4.814   6.646   5.526  3.4285  0.3368  0.4433
 7247TIP3   OH243231   6.708   5.631  16.209  0.4500 -0.6440  0.1156
 7247TIP3    H143232   6.663   5.552  16.239 -0.6040 -0.2611 -0.4286
 7247TIP3    H243233   6.695   5.632  16.115 -2.7946  2.0433  0.3976
 7248TIP3   OH243234   3.928   3.183  14.119  0.1302 -0.3101 -0.3644
 7248TIP3    H143235   3.912   3.225  14.203 -3.9246  2.0155 -2.0176
 7248TIP3    H243236   3.908   3.091  14.133  0.8732 -0.2260  1.4684
 7249TIP3   OH243237   3.623   4.132  11.532 -0.2037  0.0970  0.2752
 7249TIP3    H143238   3.705   4.133  11.483  0.6416  1.4161  1.6232
 7249TIP3    H243239   3.605   4.225  11.551 -0.5289 -0.3380  2.3250
 7250TIP3   OH243240   0.660   5.481  11.150 -0.3062 -0.6978  0.2644
 7250TIP3    H143241   0.664   5.431  11.231 -3.6086 -4.2242 -1.4468
 7250TIP3    H243242   0.620   5.565  11.175 -2.3330 -2.1276  2.1943
 7251TIP3   OH243243   3.353   2.004  15.753  0.0176 -0.1722  0.3460
 7251TIP3    H143244   3.394   2.003  15.840  1.0807 -2.6081 -0.1149
 7251TIP3    H243245   3.260   1.995  15.771 -0.0938  2.0348  1.2801
 7252TIP3   OH243246   1.781   4.329   3.618  0.6035  0.2607 -0.6135
 7252TIP3    H143247   1.762   4.295   3.530 -0.1203  1.4229 -0.9379
 7252TIP3    H243248   1.705   4.383   3.639  0.5808 -0.3112  0.9123
 7253TIP3   OH243249   4.850   1.436   3.096 -0.0199  0.7549 -0.6459
 7253TIP3    H143250   4.938   1.409   3.070  0.3720  1.4349 -0.0677
 7253TIP3    H243251   4.832   1.385   3.175  0.2521  1.3191 -0.2140
 7254TIP3   OH243252   4.037   2.291   0.968 -0.1472  0.2776 -0.0040
 7254TIP3    H143253   4.043   2.232   0.892  0.9405  0.0942  0.2100
 7254TIP3    H243254   4.102   2.257   1.029  1.0643  2.1365 -0.1790
 7255TIP3   OH243255   6.292   0.052  11.245  0.2156 -0.6371 -0.7454
 7255TIP3    H143256   6.240  -0.016  11.202 -3.3938  1.5540 -0.2454
 7255TIP3    H243257   6.300   0.022  11.336 -0.8526 -0.6724 -0.6555
 7256TIP3   OH243258   0.943   5.831  11.127 -0.7620  0.3858  0.3180
 7256TIP3    H143259   0.968   5.805  11.039 -1.5088  0.1686  0.1677
 7256TIP3    H243260   1.003   5.784  11.184 -0.1908  0.6250 -0.0722
 7257TIP3   OH243261   0.457   6.155  15.397  0.2470 -0.2338  0.1612
 7257TIP3    H143262   0.482   6.104  15.320  1.2075  0.6851 -0.1656
 7257TIP3    H243263   0.362   6.146  15.403  0.4453 -2.7354  0.6222
 7258TIP3   OH243264   4.409   2.103  12.663 -0.8016  0.2114 -0.4084
 7258TIP3    H143265   4.332   2.158  12.648 -2.2043 -1.1416  1.5129
 7258TIP3    H243266   4.450   2.096  12.576 -1.1812  3.2620 -0.9577
 7259TIP3   OH243267   4.702   4.039  13.793 -0.1026  0.3479 -0.2973
 7259TIP3    H143268   4.726   4.127  13.765 -1.8429  0.1436 -2.7833
 7259TIP3    H243269   4.778   3.985  13.771  0.6821  1.0746  0.5628
 7260TIP3   OH243270   2.625   0.373  12.402 -0.7501 -0.0516 -0.0043
 7260TIP3    H143271   2.538   0.401  12.431 -0.8266  0.1132 -0.3916
 7260TIP3    H243272   2.682   0.448  12.419 -0.7576 -0.0242 -0.0991
 7261TIP3   OH243273   5.256   4.671  16.809 -0.1190  0.2663  0.2523
 7261TIP3    H143274   5.348   4.664  16.784  0.8373 -0.8316  3.5122
 7261TIP3    H243275   5.247   4.762  16.841 -0.5811  0.7905 -1.2941
 7262TIP3   OH243276   3.258   0.096  13.669 -0.1098 -0.0700  0.4414
 7262TIP3    H143277   3.283   0.155  13.598  1.5789 -1.5246 -0.2410
 7262TIP3    H243278   3.228   0.154  13.739  2.2543  1.6856  0.1188
 7263TIP3   OH243279   3.452   5.189   3.127  0.4855 -0.4003 -0.3959
 7263TIP3    H143280   3.426   5.185   3.035  2.2958 -0.7388 -0.9254
 7263TIP3    H243281   3.474   5.099   3.149  3.6418  0.1842 -0.7704
 7264TIP3   OH243282   5.405   6.291  11.129  0.3267  0.7565 -0.3158
 7264TIP3    H143283   5.433   6.368  11.078  0.0279  0.6721 -0.6079
 7264TIP3    H243284   5.453   6.218  11.090 -1.7006  0.2836 -2.1062
 7265TIP3   OH243285   2.290   6.382   1.348  0.1225 -0.0492 -0.2722
 7265TIP3    H143286   2.256   6.418   1.430 -0.9563 -0.3010 -0.5960
 7265TIP3    H243287   2.321   6.295   1.370  0.2320  0.0473 -0.0445
 7266TIP3   OH243288   6.700   2.407   1.684 -0.0432 -0.7038  0.4092
 7266TIP3    H143289   6.605   2.396   1.680 -0.0932 -1.4426  2.6056
 7266TIP3    H243290   6.735   2.326   1.647 -0.3050 -1.2445  1.3111
 7267TIP3   OH243291   4.945   6.212   3.870  0.2331 -0.4166  0.0269
 7267TIP3    H143292   4.933   6.119   3.887  2.1046 -0.8304 -0.6780
 7267TIP3    H243293   4.874   6.234   3.809 -0.6801 -1.1700  0.7845
 7268TIP3   OH243294   6.074   1.310   5.719  0.1780 -0.1051  0.2556
 7268TIP3    H143295   6.039   1.228   5.755 -0.8070  0.5008  0.7240
 7268TIP3    H243296   6.119   1.351   5.793  0.8610 -0.3204 -0.0363
 7269TIP3   OH243297   0.847   0.722   4.945 -0.2517  0.3299 -0.4145
 7269TIP3    H143298   0.884   0.809   4.960 -2.0285  1.2471 -1.0663
 7269TIP3    H243299   0.768   0.738   4.895 -1.0209 -1.6261  0.0818
 7270TIP3   OH243300   4.786   0.548  12.418 -0.5470  0.0828 -0.5816
 7270TIP3    H143301   4.691   0.552  12.434 -0.3169  1.7926  0.5711
 7270TIP3    H243302   4.819   0.494  12.490 -0.3967  1.4951  0.4462
 7271TIP3   OH243303   2.356   1.154  12.290 -0.0622  0.3795 -0.1474
 7271TIP3    H143304   2.328   1.095  12.220 -1.7882 -2.1395  2.4092
 7271TIP3    H243305   2.279   1.206  12.310  0.0941  0.3578  0.5278
 7272TIP3   OH243306   0.411   0.203  13.528  0.1998  0.0198  0.1044
 7272TIP3    H143307   0.448   0.188  13.615 -1.6169  0.3081  0.9797
 7272TIP3    H243308   0.316   0.205  13.543 -0.0936  1.8398 -1.6071
 7273TIP3   OH243309   0.962   1.891   0.196  0.8326  0.3845  0.3726
 7273TIP3    H143310   0.897   1.894   0.126  1.2711 -1.7587 -0.1932
 7273TIP3    H243311   0.919   1.845   0.268  0.9620  1.0512  0.8903
 7274TIP3   OH243312   1.402   5.624   4.906  0.2286  0.2933  0.1870
 7274TIP3    H143313   1.395   5.644   4.999 -2.4738  1.2882 -0.1223
 7274TIP3    H243314   1.423   5.708   4.865 -1.3491  0.4834 -0.2936
 7275TIP3   OH243315   3.893   5.678   3.407 -0.0954  0.6078  0.6187
 7275TIP3    H143316   3.893   5.774   3.406 -0.0983  0.6158  1.2343
 7275TIP3    H243317   3.975   5.654   3.451  0.9205  0.2870 -1.3096
 7276TIP3   OH243318   5.322   4.918  14.948  0.5170 -0.2695 -0.1005
 7276TIP3    H143319   5.261   4.883  14.883  0.9005 -0.6372 -0.2641
 7276TIP3    H243320   5.313   5.013  14.941  0.9212 -0.2941 -1.0382
 7277TIP3   OH243321   5.598   6.703  13.334 -0.0948 -0.1253 -0.2171
 7277TIP3    H143322   5.626   6.657  13.413  1.7509  0.8780 -0.2552
 7277TIP3    H243323   5.626   6.793  13.347 -0.3518  0.1987 -1.7396
 7278TIP3   OH243324   6.338   0.899   6.854 -0.2370  0.4516  0.1333
 7278TIP3    H143325   6.353   0.993   6.864  0.3725  0.2976  0.7290
 7278TIP3    H243326   6.415   0.867   6.808 -0.0609  0.1202  0.6451
 7279TIP3   OH243327   2.247   0.644  15.958 -0.6787 -0.9768 -0.2599
 7279TIP3    H143328   2.294   0.623  16.039 -2.2732 -0.5528  0.8378
 7279TIP3    H243329   2.207   0.729  15.976  1.7692  0.8901 -2.8236
 7280TIP3   OH243330   6.186   5.938   2.101  0.2866 -0.2507 -0.1586
 7280TIP3    H143331   6.105   5.898   2.133  0.5323  0.7116  1.8330
 7280TIP3    H243332   6.252   5.913   2.166  1.3809 -0.1637 -1.1959
 7281TIP3   OH243333   1.305   6.016  12.174 -0.1563  0.0382 -0.2289
 7281TIP3    H143334   1.283   6.000  12.266  0.2453 -2.4842 -0.4935
 7281TIP3    H243335   1.348   5.935  12.146 -0.9851  0.4421 -2.8678
 7282TIP3   OH243336   2.397   2.272   3.301  0.5806 -0.5955  0.3015
 7282TIP3    H143337   2.434   2.285   3.388  0.2152 -2.7217  0.8514
 7282TIP3    H243338   2.467   2.231   3.251  0.3973 -0.5035 -0.0327
 7283TIP3   OH243339   6.046   1.935   5.132  0.5093 -0.7062 -0.0083
 7283TIP3    H143340   6.079   2.016   5.092  0.2369 -1.2442 -1.3755
 7283TIP3    H243341   6.109   1.915   5.201  0.2194  1.0233  0.8080
 7284TIP3   OH243342   2.861   6.752  14.017 -0.1470  0.2013 -0.0611
 7284TIP3    H143343   2.908   6.805  14.082 -0.0915 -0.9491  0.8612
 7284TIP3    H243344   2.891   6.787  13.933  1.1485  0.5647  0.5174
 7285TIP3   OH243345   3.812   4.825  12.395  0.2136 -0.3757  0.6182
 7285TIP3    H143346   3.865   4.786  12.465  0.2711 -0.2783  0.6286
 7285TIP3    H243347   3.876   4.869  12.339  0.1721 -0.4987  0.4759
 7286TIP3   OH243348   4.862   0.855   0.656 -0.1278 -0.2700 -0.3647
 7286TIP3    H143349   4.867   0.814   0.742  1.0298  0.4847 -0.0602
 7286TIP3    H243350   4.804   0.931   0.669  0.6901  0.3123 -0.0430
 7287TIP3   OH243351   4.486   4.119  11.956 -0.5338 -0.1190 -0.2185
 7287TIP3    H143352   4.501   4.114  11.862 -1.3872 -0.6969 -0.3270
 7287TIP3    H243353   4.574   4.133  11.993 -0.0656 -0.8379 -1.0251
 7288TIP3   OH243354   2.649   1.645  17.048 -0.3235  0.9187  0.0217
 7288TIP3    H143355   2.648   1.688  16.963  0.8188  0.2797 -0.3295
 7288TIP3    H243356   2.619   1.555  17.030 -1.4812  1.1717  0.5489
 7289TIP3   OH243357   0.666   6.820   3.643  0.2609 -0.0239  0.4850
 7289TIP3    H143358   0.573   6.835   3.626  0.9151  1.7585 -2.0705
 7289TIP3    H243359   0.698   6.902   3.680  0.8712 -0.5814  1.2273
 7290TIP3   OH243360   1.016   0.191   6.127  0.2880 -0.1363  0.0101
 7290TIP3    H143361   0.980   0.194   6.215  1.2411 -1.2083  0.4548
 7290TIP3    H243362   0.940   0.187   6.070 -0.3291  0.0286  0.8049
 7291TIP3   OH243363   5.707   0.357  16.707 -0.3427  0.0433 -0.0674
 7291TIP3    H143364   5.730   0.301  16.781  0.1803 -0.5489 -0.6565
 7291TIP3    H243365   5.782   0.350  16.648 -0.0634  1.7585  0.0493
 7292TIP3   OH243366   2.285   0.366   4.716 -0.1114  1.0947 -0.3189
 7292TIP3    H143367   2.371   0.408   4.722  0.0582  0.6390  0.6169
 7292TIP3    H243368   2.239   0.394   4.796 -0.4878  0.5801 -0.3492
 7293TIP3   OH243369   4.180   5.289   5.557  0.0685  0.2285 -0.2441
 7293TIP3    H143370   4.193   5.325   5.645 -0.5900 -0.4076  0.1251
 7293TIP3    H243371   4.187   5.365   5.499  1.0903  0.5675  0.2978
 7294TIP3   OH243372   3.608   0.920  14.686  0.2400 -0.0859  0.1395
 7294TIP3    H143373   3.628   0.920  14.779  1.6179 -0.6989 -0.1470
 7294TIP3    H243374   3.651   0.999  14.652 -0.6773  0.4094  0.0914
 7295TIP3   OH243375   3.704   5.520  12.717  0.3956 -0.0855 -0.1774
 7295TIP3    H143376   3.632   5.464  12.687 -0.2783  0.9960 -0.6409
 7295TIP3    H243377   3.664   5.606  12.731  1.6223  0.5896 -0.6293
 7296TIP3   OH243378   5.139   0.283  10.756 -0.6470  0.5681 -0.1612
 7296TIP3    H143379   5.095   0.363  10.724  0.4739  1.5913  0.7527
 7296TIP3    H243380   5.194   0.256  10.682 -0.8745  0.7629 -0.4074
 7297TIP3   OH243381   5.938   6.114  14.867 -0.3784 -0.9661  0.4846
 7297TIP3    H143382   6.025   6.075  14.879 -0.9428 -1.8077  2.2762
 7297TIP3    H243383   5.902   6.120  14.956 -1.0942  1.9652  0.1208
 7298TIP3   OH243384   6.309   5.241  16.735  0.1885  0.0552  0.1838
 7298TIP3    H143385   6.276   5.329  16.753  1.6463  0.6067  0.3136
 7298TIP3    H243386   6.383   5.254  16.676  1.4696 -0.9026  1.4754
 7299TIP3   OH243387   1.046   5.312   2.193 -0.0350  0.2048 -0.6611
 7299TIP3    H143388   1.005   5.273   2.116 -2.3754  0.9290  0.1218
 7299TIP3    H243389   1.007   5.400   2.199 -0.7103 -0.1778  1.8662
 7300TIP3   OH243390   0.382   5.589   4.609  0.1204  0.1638 -0.4400
 7300TIP3    H143391   0.477   5.599   4.606  0.0132  1.1380 -0.8643
 7300TIP3    H243392   0.348   5.678   4.613 -0.7494 -0.2128  1.1079
 7301TIP3   OH243393   0.234   2.656   0.096 -0.5374 -0.0367 -0.1399
 7301TIP3    H143394   0.168   2.686   0.157  0.2784 -1.0394  1.3015
 7301TIP3    H243395   0.318   2.677   0.138  0.0508 -0.9044 -0.8205
 7302TIP3   OH243396   6.313   4.249   1.088 -0.4104 -0.2923 -0.0236
 7302TIP3    H143397   6.294   4.212   1.003 -1.2727  0.6009 -0.2316
 7302TIP3    H243398   6.370   4.184   1.130 -3.1723 -2.6734  0.3035
 7303TIP3   OH243399   6.279   4.836   5.939 -0.1282  0.3887 -0.2053
 7303TIP3    H143400   6.187   4.813   5.949 -0.0330  0.2393  0.3388
 7303TIP3    H243401   6.321   4.805   6.019  0.2160  1.4012  0.0180
 7304TIP3   OH243402   5.994   0.404   0.788 -0.3254  0.4282  0.1063
 7304TIP3    H143403   6.077   0.433   0.750 -0.1663  1.5507  1.2426
 7304TIP3    H243404   5.947   0.485   0.807 -0.8566 -0.1216  1.2446
 7305TIP3   OH243405   6.149   2.747   2.657  0.0833  0.6200  0.2615
 7305TIP3    H143406   6.120   2.712   2.741  0.4229  0.6038  0.3720
 7305TIP3    H243407   6.084   2.716   2.594 -0.5106  1.1440  0.6129
 7306TIP3   OH243408   6.593   1.954   5.210  0.2196  0.5306 -0.1799
 7306TIP3    H143409   6.680   1.971   5.247  0.1367 -1.3786  1.0286
 7306TIP3    H243410   6.591   1.860   5.193 -2.4225  0.0322  2.1401
 7307TIP3   OH243411   4.053   0.539  14.456 -0.1625  0.2484 -0.4268
 7307TIP3    H143412   4.136   0.574  14.488  0.0320 -1.0243  0.5410
 7307TIP3    H243413   4.072   0.447  14.435 -0.6132  0.6664 -3.0318
 7308TIP3   OH243414   4.069   2.848   2.859 -0.0204  0.2997 -0.6388
 7308TIP3    H143415   4.063   2.900   2.779 -0.4972 -0.0576 -0.8445
 7308TIP3    H243416   4.033   2.762   2.834 -0.4478  0.2741  0.0317
 7309TIP3   OH243417   5.802   3.301  11.186 -0.2057  0.8381  0.5000
 7309TIP3    H143418   5.838   3.345  11.263  1.6320  0.5872 -0.1736
 7309TIP3    H243419   5.827   3.356  11.113  1.8325 -0.9975 -0.3272
 7310TIP3   OH243420   5.174   3.759  12.399 -0.0673  0.7001  0.0664
 7310TIP3    H143421   5.187   3.826  12.332  1.8850  0.1651 -0.1698
 7310TIP3    H243422   5.263   3.732  12.423 -0.7463 -0.0747  1.9195
 7311TIP3   OH243423   1.528   3.211  11.533  0.2697 -0.0661  0.2531
 7311TIP3    H143424   1.499   3.171  11.615 -1.9510  0.6481 -0.1202
 7311TIP3    H243425   1.574   3.290  11.560 -1.4839  0.8112  0.8533
 7312TIP3   OH243426   3.118   3.525  11.150 -0.5044 -0.6482 -0.0507
 7312TIP3    H143427   3.154   3.445  11.188  2.5020  0.1369 -0.9949
 7312TIP3    H243428   3.100   3.504  11.059  1.9449  0.1283 -0.7713
 7313TIP3   OH243429   3.836   6.314   5.121  0.0081  0.0412 -0.2088
 7313TIP3    H143430   3.750   6.280   5.098 -0.5845  0.9299  0.6367
 7313TIP3    H243431   3.886   6.236   5.146 -0.4068 -0.5258 -1.0785
 7314TIP3   OH243432   2.076   2.713  15.234  0.2841  0.6200 -0.5031
 7314TIP3    H143433   2.149   2.674  15.186 -0.3706  0.4855 -1.4085
 7314TIP3    H243434   2.003   2.712  15.172 -0.6429  0.2597  0.5585
 7315TIP3   OH243435   3.935   2.802  13.164  0.0727  0.0639 -0.0279
 7315TIP3    H143436   3.981   2.821  13.083  0.0868  0.9890  0.1831
 7315TIP3    H243437   3.908   2.711  13.156 -1.4518  0.6010 -1.8373
 7316TIP3   OH243438   1.834   5.779   0.108 -0.1356 -0.2255  0.0647
 7316TIP3    H143439   1.843   5.838   0.183  0.1428 -0.3606  0.1412
 7316TIP3    H243440   1.775   5.825   0.048  0.9300  0.6378 -0.3673
 7317TIP3   OH243441   3.102   1.750  13.188  0.7231  0.2418  0.0395
 7317TIP3    H143442   3.149   1.787  13.113  2.1185  0.8685  1.1648
 7317TIP3    H243443   3.168   1.748  13.258 -0.1588 -1.6013  0.8762
 7318TIP3   OH243444   2.901   1.815  11.107 -0.0944 -0.8558 -0.3212
 7318TIP3    H143445   2.961   1.753  11.065  0.7919  0.3567 -0.9128
 7318TIP3    H243446   2.917   1.804  11.201  0.8536 -0.7772 -0.4588
 7319TIP3   OH243447   2.085   6.155  10.589 -0.3043 -0.2979 -0.0677
 7319TIP3    H143448   2.065   6.237  10.634 -1.0382 -1.0075  0.9555
 7319TIP3    H243449   2.169   6.170  10.545 -0.9591  1.3483 -0.8178
 7320TIP3   OH243450   1.578   1.754  10.589  0.2163  0.2653  0.4176
 7320TIP3    H143451   1.554   1.830  10.643 -0.2183  1.3835 -1.2472
 7320TIP3    H243452   1.496   1.727  10.549  0.7998  0.7328 -1.1836
 7321TIP3   OH243453   4.281   3.695   1.729 -0.4408  0.0836 -0.1713
 7321TIP3    H143454   4.339   3.655   1.664 -0.0812 -0.8332  0.6839
 7321TIP3    H243455   4.213   3.738   1.678  0.4928  0.4141 -1.1773
 7322TIP3   OH243456   5.566   0.722   4.011 -0.2091  0.2169  0.1522
 7322TIP3    H143457   5.490   0.677   4.049 -0.0741  0.1294  0.3231
 7322TIP3    H243458   5.539   0.814   4.004  0.4831  0.6776  2.4885
 7323TIP3   OH243459   6.365   4.297  12.474  0.1951 -0.4344  0.1256
 7323TIP3    H143460   6.420   4.279  12.551 -1.3761 -0.9477  1.1622
 7323TIP3    H243461   6.359   4.393  12.473  1.6485 -0.3132 -0.4308
 7324TIP3   OH243462   4.579   3.915   2.331 -0.0795 -0.5703  0.1421
 7324TIP3    H143463   4.620   3.838   2.290  0.0850 -0.4681  0.1101
 7324TIP3    H243464   4.632   3.989   2.300 -0.8979 -0.3207 -0.7132
 7325TIP3   OH243465   4.808   2.089  16.637 -0.8500  0.5642 -0.2458
 7325TIP3    H143466   4.863   2.020  16.673 -0.6245  1.2478  0.7305
 7325TIP3    H243467   4.748   2.042  16.578 -1.1815 -0.5732  0.9322
 7326TIP3   OH243468   6.166   6.226  15.244  0.3926  0.4171 -0.0642
 7326TIP3    H143469   6.115   6.154  15.281  0.4301  0.8166  0.7864
 7326TIP3    H243470   6.113   6.259  15.172  0.7863 -1.0481 -1.0778
 7327TIP3   OH243471   1.203   6.192  14.807 -0.1326  0.5040  0.3712
 7327TIP3    H143472   1.245   6.218  14.725  1.7934 -2.4219  0.2704
 7327TIP3    H243473   1.265   6.216  14.875 -0.6256  0.7359  0.7485
 7328TIP3   OH243474   4.648   3.999  14.481  0.5456 -0.3634 -0.3157
 7328TIP3    H143475   4.566   3.957  14.456  0.2820 -0.6959  1.0454
 7328TIP3    H243476   4.715   3.932  14.466  0.5771 -0.1261 -1.3266
 7329TIP3   OH243477   5.910   5.718  14.515 -0.1254 -0.4583 -0.2996
 7329TIP3    H143478   5.875   5.788  14.459  1.0125  0.1032 -0.3362
 7329TIP3    H243479   5.881   5.638  14.472  1.5221 -0.0788 -2.3232
 7330TIP3   OH243480   0.125   0.097   6.369  0.7954  0.1346 -0.3975
 7330TIP3    H143481   0.081   0.126   6.449 -1.3173 -1.4411 -0.8952
 7330TIP3    H243482   0.183   0.170   6.345 -0.7731  1.9034  0.9103
 7331TIP3   OH243483   1.841   4.056  16.420  0.2387 -0.1258 -0.2906
 7331TIP3    H143484   1.855   4.079  16.512 -1.7773 -0.2193  0.0801
 7331TIP3    H243485   1.851   4.139  16.373 -1.0937  0.4373  0.3397
 7332TIP3   OH243486   5.106   4.167   1.323  0.4066  0.1383  0.3673
 7332TIP3    H143487   5.183   4.222   1.305  0.6342  0.0030  0.9160
 7332TIP3    H243488   5.051   4.221   1.380  0.7687 -0.3077  1.1504
 7333TIP3   OH243489   3.906   6.361  11.520 -0.2315 -0.7166  0.0379
 7333TIP3    H143490   3.926   6.382  11.428  1.1847 -0.2132  0.4407
 7333TIP3    H243491   3.986   6.320  11.553 -0.9651 -1.4952  0.8820
 7334TIP3   OH243492   3.038   4.419   1.950 -0.2802 -0.1498 -0.0871
 7334TIP3    H143493   3.025   4.338   1.901 -2.5085  0.2842 -0.3369
 7334TIP3    H243494   3.083   4.478   1.889 -3.1007  0.4216 -1.7770
 7335TIP3   OH243495   5.894   1.915   2.911 -0.1928 -0.5673  0.1423
 7335TIP3    H143496   5.879   1.824   2.885 -0.6029 -0.1079 -1.3083
 7335TIP3    H243497   5.961   1.947   2.850  1.8387 -0.5858  2.2226
 7336TIP3   OH243498   2.111   0.371   3.563 -0.2943 -0.4329  0.2038
 7336TIP3    H143499   2.147   0.383   3.475  0.1028 -1.3775  0.2281
 7336TIP3    H243500   2.187   0.353   3.618 -0.4882  0.6146  0.8401
 7337TIP3   OH243501   6.202   0.055   3.574 -0.4127  0.2528 -0.0826
 7337TIP3    H143502   6.234   0.130   3.524 -0.8479  0.3548 -0.2120
 7337TIP3    H243503   6.171   0.092   3.657 -0.5546  0.2098 -0.1145
 7338TIP3   OH243504   2.209   4.170   1.427 -0.5798  0.1364  0.4195
 7338TIP3    H143505   2.127   4.122   1.439 -0.5121 -0.8427 -2.4184
 7338TIP3    H243506   2.187   4.242   1.368  0.4977  0.1187 -0.0311
 7339TIP3   OH243507   3.806   3.301  16.979 -0.6154 -0.2431 -0.2922
 7339TIP3    H143508   3.859   3.370  16.940 -1.1365 -0.1767 -0.9110
 7339TIP3    H243509   3.716   3.322  16.953 -0.5844 -2.4164 -2.5776
 7340TIP3   OH243510   0.465   2.900  11.560  0.3043 -0.4587  0.5149
 7340TIP3    H143511   0.513   2.932  11.636  0.7278 -1.5970  0.7412
 7340TIP3    H243512   0.508   2.818  11.536  1.7350  0.9877 -2.4320
 7341TIP3   OH243513   1.782   5.632   4.622 -0.3387  0.4392 -0.0226
 7341TIP3    H143514   1.754   5.718   4.653  0.9933  1.7850 -2.2322
 7341TIP3    H243515   1.711   5.601   4.567 -0.3147  0.7039 -0.2027
 7342TIP3   OH243516   2.812   0.389   0.502  0.0463  0.8997 -0.0300
 7342TIP3    H143517   2.723   0.358   0.487 -0.0670  0.4202  1.4431
 7342TIP3    H243518   2.810   0.481   0.473 -0.9371  0.9058  0.0045
 7343TIP3   OH243519   0.878   4.409   4.678  0.6386 -0.2079  0.3693
 7343TIP3    H143520   0.785   4.414   4.655  1.0160  0.0600 -1.2017
 7343TIP3    H243521   0.894   4.316   4.694 -0.2740 -0.0547  2.4161
 7344TIP3   OH243522   4.013   2.517  10.493  0.2422 -0.4408 -0.5187
 7344TIP3    H143523   4.102   2.543  10.471  1.3929 -2.1455  1.7029
 7344TIP3    H243524   3.991   2.449  10.429  1.9541 -2.4593  0.8939
 7345TIP3   OH243525   1.794   4.150   0.234  0.6230  0.1083 -0.3149
 7345TIP3    H143526   1.779   4.069   0.282 -0.1589  1.6906  2.2703
 7345TIP3    H243527   1.708   4.176   0.204  0.7327  0.4734 -0.3126
 7346TIP3   OH243528   1.183   2.570  14.798  0.4047  0.5180  0.0112
 7346TIP3    H143529   1.130   2.624  14.739  0.4810  1.2807  0.6170
 7346TIP3    H243530   1.222   2.633  14.858  2.7300  0.0769 -0.9604
 7347TIP3   OH243531   6.686   1.046  11.501  0.2082  0.1334 -0.1804
 7347TIP3    H143532   6.737   1.051  11.420  1.3326  0.3588  0.5220
 7347TIP3    H243533   6.752   1.044  11.570 -0.6803 -1.7740  0.6725
 7348TIP3   OH243534   5.747   4.926  12.699 -0.5999 -0.8380  0.4921
 7348TIP3    H143535   5.815   4.990  12.722 -0.5240 -0.9320  0.5294
 7348TIP3    H243536   5.756   4.856  12.764  0.1808 -1.5193 -0.3260
 7349TIP3   OH243537   1.347   0.511  11.797 -0.2425  0.0632 -0.1023
 7349TIP3    H143538   1.324   0.419  11.797 -0.2731  0.0684  0.4409
 7349TIP3    H243539   1.281   0.553  11.852 -0.8558  0.5739 -1.1927
 7350TIP3   OH243540   6.076   5.345  12.651 -0.0922 -0.3368 -0.1229
 7350TIP3    H143541   5.991   5.322  12.615 -0.0322  1.9814 -2.0070
 7350TIP3    H243542   6.129   5.367  12.574  1.3666  0.8037  1.1406
 7351TIP3   OH243543   3.190   0.703  11.379 -0.4212  0.5712  0.4671
 7351TIP3    H143544   3.261   0.645  11.353 -0.1300  0.2773  1.8292
 7351TIP3    H243545   3.154   0.737  11.297 -0.1773 -1.0173 -0.3191
 7352TIP3   OH243546   0.403   5.873   1.538  0.3678 -0.0601 -0.5208
 7352TIP3    H143547   0.462   5.797   1.542  0.4186 -0.1232 -2.0116
 7352TIP3    H243548   0.328   5.842   1.487 -0.2923  0.4713  0.1049
 7353TIP3   OH243549   5.814   4.914   2.772 -0.4425 -0.7310 -0.3130
 7353TIP3    H143550   5.906   4.911   2.747  0.2067 -0.4682  1.8727
 7353TIP3    H243551   5.805   4.996   2.821 -1.5495 -1.3605  0.5626
 7354TIP3   OH243552   3.999   2.211   0.272 -0.1452 -0.2581  0.0405
 7354TIP3    H143553   3.965   2.178   0.189 -2.8327 -0.3681  1.0826
 7354TIP3    H243554   3.944   2.287   0.292  0.7880  0.0791  1.4748
 7355TIP3   OH243555   3.203   0.279   1.306 -0.3952  0.3009 -0.1888
 7355TIP3    H143556   3.284   0.324   1.281 -0.5683  0.4246 -0.5449
 7355TIP3    H243557   3.134   0.341   1.284 -0.7139 -0.5493 -1.7319
 7356TIP3   OH243558   1.347   1.036  13.437  0.0315  0.4724 -0.0483
 7356TIP3    H143559   1.426   1.000  13.397  0.4060  0.0985  0.9936
 7356TIP3    H243560   1.283   0.965  13.429 -0.4769  1.0735 -1.6428
 7357TIP3   OH243561   4.758   2.958   5.360 -0.5040 -0.0843  0.4695
 7357TIP3    H143562   4.777   2.868   5.390 -0.0309  0.7325  2.8241
 7357TIP3    H243563   4.814   3.013   5.415 -1.7405  1.7463 -0.0472
 7358TIP3   OH243564   2.464   0.111  16.926 -0.6568  0.3236 -0.4285
 7358TIP3    H143565   2.378   0.102  16.966  0.1006 -1.6940  0.9135
 7358TIP3    H243566   2.524   0.119  17.000  0.6179 -1.8011 -1.1305
 7359TIP3   OH243567   3.792   4.533   5.920  0.7093 -0.3493 -0.9517
 7359TIP3    H143568   3.709   4.581   5.929  0.7127 -0.3229 -1.0579
 7359TIP3    H243569   3.859   4.598   5.941  0.7453 -0.1329 -1.7029
 7360TIP3   OH243570   6.624   1.425  14.897 -0.4096 -0.2735 -0.0626
 7360TIP3    H143571   6.714   1.452  14.917  0.1178 -1.2110 -1.0632
 7360TIP3    H243572   6.586   1.404  14.982  0.2928  0.2016  0.3771
 7361TIP3   OH243573   1.756   3.734  15.619 -0.3675  0.1157 -0.1842
 7361TIP3    H143574   1.846   3.730  15.651 -0.3019  0.6479 -0.2865
 7361TIP3    H243575   1.723   3.817  15.653 -1.4843 -0.9738  1.5392
 7362TIP3   OH243576   2.183   1.520   2.513  0.2136 -0.3797 -0.1732
 7362TIP3    H143577   2.278   1.520   2.500  0.2558 -1.0483  0.1019
 7362TIP3    H243578   2.154   1.435   2.479  0.2907 -2.1354  3.7006
 7363TIP3   OH243579   3.304   2.185   1.952 -0.3744  0.7464 -0.5464
 7363TIP3    H143580   3.381   2.241   1.947  0.8724 -0.9385 -0.9323
 7363TIP3    H243581   3.263   2.208   2.035  1.6123  0.3909  0.5983
 7364TIP3   OH243582   5.224   6.658   3.424  0.2940 -0.4928 -0.3021
 7364TIP3    H143583   5.140   6.658   3.379  0.2260 -0.3410 -0.1752
 7364TIP3    H243584   5.289   6.663   3.354  0.1972 -0.5887 -0.3989
 7365TIP3   OH243585   3.533   6.245   3.372 -0.1172 -0.1369  0.1765
 7365TIP3    H143586   3.561   6.244   3.463  0.3170  0.8790  0.0719
 7365TIP3    H243587   3.451   6.196   3.371 -0.4145  0.3180  1.2117
 7366TIP3   OH243588   4.321   3.368  15.773  0.6945  0.9544 -0.7241
 7366TIP3    H143589   4.297   3.277  15.792  0.1614  1.2102 -0.1503
 7366TIP3    H243590   4.238   3.416  15.773  1.1903  2.0625  2.4959
 7367TIP3   OH243591   1.744   1.488  15.051  0.3865  0.1120 -0.1152
 7367TIP3    H143592   1.820   1.541  15.027 -1.5324  3.4232  0.4959
 7367TIP3    H243593   1.684   1.498  14.976 -1.1589  1.3065  1.2063
 7368TIP3   OH243594   6.052   2.621   5.379  0.0394 -0.7752  0.0765
 7368TIP3    H143595   6.136   2.600   5.337  0.8319  0.4681  0.9804
 7368TIP3    H243596   6.076   2.661   5.462 -1.4856 -1.4720  0.8873
 7369TIP3   OH243597   0.295   6.470   1.642  0.2555 -0.5608 -0.4975
 7369TIP3    H143598   0.213   6.519   1.638  0.8199  0.3992 -0.6544
 7369TIP3    H243599   0.268   6.379   1.656 -0.7966 -0.1205  0.5198
 7370TIP3   OH243600   5.925   5.380   1.890  0.0830  0.3071  0.0369
 7370TIP3    H143601   5.874   5.308   1.927  0.5431 -0.7276 -1.2701
 7370TIP3    H243602   5.908   5.376   1.796  3.1133 -0.5776 -0.5802
 7371TIP3   OH243603   4.135   0.555  16.548  0.1359  0.4580 -0.0200
 7371TIP3    H143604   4.120   0.461  16.550 -1.6507  0.6431 -1.7363
 7371TIP3    H243605   4.059   0.592  16.594  0.5503  1.0774  0.1784
 7372TIP3   OH243606   6.327   2.850   5.796 -0.0946  0.2655 -0.2934
 7372TIP3    H143607   6.331   2.786   5.867 -0.5376 -0.3460 -0.8202
 7372TIP3    H243608   6.292   2.929   5.838 -0.4331 -0.1141  0.1525
 7373TIP3   OH243609   1.797   2.797   5.205 -0.0161  0.1136 -0.5084
 7373TIP3    H143610   1.815   2.741   5.130 -0.0357 -0.5731 -0.0070
 7373TIP3    H243611   1.881   2.838   5.225  0.1421 -0.2257 -0.4816
 7374TIP3   OH243612   1.509   0.244  14.757 -0.6036  0.4244 -0.1347
 7374TIP3    H143613   1.523   0.339  14.761 -1.0450  0.4659  0.4741
 7374TIP3    H243614   1.561   0.210  14.830  0.5757  0.0660 -1.1105
 7375TIP3   OH243615   6.733   4.403  16.691 -0.0180 -0.5136  0.0369
 7375TIP3    H143616   6.759   4.485  16.733 -2.0296  0.4472 -0.4686
 7375TIP3    H243617   6.676   4.360  16.755  0.5271 -1.2458  0.0488
 7376TIP3   OH243618   0.696   6.563   3.328 -0.0893 -0.4706 -0.4575
 7376TIP3    H143619   0.734   6.633   3.381 -0.3546  0.0106 -0.8934
 7376TIP3    H243620   0.628   6.525   3.384 -1.3827  0.9961 -0.9576
 7377TIP3   OH243621   4.004   1.375   3.504 -1.2652 -0.1980 -0.4987
 7377TIP3    H143622   4.019   1.435   3.432 -1.4418  0.7278  0.2129
 7377TIP3    H243623   3.999   1.431   3.582  1.1059 -1.3454  0.5671
 7378TIP3   OH243624   5.700   4.750   3.370 -0.1634  0.0144 -0.5665
 7378TIP3    H143625   5.756   4.822   3.399 -2.1726  1.5949 -0.3794
 7378TIP3    H243626   5.714   4.745   3.276 -0.5797  1.2117 -0.7090
 7379TIP3   OH243627   0.737   5.667  13.965  0.2745  0.2069 -0.2497
 7379TIP3    H143628   0.823   5.667  13.923  0.3809  1.1361 -0.0414
 7379TIP3    H243629   0.747   5.608  14.040  1.0051  0.9895  0.2960
 7380TIP3   OH243630   3.435   4.264   5.972 -0.0126  0.3535 -0.2874
 7380TIP3    H143631   3.444   4.336   6.033 -0.8064 -0.0243  0.2951
 7380TIP3    H243632   3.519   4.218   5.976 -0.2442  0.0199  0.9306
 7381TIP3   OH243633   2.543   3.663  10.694 -0.0382 -0.0506  0.2323
 7381TIP3    H143634   2.551   3.657  10.598 -0.1671 -0.6911  0.2570
 7381TIP3    H243635   2.526   3.756  10.711  1.3606  0.3270 -0.2632
 7382TIP3   OH243636   4.765   5.534   3.161 -0.1783  0.3950 -0.7285
 7382TIP3    H143637   4.766   5.458   3.103 -0.5487  1.2515 -1.8899
 7382TIP3    H243638   4.673   5.555   3.172 -0.2024 -0.5986  1.3567
 7383TIP3   OH243639   5.108   4.003   0.187  0.3010 -0.5758  0.1400
 7383TIP3    H143640   5.049   4.004   0.112  0.2223 -0.4588  0.2019
 7383TIP3    H243641   5.119   3.911   0.209 -0.1807 -0.5798  0.3771
 7384TIP3   OH243642   6.411   4.368  13.985  0.5247  0.2068 -0.3610
 7384TIP3    H143643   6.493   4.356  14.033  1.6748 -0.2644 -2.3299
 7384TIP3    H243644   6.422   4.314  13.906 -1.1799  1.1165 -1.2607
 7385TIP3   OH243645   6.593   2.733   1.765 -0.2521  0.1852  0.2497
 7385TIP3    H143646   6.674   2.782   1.772 -0.7952  1.5016 -1.8615
 7385TIP3    H243647   6.607   2.671   1.694 -0.9716  0.1847  0.0944
 7386TIP3   OH243648   5.301   1.266   2.753  0.2263 -0.7831  0.3756
 7386TIP3    H143649   5.348   1.336   2.798  0.1927 -0.9179  0.6219
 7386TIP3    H243650   5.369   1.215   2.709  0.1289  0.3556 -1.1795
 7387TIP3   OH243651   0.841   5.803   5.997 -0.2275  0.1373 -0.2328
 7387TIP3    H143652   0.832   5.896   5.975 -0.0750  0.1005 -0.4466
 7387TIP3    H243653   0.842   5.802   6.093 -1.5083  0.2420 -0.1933
 7388TIP3   OH243654   5.810   3.382   5.487 -0.2537  0.4861 -0.0833
 7388TIP3    H143655   5.743   3.319   5.462 -0.5480  0.5060  0.6308
 7388TIP3    H243656   5.884   3.329   5.518  1.0111  0.3637 -2.9957
 7389TIP3   OH243657   3.184   6.318  15.509  0.3240  0.0384 -0.2514
 7389TIP3    H143658   3.206   6.384  15.443  1.2908 -0.2344 -0.2252
 7389TIP3    H243659   3.257   6.322  15.571 -0.7126  0.4948  0.9723
 7390TIP3   OH243660   2.294   2.610  11.491 -0.3818 -0.6608 -0.5422
 7390TIP3    H143661   2.271   2.629  11.399 -1.2594 -2.8330 -0.8255
 7390TIP3    H243662   2.335   2.524  11.488  1.2972  0.0416  0.9138
 7391TIP3   OH243663   5.781   4.434  11.852 -0.1716  0.6960  0.0540
 7391TIP3    H143664   5.835   4.508  11.826  0.1935  0.4140  0.0033
 7391TIP3    H243665   5.738   4.405  11.771  0.5027  0.1944 -0.1359
 7392TIP3   OH243666   1.700   0.643   2.005  0.1843  0.1222 -0.1907
 7392TIP3    H143667   1.694   0.738   2.010 -0.0662  0.1756 -1.2529
 7392TIP3    H243668   1.613   0.612   2.032 -0.4282  0.2985 -1.8761
 7393TIP3   OH243669   4.013   4.526   6.264 -0.6230 -0.3119 -0.1651
 7393TIP3    H143670   4.060   4.540   6.346  0.8177 -2.9494 -0.4253
 7393TIP3    H243671   3.930   4.486   6.290 -1.3585  1.2894  0.0933
 7394TIP3   OH243672   0.189   5.308   3.338 -0.4143 -0.1783 -0.0899
 7394TIP3    H143673   0.108   5.270   3.372 -0.4578  0.2061  0.2451
 7394TIP3    H243674   0.239   5.233   3.306  0.4263 -0.8181  2.4618
 7395TIP3   OH243675   2.677   1.056  12.479 -0.1228  0.6690 -0.6793
 7395TIP3    H143676   2.644   1.078  12.392 -1.1429  0.3929 -0.3737
 7395TIP3    H243677   2.602   1.067  12.537  0.4518  0.4982  0.1116
 7396TIP3   OH243678   4.912   3.768  10.821  0.2078 -0.0970  0.4247
 7396TIP3    H143679   4.893   3.674  10.819 -2.5141  0.3758  0.4780
 7396TIP3    H243680   5.007   3.773  10.836  0.4887 -2.8088  0.0373
 7397TIP3   OH243681   3.250   3.905   0.409 -0.1411  0.5710  0.4899
 7397TIP3    H143682   3.333   3.860   0.396  0.4266  2.0310 -1.3101
 7397TIP3    H243683   3.274   3.991   0.445 -0.7874  1.2432 -0.6186
 7398TIP3   OH243684   5.103   4.910  11.231  0.0162  0.1848 -0.6972
 7398TIP3    H143685   5.132   4.863  11.154 -0.5090 -0.0956 -0.7230
 7398TIP3    H243686   5.109   5.003  11.207 -0.7218  0.0835 -1.2796
 7399TIP3   OH243687   0.888   2.757  11.308  0.0890 -0.2507 -0.0922
 7399TIP3    H143688   0.876   2.747  11.214  0.2771  1.8257 -0.3858
 7399TIP3    H243689   0.915   2.849  11.320  0.9007 -0.6748  1.9027
 7400TIP3   OH243690   5.571   6.624   1.852  0.1414  0.0431 -0.4987
 7400TIP3    H143691   5.536   6.713   1.858 -0.7478 -0.3503  0.6649
 7400TIP3    H243692   5.518   6.574   1.915  1.8889 -0.9059  0.2918
 7401TIP3   OH243693   4.998   3.019   2.528 -0.0874  0.8521 -0.6114
 7401TIP3    H143694   5.069   3.081   2.510  1.3260 -0.7539 -0.7822
 7401TIP3    H243695   4.991   3.017   2.623 -0.0987  1.2319 -0.6041
 7402TIP3   OH243696   5.413   5.636   5.084  0.1299 -0.2440  0.2274
 7402TIP3    H143697   5.499   5.594   5.083 -0.5214 -1.6134  0.3150
 7402TIP3    H243698   5.379   5.624   4.996 -0.6889 -1.2428  0.6647
 7403TIP3   OH243699   2.366   2.995   6.106 -0.6982 -0.5697  0.3881
 7403TIP3    H143700   2.336   3.067   6.161  0.7535  0.2320  0.1900
 7403TIP3    H243701   2.387   2.925   6.168  0.8686  0.3031  0.8974
 7404TIP3   OH243702   4.608   3.395  11.854  0.3325  0.4306 -0.1152
 7404TIP3    H143703   4.587   3.330  11.922 -0.7172  1.7897  0.9222
 7404TIP3    H243704   4.702   3.386  11.841  0.3518 -0.7081  0.6341
 7405TIP3   OH243705   0.250   3.636  12.913  0.5055 -0.3438  0.6748
 7405TIP3    H143706   0.224   3.545  12.902  1.3536 -0.3720 -1.6740
 7405TIP3    H243707   0.198   3.684  12.848  2.3865  0.3292 -0.4242
 7406TIP3   OH243708   5.967   2.663   2.468  0.5826 -0.5391 -0.3955
 7406TIP3    H143709   5.883   2.648   2.510  0.7045 -1.5544 -0.4869
 7406TIP3    H243710   5.986   2.580   2.423  0.8407  0.2269 -1.7471
 7407TIP3   OH243711   0.705   1.004   2.038  0.6519  0.1659  0.0975
 7407TIP3    H143712   0.771   1.044   1.982  1.3517 -0.6030  0.3628
 7407TIP3    H243713   0.731   0.912   2.044  0.0191  0.0319  0.8717
 7408TIP3   OH243714   1.091   3.919   1.566 -0.1631  0.5010 -0.2247
 7408TIP3    H143715   1.153   3.956   1.503  1.1506  1.6847  1.6635
 7408TIP3    H243716   1.141   3.911   1.647 -1.8879 -0.6532  0.7936
 7409TIP3   OH243717   2.821   3.729  13.721 -0.2049 -0.1104 -0.0771
 7409TIP3    H143718   2.906   3.691  13.744 -0.2033 -0.6107 -0.8946
 7409TIP3    H243719   2.804   3.792  13.792  1.8640  1.6032 -0.9732
 7410TIP3   OH243720   4.929   3.987  11.261  0.1351 -0.1834  0.5099
 7410TIP3    H143721   4.943   3.999  11.355  1.3001 -1.9836  0.6139
 7410TIP3    H243722   4.907   3.894  11.252 -2.2452  0.4272 -0.7795
 7411TIP3   OH243723   1.888   0.973  11.726 -1.0392  0.4211 -0.3187
 7411TIP3    H143724   1.853   0.886  11.744  1.4089 -0.4205  0.7035
 7411TIP3    H243725   1.931   0.965  11.641 -0.6156  0.5945 -0.1200
 7412TIP3   OH243726   0.961   2.125   1.227 -0.0752 -0.0681  0.0041
 7412TIP3    H143727   0.916   2.094   1.149 -0.3200 -0.1107  0.1614
 7412TIP3    H243728   0.907   2.094   1.300  0.1273  0.0097  0.1883
 7413TIP3   OH243729   0.293   5.181  12.193  0.0908 -0.2213  0.3068
 7413TIP3    H143730   0.235   5.254  12.175 -2.3933 -2.2917 -0.7262
 7413TIP3    H243731   0.329   5.157  12.108  0.3786 -0.6039  0.5289
 7414TIP3   OH243732   4.034   5.271  12.995 -0.2533 -0.4550 -0.0097
 7414TIP3    H143733   4.103   5.330  13.024  0.4745 -0.4704 -1.6318
 7414TIP3    H243734   3.953   5.311  13.026  0.4335 -0.3551  1.7878
 7415TIP3   OH243735   1.027   2.438   4.449  0.0641  0.1653  0.2223
 7415TIP3    H143736   1.022   2.436   4.544  1.3773  2.0912  0.4027
 7415TIP3    H243737   0.936   2.439   4.420 -0.3835  1.2247  1.5576
 7416TIP3   OH243738   0.786   3.722  16.770  0.3211 -0.2956  0.0455
 7416TIP3    H143739   0.823   3.663  16.835 -3.4014 -1.6699  1.1951
 7416TIP3    H243740   0.803   3.679  16.686  0.7971 -1.1245  0.5552
 7417TIP3   OH243741   3.516   5.292  14.558  0.6183  0.0934 -0.2640
 7417TIP3    H143742   3.431   5.336  14.565 -1.2859 -2.4556 -3.8522
 7417TIP3    H243743   3.572   5.355  14.512  0.2492  1.2472  0.8164
 7418TIP3   OH243744   3.761   1.264   0.885  0.1410  0.0393  0.2580
 7418TIP3    H143745   3.715   1.337   0.927 -0.8396 -0.6852  0.4833
 7418TIP3    H243746   3.827   1.237   0.949  0.5816  0.7859  0.1286
 7419TIP3   OH243747   4.893   0.893  13.772  0.2598 -0.1654  0.5233
 7419TIP3    H143748   4.873   0.800  13.773  1.2505 -0.4171  3.1003
 7419TIP3    H243749   4.808   0.935  13.757 -0.3133 -1.4280  0.0330
 7420TIP3   OH243750   6.323   5.591  17.230 -0.1388 -0.0097 -0.2733
 7420TIP3    H143751   6.365   5.657  17.174  0.3510  0.4029  0.5510
 7420TIP3    H243752   6.345   5.507  17.190 -0.8615  0.3259 -1.3978
 7421TIP3   OH243753   0.637   0.018   3.936  0.2752 -0.2366 -0.3716
 7421TIP3    H143754   0.726   0.044   3.960  0.2112  0.0750 -0.4615
 7421TIP3    H243755   0.602   0.094   3.888  0.0746 -0.4837 -0.6194
 7422TIP3   OH243756   3.366   1.225  12.452  0.1370 -0.1659 -0.0517
 7422TIP3    H143757   3.363   1.195  12.543 -0.7101  0.5700  0.1768
 7422TIP3    H243758   3.335   1.150  12.401 -1.7436  0.1847  0.4897
 7423TIP3   OH243759   5.886   2.161   3.821 -0.0542  0.2076  0.5398
 7423TIP3    H143760   5.826   2.185   3.751 -1.0999 -1.8723  0.6599
 7423TIP3    H243761   5.832   2.158   3.900  0.8359  1.1797  1.2267
 7424TIP3   OH243762   3.841   5.138  13.267  0.3333 -0.3043  0.4447
 7424TIP3    H143763   3.833   5.227  13.300 -0.7094 -0.4454  0.5879
 7424TIP3    H243764   3.935   5.128  13.250  0.3484  1.2190 -0.6813
 7425TIP3   OH243765   4.158   0.576  15.447  0.2037  0.2156  0.4307
 7425TIP3    H143766   4.126   0.557  15.359 -2.7614  1.7124  1.0431
 7425TIP3    H243767   4.246   0.613  15.434  0.5039 -1.0974 -1.7002
 7426TIP3   OH243768   4.977   4.493   4.333 -0.1889  0.2768 -0.1781
 7426TIP3    H143769   4.961   4.475   4.241 -0.6398 -1.5025  0.2151
 7426TIP3    H243770   5.065   4.530   4.336  0.6777 -1.6347 -1.1189
 7427TIP3   OH243771   0.260   2.016  14.197 -0.1613  0.1697 -0.3293
 7427TIP3    H143772   0.311   2.057  14.127 -0.9291 -0.4264 -1.2764
 7427TIP3    H243773   0.320   2.008  14.270  0.9236  0.0165 -1.2196
 7428TIP3   OH243774   5.853   1.428  12.240  0.0013  0.0616  0.4671
 7428TIP3    H143775   5.910   1.500  12.213 -1.1703  1.6648  2.0273
 7428TIP3    H243776   5.909   1.371  12.293  0.4558  0.9562  0.9690
 7429TIP3   OH243777   6.024   4.701   1.250  0.1223 -0.2433  0.5785
 7429TIP3    H143778   5.946   4.693   1.195 -0.4993  0.2991  1.3632
 7429TIP3    H243779   6.094   4.660   1.199 -0.2321  1.0532 -1.0275
 7430TIP3   OH243780   5.642   4.699   5.791  0.2678  0.0497 -0.1349
 7430TIP3    H143781   5.692   4.644   5.731  0.7059  1.3661 -1.0255
 7430TIP3    H243782   5.702   4.712   5.865 -0.1733 -1.3591  0.5002
 7431TIP3   OH243783   0.557   3.494  16.608  0.0903  0.0887  0.1020
 7431TIP3    H143784   0.522   3.545  16.681 -0.2754 -1.4763  1.0633
 7431TIP3    H243785   0.617   3.554  16.564 -1.0181  1.6411  0.6103
 7432TIP3   OH243786   3.332   2.405   3.222 -0.2547  0.0099  0.1247
 7432TIP3    H143787   3.374   2.393   3.307 -1.4917 -0.2788  0.7181
 7432TIP3    H243788   3.403   2.426   3.162  1.1806 -3.2990  0.4573
 7433TIP3   OH243789   3.386   2.027  12.873 -0.3562  0.1517 -0.1628
 7433TIP3    H143790   3.417   2.029  12.782 -0.2709  1.3517 -0.1277
 7433TIP3    H243791   3.451   1.975  12.919  0.8242  1.3515 -0.3905
 7434TIP3   OH243792   2.577   5.137   5.189  0.0251  0.6817 -0.4013
 7434TIP3    H143793   2.532   5.221   5.175 -0.5751  0.2858 -0.9378
 7434TIP3    H243794   2.516   5.085   5.241  0.0354  0.2845 -0.7787
 7435TIP3   OH243795   2.526   6.583  11.447 -0.3364 -0.5645 -0.4394
 7435TIP3    H143796   2.505   6.498  11.486  0.6267 -1.0173 -0.8636
 7435TIP3    H243797   2.538   6.564  11.354 -0.8926  0.1891 -0.6782
 7436TIP3   OH243798   0.261   4.458  16.898 -0.1141  0.0809  0.3010
 7436TIP3    H143799   0.209   4.377  16.905  0.2625 -0.1724  0.2346
 7436TIP3    H243800   0.265   4.492  16.987 -0.0107 -0.1469  0.3870
 7437TIP3   OH243801   5.016   3.685   3.776 -0.3583 -0.1081 -0.3259
 7437TIP3    H143802   5.032   3.647   3.862 -0.1756 -1.6183 -0.9880
 7437TIP3    H243803   5.097   3.730   3.754 -0.1130 -0.4050 -0.0376
 7438TIP3   OH243804   3.855   0.649  11.110  1.0305  0.2252 -0.0196
 7438TIP3    H143805   3.780   0.601  11.073  0.1811 -0.0234  1.9211
 7438TIP3    H243806   3.928   0.626  11.052  0.4539 -2.6433  0.2132
 7439TIP3   OH243807   6.334   4.551   0.672 -1.2400  0.0922 -0.1469
 7439TIP3    H143808   6.308   4.636   0.637 -1.5331  0.0267 -0.0862
 7439TIP3    H243809   6.373   4.571   0.757 -0.4232  0.2643 -0.5442
 7440TIP3   OH243810   2.383   5.577   3.554 -0.4899  0.1705  0.5659
 7440TIP3    H143811   2.300   5.550   3.592 -0.8446  0.5374  0.0563
 7440TIP3    H243812   2.397   5.517   3.481  0.9931 -1.6126  2.2042
 7441TIP3   OH243813   3.108   4.633   5.492 -0.2201  0.3408  0.1745
 7441TIP3    H143814   3.149   4.719   5.496  0.0670  0.1921  0.4843
 7441TIP3    H243815   3.084   4.622   5.400  0.1238  0.5707  0.0567
 7442TIP3   OH243816   0.746   1.982   2.771 -0.3791 -0.3182  0.2326
 7442TIP3    H143817   0.801   1.940   2.838  0.7226  1.0626  0.2349
 7442TIP3    H243818   0.755   2.075   2.788 -0.4266  0.0531 -1.5738
 7443TIP3   OH243819   5.712   1.406  11.740 -0.0665 -0.1004 -0.2797
 7443TIP3    H143820   5.771   1.341  11.779 -0.0077  1.3945  2.3303
 7443TIP3    H243821   5.626   1.365  11.744  0.3678 -1.2446 -1.6755
 7444TIP3   OH243822   2.860   3.701  14.174 -0.0735  0.8159 -0.1946
 7444TIP3    H143823   2.902   3.780  14.208  2.2730  0.4904 -2.1199
 7444TIP3    H243824   2.818   3.729  14.093 -0.6157  0.3846 -0.0702
 7445TIP3   OH243825   6.360   2.975   0.916  0.2121 -0.1670 -0.2949
 7445TIP3    H143826   6.345   3.020   0.999  1.1982 -0.9573  0.3365
 7445TIP3    H243827   6.273   2.967   0.876 -0.0651  1.8119 -0.2013
 7446TIP3   OH243828   2.637   1.151  15.300  0.0444 -0.3413  0.7074
 7446TIP3    H143829   2.658   1.058  15.307  1.2809 -0.1567 -0.2215
 7446TIP3    H243830   2.600   1.161  15.212 -1.5068 -0.1951  1.3540
 7447TIP3   OH243831   2.866   1.449   3.004 -1.1651  0.0142 -0.3360
 7447TIP3    H143832   2.870   1.355   2.986 -1.4411  0.0012 -0.3430
 7447TIP3    H243833   2.826   1.455   3.091 -3.8877  0.1989 -1.4988
 7448TIP3   OH243834   2.373   0.497  13.872 -0.1407  0.3336  0.0160
 7448TIP3    H143835   2.305   0.446  13.917  1.1147  0.9362  2.8362
 7448TIP3    H243836   2.331   0.529  13.793 -2.1176 -1.9498  0.0175
 7449TIP3   OH243837   4.585   6.486   1.958 -0.2050 -0.3407 -0.5423
 7449TIP3    H143838   4.531   6.565   1.951 -0.0687 -0.2716 -0.8346
 7449TIP3    H243839   4.523   6.417   1.982 -0.5863 -0.4416 -1.7421
 7450TIP3   OH243840   1.947   4.623  13.435 -0.5465  0.0837 -0.1479
 7450TIP3    H143841   1.891   4.680  13.488 -0.9069  0.2652 -0.7218
 7450TIP3    H243842   1.910   4.536  13.447  0.2514 -0.1102  1.0590
 7451TIP3   OH243843   3.416   5.025  16.422 -0.8726 -0.0204  0.4353
 7451TIP3    H143844   3.337   4.990  16.464 -1.8982  1.1757 -0.4110
 7451TIP3    H243845   3.394   5.032  16.330 -0.5881  2.3136  0.4665
 7452TIP3   OH243846   2.918   6.789   3.273 -0.1774  0.2314  0.1039
 7452TIP3    H143847   2.976   6.781   3.197 -0.4759  0.1131 -0.1146
 7452TIP3    H243848   2.975   6.774   3.349  0.2632  1.0224 -0.0592
 7453TIP3   OH243849   0.966   4.921  16.884  0.1273  0.4534 -0.0843
 7453TIP3    H143850   0.931   4.860  16.948  1.8998  0.5414  1.0316
 7453TIP3    H243851   0.994   4.866  16.811 -0.6187  0.2015 -0.1778
 7454TIP3   OH243852   5.604   2.911   0.302  0.5373 -0.1452 -0.3268
 7454TIP3    H143853   5.659   2.847   0.258  0.4718 -0.3886 -0.0578
 7454TIP3    H243854   5.586   2.977   0.235  0.4382 -0.5075 -0.6617
 7455TIP3   OH243855   3.021   5.221   4.277 -0.6350  0.1867  0.6983
 7455TIP3    H143856   2.983   5.308   4.285  0.6980  0.9396 -0.5614
 7455TIP3    H243857   2.999   5.193   4.188 -0.6044 -0.5349  0.9109
 7456TIP3   OH243858   3.813   3.571  10.293  0.0798  0.2905 -0.2162
 7456TIP3    H143859   3.808   3.666  10.301  1.9733  0.3949  0.2463
 7456TIP3    H243860   3.881   3.545  10.355 -1.0790 -1.5043  0.4104
 7457TIP3   OH243861   2.409   3.893  13.853 -0.2475 -0.1597  0.4438
 7457TIP3    H143862   2.467   3.820  13.872 -0.2226 -0.2449  0.0509
 7457TIP3    H243863   2.347   3.858  13.789  0.2549  0.3882 -0.3579
 7458TIP3   OH243864   6.736   3.408  12.637 -0.1622 -0.1322  0.2951
 7458TIP3    H143865   6.815   3.453  12.605 -0.3967 -0.5290 -0.8753
 7458TIP3    H243866   6.770   3.343  12.699  0.4131 -0.1943 -0.0762
 7459TIP3   OH243867   4.349   4.478   1.117 -0.5478  0.0702  0.4891
 7459TIP3    H143868   4.415   4.460   1.050 -1.1697 -1.6339  0.3037
 7459TIP3    H243869   4.391   4.541   1.176  0.8857 -0.2744 -0.1359
 7460TIP3   OH243870   0.604   1.792   4.705 -0.0911 -0.4888  0.4420
 7460TIP3    H143871   0.615   1.708   4.661 -0.7384 -0.1573 -0.3991
 7460TIP3    H243872   0.558   1.846   4.640 -0.6343  0.1736  1.3652
 7461TIP3   OH243873   0.218   0.289   3.595  0.6337  1.0344 -0.1758
 7461TIP3    H143874   0.179   0.363   3.642  0.1291  0.4667  0.3101
 7461TIP3    H243875   0.149   0.223   3.592  1.1878  0.4473 -0.3198
 7462TIP3   OH243876   2.282   0.352   0.972 -0.1725  0.0040  0.3740
 7462TIP3    H143877   2.198   0.311   0.950 -0.0536  0.0040 -0.1033
 7462TIP3    H243878   2.326   0.288   1.029 -0.3031 -0.2014  0.2453
 7463TIP3   OH243879   5.417   6.722  13.963  0.4153  0.2905 -0.0413
 7463TIP3    H143880   5.469   6.642  13.970  0.2020  0.1349 -0.2399
 7463TIP3    H243881   5.366   6.726  14.043 -0.0120 -0.0794 -0.2916
 7464TIP3   OH243882   5.256   1.573  13.589 -0.0849 -0.1076  0.0713
 7464TIP3    H143883   5.210   1.498  13.551 -0.2614  0.3756 -0.7065
 7464TIP3    H243884   5.190   1.616  13.644  0.3913 -1.2428  1.5785
 7465TIP3   OH243885   1.717   4.422  13.494  0.2168 -0.3436 -0.4334
 7465TIP3    H143886   1.625   4.446  13.487 -0.1709 -0.6873  2.3100
 7465TIP3    H243887   1.727   4.346  13.437 -0.4125  1.4356 -3.0929
 7466TIP3   OH243888   2.850   0.282   2.701 -0.3223  0.1144 -0.5043
 7466TIP3    H143889   2.895   0.331   2.631 -0.8005  0.0342 -0.8752
 7466TIP3    H243890   2.810   0.208   2.656  0.0000 -0.3566 -0.0166
 7467TIP3   OH243891   2.978   6.183   4.587 -0.7497 -0.2015 -0.3263
 7467TIP3    H143892   3.055   6.159   4.536 -1.9788 -2.3256 -1.3009
 7467TIP3    H243893   2.963   6.276   4.565  1.2115  0.1095 -0.4732
 7468TIP3   OH243894   5.043   5.657  12.690 -0.2496 -0.0875  0.2024
 7468TIP3    H143895   5.122   5.660  12.636 -0.8774  0.4679 -0.7169
 7468TIP3    H243896   5.011   5.568  12.681 -2.0465  0.7248 -2.9480
 7469TIP3   OH243897   4.317   0.295  16.644 -0.0077 -0.2083  0.1361
 7469TIP3    H143898   4.387   0.283  16.581 -1.6976  1.7594 -2.3086
 7469TIP3    H243899   4.238   0.266  16.598 -1.0950 -0.5708  2.0848
 7470TIP3   OH243900   2.148   1.723  17.222  0.6145 -0.0883 -0.0976
 7470TIP3    H143901   2.199   1.646  17.196 -0.1869 -0.7719  0.3251
 7470TIP3    H243902   2.057   1.696  17.217  0.3245  0.7444  0.3368
 7471TIP3   OH243903   2.866   4.942  12.907 -0.2733 -0.0126  0.0785
 7471TIP3    H143904   2.788   4.995  12.923 -0.4360 -0.2290  0.0123
 7471TIP3    H243905   2.939   5.000  12.927 -0.4370 -0.6445  2.8925
 7472TIP3   OH243906   2.903   5.774   2.865  0.4134 -0.3005 -0.2722
 7472TIP3    H143907   2.848   5.705   2.828  1.1753 -2.4097  2.1877
 7472TIP3    H243908   2.855   5.805   2.942  0.7312  0.9189 -0.5427
 7473TIP3   OH243909   0.637   5.306  11.361 -0.6179  0.1636  0.3438
 7473TIP3    H143910   0.698   5.316  11.434  0.9629  0.8624 -0.9796
 7473TIP3    H243911   0.604   5.217  11.368 -1.0811  0.4565  2.3062
 7474TIP3   OH243912   2.204   5.707  15.581 -0.2088  0.3721  0.8869
 7474TIP3    H143913   2.226   5.800  15.573  0.7773  0.0452 -0.6403
 7474TIP3    H243914   2.283   5.668  15.619 -0.5864  0.1408  1.4373
 7475TIP3   OH243915   2.454   2.374   3.542 -0.4399  0.2102  0.0303
 7475TIP3    H143916   2.462   2.312   3.615 -1.8168  0.3561  0.3320
 7475TIP3    H243917   2.539   2.418   3.539  0.1091 -0.7611  0.6543
 7476TIP3   OH243918   1.798   1.481   3.068  0.1131 -0.5712 -1.0666
 7476TIP3    H143919   1.841   1.551   3.117  1.1743 -1.3556 -0.8493
 7476TIP3    H243920   1.708   1.480   3.102  0.6305 -0.6162  0.3512
 7477TIP3   OH243921   2.387   3.145   2.120  0.0402 -0.3185  0.1410
 7477TIP3    H143922   2.386   3.173   2.029  1.4592 -0.4057  0.0733
 7477TIP3    H243923   2.457   3.196   2.160  0.2644 -1.1623  0.8723
 7478TIP3   OH243924   4.683   2.987  13.813 -0.1658 -0.0819  0.0349
 7478TIP3    H143925   4.632   2.945  13.745  0.6754  0.6201 -1.0679
 7478TIP3    H243926   4.657   2.943  13.894  0.0282 -2.0899 -0.9435
 7479TIP3   OH243927   2.085   6.764  17.053  0.1404  0.4201  0.1027
 7479TIP3    H143928   2.101   6.722  16.968  2.2634 -0.3157  0.8128
 7479TIP3    H243929   2.085   6.858  17.033 -0.6547  0.2427 -0.8720
 7480TIP3   OH243930   5.408   1.727   4.577 -1.0862 -0.3844 -0.0970
 7480TIP3    H143931   5.364   1.786   4.516 -0.7484 -0.5697 -0.5197
 7480TIP3    H243932   5.425   1.648   4.526 -1.4504 -0.8205  0.4372
 7481TIP3   OH243933   5.706   3.948   0.936  0.2931  0.1472  0.0681
 7481TIP3    H143934   5.652   4.001   0.877  0.8717  0.7490  0.0551
 7481TIP3    H243935   5.796   3.971   0.911  0.5497  0.1980  0.9945
 7482TIP3   OH243936   0.271   0.120   2.794  0.6980 -0.0588  0.8487
 7482TIP3    H143937   0.248   0.035   2.756 -0.4228  0.3860  0.4859
 7482TIP3    H243938   0.222   0.122   2.877  0.6709  0.2553  0.8242
 7483TIP3   OH243939   2.578   5.012  12.375  0.0806 -0.1917  0.3432
 7483TIP3    H143940   2.530   4.980  12.451  0.1342 -0.2409  0.3574
 7483TIP3    H243941   2.652   5.060  12.412  0.0340 -0.1040  0.3221
 7484TIP3   OH243942   6.316   1.666  12.824 -0.1804  0.4115 -0.0893
 7484TIP3    H143943   6.264   1.729  12.774  1.3107 -0.0642 -2.4517
 7484TIP3    H243944   6.385   1.639  12.763  0.3255 -2.1242  1.4375
 7485TIP3   OH243945   0.240   5.068   3.713 -0.1271  0.0781 -0.1068
 7485TIP3    H143946   0.300   5.028   3.649 -0.4302 -1.8279  0.7187
 7485TIP3    H243947   0.287   5.061   3.796 -0.4330  0.9932  0.1503
 7486TIP3   OH243948   6.623   6.050   1.506  1.1334  0.6432  0.0563
 7486TIP3    H143949   6.647   6.138   1.535 -1.0688  0.8108  1.5940
 7486TIP3    H243950   6.702   5.997   1.522  1.3388  1.5902  2.6597
 7487TIP3   OH243951   3.160   1.468   6.521  0.3008 -0.0805  0.0656
 7487TIP3    H143952   3.132   1.382   6.553  2.3832 -0.8596 -0.0476
 7487TIP3    H243953   3.254   1.471   6.538  0.4164  1.8909 -0.6129
 7488TIP3   OH243954   3.746   2.561   5.295 -0.2014 -0.1770  0.1437
 7488TIP3    H143955   3.817   2.624   5.282 -1.2301  1.3098  1.4272
 7488TIP3    H243956   3.728   2.565   5.388 -2.6016  0.2261 -0.2881
 7489TIP3   OH243957   1.695   0.157   4.355 -1.3051  0.4162  0.4194
 7489TIP3    H143958   1.695   0.215   4.431  2.2360  2.5373 -0.9682
 7489TIP3    H243959   1.674   0.215   4.281  1.1296 -0.1927 -0.8561
 7490TIP3   OH243960   1.652   4.562   1.606  0.2181  0.1477  0.1405
 7490TIP3    H143961   1.678   4.650   1.579 -0.2822  0.7181  1.4120
 7490TIP3    H243962   1.654   4.565   1.702 -3.8547  0.1045  0.4090
 7491TIP3   OH243963   3.816   4.902   4.992 -0.0777  0.7995  0.3488
 7491TIP3    H143964   3.735   4.883   5.038 -0.3831 -0.3481 -0.5964
 7491TIP3    H243965   3.801   4.869   4.903  2.1260 -1.4091  0.6674
 7492TIP3   OH243966   0.709   3.784  13.532 -0.2214  0.0907  0.1166
 7492TIP3    H143967   0.683   3.859  13.586  0.8135  0.1461  0.5481
 7492TIP3    H243968   0.742   3.824  13.451 -1.4071  0.0196 -0.4286
 7493TIP3   OH243969   6.523   1.202   1.774 -0.6630  0.0633  0.1897
 7493TIP3    H143970   6.565   1.122   1.742  1.4448  0.8620  0.7694
 7493TIP3    H243971   6.485   1.242   1.696  0.1541 -0.4576 -0.4990
 7494TIP3   OH243972   2.076   2.559  12.376  0.1668 -0.3516  0.2758
 7494TIP3    H143973   2.029   2.477  12.371 -1.9517  0.8636 -1.5110
 7494TIP3    H243974   2.032   2.616  12.313  1.6395  2.1159  1.3304
 7495TIP3   OH243975   2.920   3.145   4.144 -0.5648  0.4612  0.4839
 7495TIP3    H143976   2.886   3.117   4.229 -1.0075  1.2289  0.5651
 7495TIP3    H243977   3.005   3.101   4.137 -0.9897 -0.4556  0.8411
 7496TIP3   OH243978   1.175   0.683   2.319  0.4525 -0.0947  0.1475
 7496TIP3    H143979   1.211   0.744   2.383  1.4823 -0.1722 -0.3330
 7496TIP3    H243980   1.173   0.599   2.365 -0.3572  0.1671  0.6003
 7497TIP3   OH243981   3.807   5.922  11.132 -1.2986 -0.1929 -0.2617
 7497TIP3    H143982   3.809   5.837  11.177 -2.4354 -0.1005 -0.0051
 7497TIP3    H243983   3.842   5.903  11.045 -0.8755 -0.7784  0.0291
 7498TIP3   OH243984   5.521   5.276  16.536  0.1932 -0.3522  0.1937
 7498TIP3    H143985   5.565   5.252  16.618  2.9114 -0.5883 -1.2387
 7498TIP3    H243986   5.468   5.352  16.560 -0.6114 -1.5391  2.5666
 7499TIP3   OH243987   1.058   3.656  16.881  0.1376  0.1267  0.0351
 7499TIP3    H143988   1.090   3.641  16.792 -1.7782  1.0591 -0.8497
 7499TIP3    H243989   1.040   3.749  16.885  1.0714  0.2643  1.7379
 7500TIP3   OH243990   3.144   2.870  13.978  0.0269  0.1161 -0.2680
 7500TIP3    H143991   3.051   2.891  13.970 -0.2245 -0.5245  0.8521
 7500TIP3    H243992   3.163   2.878  14.071  0.1632 -3.4562  0.1279
 7501TIP3   OH243993   4.038   0.901  14.283  0.8267 -0.4617 -0.1819
 7501TIP3    H143994   4.067   0.981  14.328 -1.0493 -0.7362  1.6746
 7501TIP3    H243995   4.118   0.865  14.245  2.1392  1.0065  1.0247
 7502TIP3   OH243996   3.865   3.086  15.709  0.3458 -0.1301  0.0456
 7502TIP3    H143997   3.937   3.024  15.703 -0.7894 -1.3671 -3.2762
 7502TIP3    H243998   3.808   3.050  15.777  0.2854 -2.1800 -1.0030
 7503TIP3   OH243999   2.798   0.681   4.120  0.4750  0.2418  0.0001
 7503TIP3    H144000   2.775   0.630   4.198  1.9089  0.0644  0.3377
 7503TIP3    H244001   2.820   0.768   4.154 -0.1053  0.5346 -0.3607
 7504TIP3   OH244002   3.451   5.915   3.530  0.4989  0.9000  0.1977
 7504TIP3    H144003   3.522   5.970   3.565 -0.4913  1.6642  1.0480
 7504TIP3    H244004   3.488   5.827   3.527  0.7843  0.8580  2.7907
 7505TIP3   OH244005   0.003   1.469  13.238 -0.6720 -0.0306 -0.3693
 7505TIP3    H144006  -0.022   1.519  13.316 -1.9858  1.3292 -1.5789
 7505TIP3    H244007  -0.009   1.378  13.263  2.2168  0.1262  2.0559
 7506TIP3   OH244008   5.890   4.799  10.711 -0.4970  0.0645 -0.0924
 7506TIP3    H144009   5.945   4.722  10.697  0.1377  0.5754 -0.4813
 7506TIP3    H244010   5.936   4.849  10.778 -0.5409  0.4518 -0.3511
 7507TIP3   OH244011   5.370   2.366  14.273  0.9558 -0.0867  0.1364
 7507TIP3    H144012   5.299   2.308  14.299  0.9239 -0.9117 -1.6496
 7507TIP3    H244013   5.449   2.312  14.278  1.2756  0.4310  0.7987
 7508TIP3   OH244014   4.777   4.527   3.586  0.3335  0.1952 -0.6591
 7508TIP3    H144015   4.832   4.465   3.538  1.4084  0.8298 -0.2858
 7508TIP3    H244016   4.705   4.546   3.527  1.1710  0.2977 -1.6890
 7509TIP3   OH244017   4.508   5.960   1.524 -1.0061  0.1208  0.5716
 7509TIP3    H144018   4.520   6.004   1.440  1.1584 -0.7517  0.3520
 7509TIP3    H244019   4.482   5.871   1.501  2.6054 -1.1082  0.5199
 7510TIP3   OH244020   5.669   3.914  16.951  0.1082  0.2778  0.1549
 7510TIP3    H144021   5.613   3.989  16.972 -2.0531 -1.0424 -0.6167
 7510TIP3    H244022   5.735   3.914  17.020 -1.2209  1.5301  1.5111
 7511TIP3   OH244023   6.755   2.783   0.794 -0.2391 -0.1788  0.0211
 7511TIP3    H144024   6.725   2.751   0.880 -0.0763  0.1703  0.2074
 7511TIP3    H244025   6.700   2.859   0.777  0.9938  0.8907  0.6815
 7512TIP3   OH244026   0.597   1.228   2.703  0.5112  0.2526  0.3168
 7512TIP3    H144027   0.506   1.253   2.684  1.0461  0.1906 -2.7415
 7512TIP3    H244028   0.590   1.140   2.739 -0.6125 -0.2855 -1.1099
 7513TIP3   OH244029   0.335   1.775  15.651  0.1870 -0.0813 -0.0055
 7513TIP3    H144030   0.417   1.736  15.681 -0.0203  1.5796  3.1148
 7513TIP3    H244031   0.270   1.746  15.715 -1.5364 -0.6413 -1.9078
 7514TIP3   OH244032   6.606   4.198   6.322 -0.8230  0.3740 -0.0834
 7514TIP3    H144033   6.639   4.108   6.323 -1.9507 -0.0990 -1.4007
 7514TIP3    H244034   6.588   4.218   6.414  0.3305 -0.3907  0.3330
 7515TIP3   OH244035   2.279   3.781   3.097  0.5790  0.1315 -0.0773
 7515TIP3    H144036   2.280   3.776   3.193  0.8658  0.5283 -0.0615
 7515TIP3    H244037   2.364   3.748   3.071 -0.3646 -2.3324 -0.3137
 7516TIP3   OH244038   3.000   0.380   6.162 -0.2394  0.7724  0.6379
 7516TIP3    H144039   3.079   0.427   6.135  0.0053 -0.9159 -2.0268
 7516TIP3    H244040   3.021   0.288   6.147 -2.1797  0.1513  1.4455
 7517TIP3   OH244041   6.420   6.607   4.645 -0.4602  0.3374 -0.3233
 7517TIP3    H144042   6.451   6.641   4.561 -1.0589  0.4797 -0.4887
 7517TIP3    H244043   6.338   6.653   4.661 -0.3480  0.3083  0.3432
 7518TIP3   OH244044   5.309   5.162   6.658 -0.4667  0.4604 -0.2470
 7518TIP3    H144045   5.214   5.167   6.662 -0.5547 -1.0994  0.2521
 7518TIP3    H244046   5.327   5.081   6.610  0.6287  0.9943 -0.8012
 7519TIP3   OH244047   4.066   2.756  14.417  0.3325  0.2154  0.0516
 7519TIP3    H144048   4.027   2.828  14.466  0.1283  0.2892 -0.2132
 7519TIP3    H244049   4.010   2.681  14.436 -0.7033  0.5980 -1.3043
 7520TIP3   OH244050   5.503   2.431   6.150  0.0111  0.0065  0.6190
 7520TIP3    H144051   5.517   2.445   6.057  1.9097  3.1599  1.2467
 7520TIP3    H244052   5.575   2.373   6.177  0.5090  0.5303  0.4270
 7521TIP3   OH244053   1.411   3.473  16.030 -0.2014 -0.2956  0.0269
 7521TIP3    H144054   1.467   3.396  16.028  1.5400  0.7452  2.9745
 7521TIP3    H244055   1.460   3.540  15.983 -0.0728 -0.0586  0.4906
 7522TIP3   OH244056   1.963   2.237   5.901 -0.3077 -0.0057  0.3998
 7522TIP3    H144057   1.954   2.157   5.849 -0.3833  0.7996 -0.8718
 7522TIP3    H244058   2.057   2.244   5.918 -0.4447 -1.1436  1.8400
 7523TIP3   OH244059   2.883   0.669   3.374 -0.0316  0.4572  0.5081
 7523TIP3    H144060   2.797   0.686   3.336 -1.4455 -0.0235  3.2761
 7523TIP3    H244061   2.897   0.575   3.359 -0.8727  0.1316  1.6586
 7524TIP3   OH244062   2.768   1.788  14.261  0.3688  0.0615  0.1036
 7524TIP3    H144063   2.785   1.800  14.354  0.2932 -0.7967  0.2419
 7524TIP3    H244064   2.820   1.855  14.217  0.7516  0.1826  0.7422
 7525TIP3   OH244065   1.277   4.566   4.380 -0.0627 -0.4091 -0.3488
 7525TIP3    H144066   1.208   4.597   4.439 -0.5773 -0.3089 -0.9999
 7525TIP3    H244067   1.355   4.613   4.408 -0.3837 -0.0852  0.0143
 7526TIP3   OH244068   6.549   0.309  11.683  0.0423  0.0635 -0.1527
 7526TIP3    H144069   6.502   0.342  11.760  1.3179  1.2122  0.1882
 7526TIP3    H244070   6.580   0.222  11.709 -0.2125  0.1213  0.3502
 7527TIP3   OH244071   5.896   0.655  15.221 -0.1160 -0.6307 -0.1445
 7527TIP3    H144072   5.837   0.620  15.153  0.4172 -0.7517 -0.5485
 7527TIP3    H244073   5.973   0.684  15.173  1.0600 -2.3987  0.5681
 7528TIP3   OH244074   1.444   5.404  10.512 -0.2114 -0.2035 -0.0502
 7528TIP3    H144075   1.407   5.480  10.467  1.0921  1.4191  1.4533
 7528TIP3    H244076   1.368   5.357  10.547 -1.1216 -0.4624 -2.2103
 7529TIP3   OH244077   0.130   4.262   4.727  0.0108 -0.1047 -0.2134
 7529TIP3    H144078   0.206   4.234   4.677  0.0329 -1.2345  0.3997
 7529TIP3    H244079   0.158   4.257   4.818 -0.9561 -1.1533  0.0540
 7530TIP3   OH244080   2.786   2.047   4.969  0.6415 -0.3122 -0.1509
 7530TIP3    H144081   2.809   2.125   5.020  0.1096 -0.8858  1.0083
 7530TIP3    H244082   2.753   1.985   5.034  0.4482 -1.2748 -1.1387
 7531TIP3   OH244083   5.600   1.328   5.941  0.7303 -1.0065 -0.3256
 7531TIP3    H144084   5.624   1.278   6.020  0.2335 -0.8986 -0.1051
 7531TIP3    H244085   5.505   1.332   5.943  0.7448 -0.4588 -0.6020
 7532TIP3   OH244086   1.940   1.358   4.830 -0.5096 -0.5000  0.0267
 7532TIP3    H144087   1.950   1.328   4.740  0.7298  1.1656 -0.4360
 7532TIP3    H244088   1.926   1.452   4.823 -1.2064 -0.4531  1.5472
 7533TIP3   OH244089   5.630   2.814   3.266 -0.1894 -0.2369  0.2130
 7533TIP3    H144090   5.683   2.814   3.345 -0.5723 -1.5034  0.4912
 7533TIP3    H244091   5.550   2.858   3.291 -0.4028 -0.8327  0.6180
 7534TIP3   OH244092   0.292   3.667  16.242 -0.1780  0.2860 -0.6409
 7534TIP3    H144093   0.256   3.703  16.324  0.0796  2.1882 -1.3121
 7534TIP3    H244094   0.224   3.609  16.210 -0.2924 -0.4899  0.9035
 7535TIP3   OH244095   3.104   5.436  16.029  0.2202 -0.0776  0.3608
 7535TIP3    H144096   3.193   5.433  15.995 -0.0728  0.1607 -0.4391
 7535TIP3    H244097   3.056   5.490  15.967 -0.9153 -1.6539 -0.1875
 7536TIP3   OH244098   0.753   1.696   3.105  0.3211  0.0763 -0.1916
 7536TIP3    H144099   0.707   1.616   3.130 -1.7450  1.3098  0.1822
 7536TIP3    H244100   0.797   1.674   3.023 -0.4026 -1.3666 -0.2246
 7537TIP3   OH244101   1.961   0.971   3.138  0.1631  0.1441  0.1175
 7537TIP3    H144102   1.912   0.970   3.056 -0.5168  0.7015  0.5114
 7537TIP3    H244103   1.973   0.878   3.160  0.1655 -0.0053 -0.4959
 7538TIP3   OH244104   1.479   5.159  16.391 -0.3668  0.3430 -0.2100
 7538TIP3    H144105   1.384   5.166  16.385 -0.3284  0.4128 -0.8328
 7538TIP3    H244106   1.510   5.180  16.303  0.0554 -2.4579 -0.8241
 7539TIP3   OH244107   2.728   6.343  15.112  0.0410  0.1883 -0.4947
 7539TIP3    H144108   2.782   6.340  15.033  1.4576  0.2636  0.4506
 7539TIP3    H244109   2.682   6.427  15.106  0.1457  0.2016 -1.2178
 7540TIP3   OH244110   1.358   3.024   2.272  0.0978 -0.4800  0.4115
 7540TIP3    H144111   1.359   3.076   2.192 -1.1265  0.9448  1.2528
 7540TIP3    H244112   1.384   2.936   2.245  3.0087  0.6807 -0.9691
 7541TIP3   OH244113   3.681   2.201  15.780 -0.5067  0.2177 -0.2905
 7541TIP3    H144114   3.677   2.106  15.794 -3.2777  0.2157 -0.4184
 7541TIP3    H244115   3.767   2.227  15.813 -0.5621 -2.0304  1.9122
 7542TIP3   OH244116   6.702   2.152  16.133  0.8509 -0.1126 -0.1004
 7542TIP3    H144117   6.611   2.170  16.159  0.4534 -1.6068 -0.3522
 7542TIP3    H244118   6.717   2.206  16.056  0.2200  0.2602  0.0357
 7543TIP3   OH244119   5.254   0.853   3.129 -0.7718  0.2174 -0.0292
 7543TIP3    H144120   5.212   0.927   3.173 -0.8964  0.3894 -0.4334
 7543TIP3    H244121   5.310   0.893   3.063 -1.0922 -0.0578 -0.4717
 7544TIP3   OH244122   2.020   1.267  14.150  0.1317 -0.4857 -0.1293
 7544TIP3    H144123   2.016   1.219  14.233  0.1553 -1.4536 -0.6724
 7544TIP3    H244124   1.999   1.357  14.174 -0.9754 -0.9471  0.7607
 7545TIP3   OH244125   6.056   3.472   0.593 -0.3651 -0.1923  0.3150
 7545TIP3    H144126   5.998   3.497   0.521 -0.5588  0.8617  0.8226
 7545TIP3    H244127   6.092   3.387   0.566 -0.8006 -0.0414 -0.8014
 7546TIP3   OH244128   0.705   1.770   2.039 -0.0709  0.5051 -0.6263
 7546TIP3    H144129   0.711   1.677   2.018 -3.8429 -0.0152 -0.2151
 7546TIP3    H244130   0.700   1.772   2.135 -1.7212  0.8966 -0.6945
 7547TIP3   OH244131   2.182   0.047   3.188  0.4356  0.3122 -0.0069
 7547TIP3    H144132   2.217   0.043   3.277  0.2717  1.8556  0.1650
 7547TIP3    H244133   2.145   0.135   3.182 -1.7473 -0.5926 -0.7955
 7548TIP3   OH244134   4.685   5.027   4.687 -0.2473  0.2469 -0.0641
 7548TIP3    H144135   4.726   4.975   4.617  0.9879 -1.0303  1.5313
 7548TIP3    H244136   4.715   5.116   4.670  1.4506 -0.3094 -0.2204
 7549TIP3   OH244137   4.206   3.382   2.048  0.0180 -0.5816  0.2848
 7549TIP3    H144138   4.135   3.432   2.008 -0.0088 -0.6821  0.2066
 7549TIP3    H244139   4.190   3.291   2.022  0.2135 -0.5963  0.2080
 7550TIP3   OH244140   6.778   2.000   1.354  0.1498  0.5804 -0.1255
 7550TIP3    H144141   6.873   2.013   1.351  0.0904  1.0426 -0.0573
 7550TIP3    H244142   6.751   2.005   1.263  0.3060 -0.4910 -0.2477
 7551TIP3   OH244143   1.790   1.506  12.241 -0.6760 -0.1971  0.1786
 7551TIP3    H144144   1.841   1.507  12.160 -0.3161  1.4304  0.3795
 7551TIP3    H244145   1.856   1.496  12.311 -1.0211 -2.0250  0.2778
 7552TIP3   OH244146   6.017   5.747  12.084 -0.0661  0.2497 -0.1323
 7552TIP3    H144147   6.017   5.654  12.062  0.4764  0.5960 -1.7404
 7552TIP3    H244148   6.109   5.771  12.090 -0.1527  1.0276 -1.4543
 7553TIP3   OH244149   6.393   0.560  16.566 -0.3550  0.2494  0.5863
 7553TIP3    H144150   6.485   0.573  16.586 -0.5423  1.0976  0.9280
 7553TIP3    H244151   6.386   0.575  16.472 -0.2613  0.9025  0.6807
 7554TIP3   OH244152   2.065   0.190  14.325 -0.0499  0.2150 -0.0655
 7554TIP3    H144153   2.158   0.183  14.303 -0.0546  1.0886 -0.4077
 7554TIP3    H244154   2.054   0.281  14.351 -0.3530 -0.4266  2.1897
 7555TIP3   OH244155   1.409   2.716   1.402  0.6282  0.3118 -0.0745
 7555TIP3    H144156   1.402   2.666   1.483  0.4384  0.6248  0.1037
 7555TIP3    H244157   1.414   2.649   1.333  0.2562  0.0486  0.1493
 7556TIP3   OH244158   2.285   2.469   0.573 -0.0869  0.4345 -0.1379
 7556TIP3    H144159   2.233   2.549   0.568 -0.3297  0.3287  0.6268
 7556TIP3    H244160   2.225   2.400   0.543  0.0165  0.4845 -0.4688
 7557TIP3   OH244161   5.534   6.053  14.973 -0.5711 -0.4028  0.6594
 7557TIP3    H144162   5.581   6.005  14.905  0.6390  0.1719  1.0588
 7557TIP3    H244163   5.468   6.103  14.925 -1.9055 -2.4526  0.2432
 7558TIP3   OH244164   4.479   3.825  13.160 -0.4463 -0.2507  0.4749
 7558TIP3    H144165   4.414   3.766  13.123 -0.4316  0.7680 -1.2908
 7558TIP3    H244166   4.563   3.790  13.130 -0.1613 -1.2702  2.3259
 7559TIP3   OH244167   3.087   3.499  15.215 -0.8499  0.1541  0.0311
 7559TIP3    H144168   3.105   3.587  15.249 -3.0688 -0.0361  1.9107
 7559TIP3    H244169   3.090   3.442  15.292 -2.7686 -0.8542 -0.5810
 7560TIP3   OH244170   0.915   1.152  12.691 -0.4660  0.1024  0.1403
 7560TIP3    H144171   1.009   1.134  12.686 -0.9171 -2.1305 -2.3390
 7560TIP3    H244172   0.908   1.245  12.671  1.1882  0.2985  0.2788
 7561TIP3   OH244173   4.259   2.867  11.646  0.4343  0.4664  0.1197
 7561TIP3    H144174   4.328   2.924  11.680  1.6236 -0.2060 -1.0663
 7561TIP3    H244175   4.249   2.894  11.554  1.2465 -1.3842 -0.5612
 7562TIP3   OH244176   1.495   6.013   2.536  0.3644  0.1759  0.0561
 7562TIP3    H144177   1.540   6.080   2.484 -0.4517  1.3504  0.8228
 7562TIP3    H244178   1.437   6.062   2.594  1.4107 -1.0472  2.2858
 7563TIP3   OH244179   4.625   1.967   5.209 -0.1831  0.8076  0.5693
 7563TIP3    H144180   4.576   1.956   5.127 -0.0338  0.1005  0.5699
 7563TIP3    H244181   4.693   1.899   5.206 -0.8686  0.0415  1.7968
 7564TIP3   OH244182   1.302   0.562   0.562 -0.1813  0.3050 -0.6359
 7564TIP3    H144183   1.327   0.506   0.636  1.2672  1.2102 -0.3969
 7564TIP3    H244184   1.370   0.547   0.496 -0.3116  1.0580 -0.9532
 7565TIP3   OH244185   0.241   3.275  13.942  0.1159 -0.4237  0.1258
 7565TIP3    H144186   0.329   3.274  13.980 -0.5643 -1.8341  1.8015
 7565TIP3    H244187   0.229   3.365  13.913  1.9285 -0.0876  0.2917
 7566TIP3   OH244188   5.695   5.159  16.352  0.2589  0.4057 -0.3051
 7566TIP3    H144189   5.765   5.146  16.416 -0.3371  2.2599  0.8083
 7566TIP3    H244190   5.633   5.217  16.397 -0.7943  0.7554 -2.1319
 7567TIP3   OH244191   2.558   0.516  14.894 -0.2489 -0.0188  0.2528
 7567TIP3    H144192   2.475   0.472  14.873 -0.4268 -0.5405  1.8813
 7567TIP3    H244193   2.548   0.604  14.858 -1.5052 -0.0920  0.3559
 7568TIP3   OH244194   0.623   2.581  12.535 -0.3709  0.4554 -0.3091
 7568TIP3    H144195   0.564   2.642  12.579 -0.5942  0.2526 -0.3264
 7568TIP3    H244196   0.624   2.503  12.591 -1.1638 -0.0566 -0.9770
 7569TIP3   OH244197   2.465   1.172   1.759 -0.7650  0.2969 -0.6798
 7569TIP3    H144198   2.401   1.102   1.746 -1.8719  1.4480 -1.6056
 7569TIP3    H244199   2.540   1.145   1.706  0.3685 -1.9979  1.8742
 7570TIP3   OH244200   0.020   4.253   3.164  0.4802  0.5916 -0.2502
 7570TIP3    H144201   0.085   4.198   3.207  1.2218  2.4417  1.1454
 7570TIP3    H244202  -0.007   4.203   3.087 -0.1751 -2.4698  1.7886
 7571TIP3   OH244203   0.117   3.087   0.693  0.4406  0.0867 -0.5228
 7571TIP3    H144204   0.114   3.153   0.625 -0.1156  1.0035  0.3677
 7571TIP3    H244205   0.185   3.118   0.754  1.4991 -1.1205 -1.0240
 7572TIP3   OH244206   0.149   5.581  15.936 -0.0202 -0.2881 -0.3926
 7572TIP3    H144207   0.098   5.662  15.934 -0.4912 -0.5708 -2.5760
 7572TIP3    H244208   0.142   5.550  16.026 -0.1692  1.8615  0.4011
 7573TIP3   OH244209   6.733   6.279  14.854  0.6470 -0.0779  0.2155
 7573TIP3    H144210   6.734   6.227  14.935  0.8108 -0.1036  0.1979
 7573TIP3    H244211   6.816   6.326  14.855  1.3617 -1.2659 -0.6982
 7574TIP3   OH244212   5.566   4.366  13.964  0.2212 -0.5274 -0.0035
 7574TIP3    H144213   5.573   4.298  13.897 -0.3609 -2.2543  1.6096
 7574TIP3    H244214   5.654   4.403  13.970  0.8206 -1.8647 -0.1845
 7575TIP3   OH244215   1.281   6.717   3.951  0.0446  0.6874 -0.2624
 7575TIP3    H144216   1.196   6.721   3.995  0.8085 -0.3393  1.4150
 7575TIP3    H244217   1.343   6.745   4.018  0.9518  2.7315 -1.8586
 7576TIP3   OH244218   3.638   4.142   0.299 -0.1572  0.0773 -0.3050
 7576TIP3    H144219   3.693   4.125   0.222 -0.0255  0.4010 -0.2855
 7576TIP3    H244220   3.550   4.151   0.264 -0.0401  0.6100 -0.4671
 7577TIP3   OH244221   5.284   0.369  14.986  0.5908  0.4901 -0.8834
 7577TIP3    H144222   5.189   0.382  14.986  0.1747 -1.6013  1.7899
 7577TIP3    H244223   5.313   0.400  15.071  1.9344 -0.8270 -0.8080
 7578TIP3   OH244224   4.727   6.249  16.844 -0.0155 -0.4256 -0.2247
 7578TIP3    H144225   4.636   6.234  16.822 -0.3619  0.4482  0.5331
 7578TIP3    H244226   4.726   6.276  16.936  0.9783 -0.1687 -0.2693
 7579TIP3   OH244227   4.411   2.020  15.054 -0.3839  0.0579  0.3864
 7579TIP3    H144228   4.321   1.989  15.044 -0.9249  1.6780 -0.1494
 7579TIP3    H244229   4.457   1.947  15.095 -1.8768 -0.9016  0.4474
 7580TIP3   OH244230   4.432   6.065   6.116 -0.0336  0.5852 -0.0075
 7580TIP3    H144231   4.451   6.028   6.029  2.2692 -0.5559  0.9137
 7580TIP3    H244232   4.365   6.006   6.152  0.3722 -0.0516 -0.2834
 7581TIP3   OH244233   6.184   1.659  16.433 -0.4889 -1.0581 -0.0146
 7581TIP3    H144234   6.218   1.608  16.360 -0.6266  0.6148 -1.3146
 7581TIP3    H244235   6.133   1.729  16.391 -2.8193 -1.5615  1.7488
 7582TIP3   OH244236   3.197   0.858   4.876  0.1036 -0.2033  0.5348
 7582TIP3    H144237   3.193   0.762   4.869  0.7185 -0.1621 -0.7704
 7582TIP3    H244238   3.290   0.879   4.868 -0.2601  0.7224 -4.3237
 7583TIP3   OH244239   3.339   1.858   1.650  0.4737  0.0947 -0.2230
 7583TIP3    H144240   3.426   1.887   1.676  0.6210 -0.5439  0.0015
 7583TIP3    H244241   3.347   1.764   1.639 -0.3383 -0.0625  0.4175
 7584TIP3   OH244242   1.725   1.664  17.226 -0.0549 -0.6171  0.0157
 7584TIP3    H144243   1.787   1.726  17.265  1.2972  0.2414 -3.1836
 7584TIP3    H244244   1.638   1.700  17.247  0.5275 -0.2570  2.0954
 7585TIP3   OH244245   5.060   4.998  14.288 -0.0647  0.3921  0.2038
 7585TIP3    H144246   5.032   4.970  14.201 -0.3507  1.4294 -0.0622
 7585TIP3    H244247   5.035   5.091  14.292  0.5459  0.5317  1.1395
 7586TIP3   OH244248   5.316   5.651   3.612  0.1823  0.6075  0.2653
 7586TIP3    H144249   5.366   5.705   3.550 -0.1009 -1.2763 -1.7158
 7586TIP3    H244250   5.254   5.712   3.651 -0.2976  1.7389 -2.0661
 7587TIP3   OH244251   1.998   2.854   2.016  0.9384  0.4856  0.1711
 7587TIP3    H144252   1.910   2.881   2.044  0.9318  0.1047  0.5348
 7587TIP3    H244253   1.999   2.871   1.922  0.6038  0.8366  0.2279
 7588TIP3   OH244254   6.504   0.161  13.444 -0.8883  0.4407 -0.3489
 7588TIP3    H144255   6.489   0.226  13.375  0.2893  1.3308  0.2038
 7588TIP3    H244256   6.566   0.099  13.406 -1.5511 -0.0455 -0.6649
 7589TIP3   OH244257   6.448   4.517  15.027 -0.3470  0.1561 -0.4152
 7589TIP3    H144258   6.518   4.458  14.999 -1.8374 -0.8694 -2.2117
 7589TIP3    H244259   6.418   4.482  15.111  0.7232  0.1517 -0.0144
 7590TIP3   OH244260   2.333   3.762  15.887 -0.1254  0.2710 -0.6720
 7590TIP3    H144261   2.426   3.784  15.898 -0.2111  0.5681 -0.5270
 7590TIP3    H244262   2.333   3.680  15.837  0.2614 -0.6138  0.7332
 7591TIP3   OH244263   4.326   1.616  15.194  0.3213  0.3488 -0.0165
 7591TIP3    H144264   4.296   1.598  15.105  0.9657 -0.5215 -0.0701
 7591TIP3    H244265   4.297   1.540  15.244  1.6705 -0.1011  0.1066
 7592TIP3   OH244266   6.288   0.370   3.739 -0.0461  0.1669  0.0257
 7592TIP3    H144267   6.379   0.364   3.768  0.3891  0.1783 -1.2512
 7592TIP3    H244268   6.250   0.438   3.794  1.2350  1.4642 -0.6067
 7593TIP3   OH244269   0.961   6.445  17.045  0.0869 -0.5439 -0.5901
 7593TIP3    H144270   0.879   6.470  17.003  0.8750  1.2602 -1.1822
 7593TIP3    H244271   1.026   6.507  17.009  1.5490 -1.4185  0.4269
 7594TIP3   OH244272   5.204   2.245   0.557 -0.4152  0.5358 -0.2116
 7594TIP3    H144273   5.254   2.310   0.606 -1.0547  1.0146 -0.1880
 7594TIP3    H244274   5.162   2.294   0.487 -1.4664  0.2870  0.2214
 7595TIP3   OH244275   6.241   6.794  12.031  0.6111 -0.2340 -0.3027
 7595TIP3    H144276   6.275   6.873  12.073 -1.2218 -0.0783  1.0250
 7595TIP3    H244277   6.250   6.726  12.097  0.8859 -0.8243 -0.9369
 7596TIP3   OH244278   1.650   5.243  14.271 -0.0655  0.4534  0.1883
 7596TIP3    H144279   1.593   5.314  14.241 -0.2513 -0.5589 -2.0610
 7596TIP3    H244280   1.738   5.274  14.251 -0.1527  0.0367 -0.8989
 7597TIP3   OH244281   1.120   4.622   4.787  0.6203 -0.0499  0.1270
 7597TIP3    H144282   1.208   4.660   4.792  1.2806 -1.3687 -0.7974
 7597TIP3    H244283   1.097   4.628   4.694 -0.0718 -0.1764  0.2823
 7598TIP3   OH244284   4.334   3.484  12.537 -0.8673  0.0235 -0.9372
 7598TIP3    H144285   4.267   3.490  12.468 -0.5007  1.3648 -1.2006
 7598TIP3    H244286   4.285   3.492  12.618 -1.2249 -0.8695 -1.0519
 7599TIP3   OH244287   3.649   2.971  15.887  0.4378 -0.3482 -0.6033
 7599TIP3    H144288   3.554   2.962  15.895  0.5556 -1.9897 -0.7719
 7599TIP3    H244289   3.669   3.054  15.931 -1.2327  0.8405 -1.9463
 7600TIP3   OH244290   3.236   1.123  16.988  0.0034 -0.1641 -0.3301
 7600TIP3    H144291   3.163   1.071  16.955  0.8084 -0.2292 -2.1121
 7600TIP3    H244292   3.203   1.213  16.991 -0.6322 -0.4099  0.4508
 7601TIP3   OH244293   5.264   0.619   0.632 -0.0606  0.0164 -0.0331
 7601TIP3    H144294   5.357   0.599   0.632 -0.0989 -0.2777  1.7237
 7601TIP3    H244295   5.236   0.600   0.542  1.3869 -0.6946 -0.3721
 7602TIP3   OH244296   0.914   5.732   5.646  0.6105 -0.1316 -0.0592
 7602TIP3    H144297   0.881   5.646   5.675  0.8583  0.1963  1.2311
 7602TIP3    H244298   1.008   5.727   5.660  0.6948  0.1688 -0.5072
 7603TIP3   OH244299   2.745   4.440   2.919 -0.0128  0.4487 -0.1995
 7603TIP3    H144300   2.773   4.531   2.905  1.9326 -0.1578 -0.5562
 7603TIP3    H244301   2.793   4.390   2.853 -1.3757 -0.8111 -0.2830
 7604TIP3   OH244302   2.451   6.139  14.323  0.0328 -0.5824 -0.1394
 7604TIP3    H144303   2.439   6.231  14.345  2.2767 -0.3223  0.2495
 7604TIP3    H244304   2.529   6.138  14.266 -1.1232 -2.0460 -1.8196
 7605TIP3   OH244305   6.641   4.388   1.786  0.5911  0.1930 -0.0317
 7605TIP3    H144306   6.663   4.465   1.733  1.2807  0.0892  0.0962
 7605TIP3    H244307   6.637   4.316   1.723  2.2270 -0.0828  0.1495
 7606TIP3   OH244308   0.684   2.469  16.769 -0.4495 -0.1033  0.3140
 7606TIP3    H144309   0.693   2.374  16.757  0.8689 -0.4775  3.3387
 7606TIP3    H244310   0.729   2.508  16.695  0.5629 -1.8925 -0.0629
 7607TIP3   OH244311   0.357   6.309   2.561 -0.1828  0.0518  0.2212
 7607TIP3    H144312   0.325   6.373   2.624  1.8590 -0.5736  2.0301
 7607TIP3    H244313   0.389   6.236   2.615 -1.4221 -2.0460 -1.7039
 7608TIP3   OH244314   1.147   4.829  11.760 -0.4854 -0.1190 -0.0699
 7608TIP3    H144315   1.056   4.825  11.790 -1.0499 -0.0792 -1.6861
 7608TIP3    H244316   1.199   4.822  11.840 -1.9064 -0.1161  0.8865
 7609TIP3   OH244317   4.108   3.970   2.961  0.1199 -0.2546 -0.3195
 7609TIP3    H144318   4.019   3.993   2.987  0.7464 -0.4939  2.3181
 7609TIP3    H244319   4.142   4.049   2.919 -0.6524  0.5369  0.5202
 7610TIP3   OH244320   0.595   3.485   2.686  0.0760 -0.0006 -0.8472
 7610TIP3    H144321   0.542   3.432   2.627  3.2266 -1.5042 -2.5504
 7610TIP3    H244322   0.640   3.422   2.742 -1.7035  1.3203  2.4062
 7611TIP3   OH244323   5.853   5.566   3.971  0.3395  0.3615  0.0343
 7611TIP3    H144324   5.810   5.638   3.925  0.2732  1.1641  1.3065
 7611TIP3    H244325   5.940   5.560   3.930  1.1373  2.5423  1.2016
 7612TIP3   OH244326   4.228   5.833   0.577  0.0778 -1.0452  0.2067
 7612TIP3    H144327   4.246   5.804   0.666 -0.2553  1.1445  1.0434
 7612TIP3    H244328   4.140   5.872   0.581  0.2025 -0.5822 -0.9852
 7613TIP3   OH244329   6.597   0.651  11.792 -0.0296 -0.2222 -0.3253
 7613TIP3    H144330   6.692   0.647  11.781  0.2443  3.5575 -0.6383
 7613TIP3    H244331   6.563   0.665  11.704 -0.5519  1.3666  0.0966
 7614TIP3   OH244332   2.481   6.096  16.911 -0.0129 -0.4209 -0.1779
 7614TIP3    H144333   2.395   6.054  16.910 -0.0234 -0.4967  1.3098
 7614TIP3    H244334   2.472   6.170  16.851 -1.5565  0.3879  0.9814
 7615TIP3   OH244335   0.651   6.776  13.107  0.1067 -0.2896  0.4560
 7615TIP3    H144336   0.580   6.735  13.057  0.5720 -0.2916 -0.2191
 7615TIP3    H244337   0.677   6.851  13.054  1.1101 -0.7276  0.3138
 7616TIP3   OH244338   3.273   0.616   0.700  0.3249  0.3579 -0.4124
 7616TIP3    H144339   3.182   0.595   0.718 -0.4969  2.2630 -2.0517
 7616TIP3    H244340   3.292   0.576   0.615  1.3035 -0.6954  0.2654
 7617TIP3   OH244341   4.191   4.497   4.506 -0.1894  0.0841 -0.1084
 7617TIP3    H144342   4.150   4.531   4.586 -0.0347  1.5171 -0.6085
 7617TIP3    H244343   4.245   4.569   4.475  0.4242 -0.7626 -1.0479
 7618TIP3   OH244344   0.084   5.966   4.609 -0.6111 -0.4236 -0.0429
 7618TIP3    H144345   0.172   5.938   4.635 -0.6833 -2.3267 -1.6108
 7618TIP3    H244346   0.026   5.927   4.674 -0.3293  1.4898  1.4656
 7619TIP3   OH244347   0.119   5.382   5.122 -0.2324 -0.2359 -0.8788
 7619TIP3    H144348   0.163   5.302   5.149 -0.8542 -0.4414 -0.4697
 7619TIP3    H244349   0.172   5.414   5.048 -0.1854 -1.2124 -1.2846
 7620TIP3   OH244350   4.613   1.592   4.235 -0.3689  0.1037  0.3463
 7620TIP3    H144351   4.706   1.615   4.243  0.1470 -1.0134 -1.7059
 7620TIP3    H244352   4.612   1.496   4.236 -1.2520  0.0499 -1.4582
 7621TIP3   OH244353   5.046   3.999  14.889  0.3103 -0.3654  0.5944
 7621TIP3    H144354   5.048   4.048  14.971  0.6878 -0.5626  0.7032
 7621TIP3    H244355   4.971   4.036  14.842  0.5891  0.3266  0.6705
 7622TIP3   OH244356   0.363   2.319   3.736  0.4400  0.4761 -0.5362
 7622TIP3    H144357   0.310   2.331   3.657 -0.1484  2.4501  0.0896
 7622TIP3    H244358   0.434   2.382   3.727  2.1147 -1.3855 -0.8393
 7623TIP3   OH244359   4.451   0.340   2.631  0.3204 -0.7344  0.6024
 7623TIP3    H144360   4.372   0.355   2.683  0.8988  0.1312  1.2624
 7623TIP3    H244361   4.418   0.328   2.542 -0.5316  0.0464  0.7886
 7624TIP3   OH244362   2.896   1.446   6.547  0.2387 -0.3567 -0.3330
 7624TIP3    H144363   2.843   1.523   6.568  0.1967  0.2504 -2.4860
 7624TIP3    H244364   2.986   1.478   6.545  0.0849  0.1429 -2.9962
 7625TIP3   OH244365   4.041   4.775  15.825 -0.1734  0.0060  0.1532
 7625TIP3    H144366   3.978   4.837  15.862 -0.2996 -0.7373  1.2571
 7625TIP3    H244367   4.040   4.701  15.886  1.2646 -0.3215 -0.1801
 7626TIP3   OH244368   3.617   1.879   1.641 -0.3520  0.1487  0.0767
 7626TIP3    H144369   3.694   1.922   1.679  0.9406 -0.1265 -2.0486
 7626TIP3    H244370   3.625   1.788   1.666 -0.5627  0.3086  0.7329
 7627TIP3   OH244371   4.451   1.275   2.709  0.4505 -0.5787  0.1144
 7627TIP3    H144372   4.437   1.367   2.732  1.6763 -0.9073  2.4114
 7627TIP3    H244373   4.545   1.267   2.698  0.3689 -1.5836  0.0561
 7628TIP3   OH244374   5.452   5.710  15.354 -0.6172 -0.3955  0.5510
 7628TIP3    H144375   5.417   5.660  15.280  1.4762 -1.7712  0.4088
 7628TIP3    H244376   5.489   5.789  15.314  0.6985 -1.2331  0.0499
 7629TIP3   OH244377   6.691   5.756  15.945  0.0879  0.1351  0.3410
 7629TIP3    H144378   6.669   5.845  15.919 -1.6967  0.1388  1.7033
 7629TIP3    H244379   6.623   5.702  15.904 -0.1849 -0.3359  1.3953
 7630TIP3   OH244380   6.768   3.532   2.796  0.2810 -0.3665 -0.6199
 7630TIP3    H144381   6.799   3.566   2.880 -0.2406 -1.0631 -0.1322
 7630TIP3    H244382   6.839   3.475   2.766 -0.7956 -2.7180  0.9550
 7631TIP3   OH244383   1.067   2.552  14.105  0.0959 -0.3780  0.5694
 7631TIP3    H144384   1.065   2.497  14.026 -1.6217  0.7319 -0.2253
 7631TIP3    H244385   0.975   2.561  14.130  0.4724  0.8075  1.6222
 7632TIP3   OH244386   3.880   5.873  12.869 -0.3512  0.2838  0.1251
 7632TIP3    H144387   3.799   5.824  12.851 -0.0462  0.3038 -1.3746
 7632TIP3    H244388   3.866   5.958  12.826 -0.2384  0.9624  1.3851
 7633TIP3   OH244389   1.384   1.514  11.818 -0.5797 -0.0240 -0.2486
 7633TIP3    H144390   1.476   1.538  11.812 -0.3997  0.0299  1.9931
 7633TIP3    H244391   1.371   1.452  11.746  0.5889  1.6700 -2.0235
 7634TIP3   OH244392   0.737   2.236  16.464  0.2146 -0.4823  0.2521
 7634TIP3    H144393   0.812   2.196  16.420  0.2219 -1.7406  1.3670
 7634TIP3    H244394   0.677   2.164  16.480 -1.8012  0.6605 -1.6346
 7635TIP3   OH244395   3.710   1.078  15.679 -0.5540  0.2165 -0.7637
 7635TIP3    H144396   3.786   1.118  15.637  0.1804 -1.1665 -0.8061
 7635TIP3    H244397   3.655   1.050  15.606 -0.3852 -0.1155 -0.7655
 7636TIP3   OH244398   1.783   4.841  17.209 -0.0258 -0.3186  0.2144
 7636TIP3    H144399   1.754   4.885  17.130 -0.3212 -0.3067  0.3253
 7636TIP3    H244400   1.783   4.909  17.276  0.2963 -0.3123  0.2067
 7637TIP3   OH244401   1.815   4.643   3.595 -0.8734 -0.7688 -0.3011
 7637TIP3    H144402   1.735   4.598   3.623  0.3028 -1.7768  1.6371
 7637TIP3    H244403   1.863   4.658   3.676  0.4685  0.7356 -1.3207
 7638TIP3   OH244404   3.465   0.076   3.668  1.1556  0.1198  0.0172
 7638TIP3    H144405   3.476   0.115   3.755  1.4900 -1.1887  0.6001
 7638TIP3    H244406   3.544   0.022   3.657  1.7311  1.2331 -1.6482
 7639TIP3   OH244407   1.477   3.122   0.928  0.2869 -0.2390 -0.4980
 7639TIP3    H144408   1.440   3.140   1.015  0.8621  0.6323 -0.4263
 7639TIP3    H244409   1.518   3.036   0.937  0.1926 -0.2301  0.0394
 7640TIP3   OH244410   1.810   5.166  10.463 -0.0860  0.1565 -0.3643
 7640TIP3    H144411   1.821   5.257  10.489  2.7182 -0.0429 -0.4661
 7640TIP3    H244412   1.716   5.150  10.468 -0.5297  2.6762  0.8607
 7641TIP3   OH244413   6.508   0.821   6.631  0.1747 -0.7733 -0.0790
 7641TIP3    H144414   6.434   0.853   6.581 -0.6536 -2.6118 -0.1048
 7641TIP3    H244415   6.521   0.731   6.600  1.2931 -1.0747  1.1708
 7642TIP3   OH244416   0.630   3.388  15.608  0.5197  0.5725  0.7095
 7642TIP3    H144417   0.577   3.327  15.557  2.0077  1.4561 -2.0604
 7642TIP3    H244418   0.570   3.460  15.628 -0.6202 -0.6630  2.0876
 7643TIP3   OH244419   0.015   2.672   5.219  0.1147  0.1489 -0.2791
 7643TIP3    H144420   0.054   2.680   5.305  1.0547  0.5598 -0.7276
 7643TIP3    H244421   0.057   2.741   5.167  1.0914 -1.3830 -1.6124
 7644TIP3   OH244422   3.280   5.544   3.805  0.2165 -0.1248 -0.0755
 7644TIP3    H144423   3.242   5.460   3.780  0.6799 -0.1496 -0.7042
 7644TIP3    H244424   3.288   5.538   3.901 -0.1195 -0.6326 -0.0704
 7645TIP3   OH244425   3.848   5.967  15.017 -0.1268 -0.2231  0.0927
 7645TIP3    H144426   3.875   5.905  15.085  0.1763 -1.1848 -0.8815
 7645TIP3    H244427   3.753   5.961  15.015 -0.4123  1.9346  2.3726
 7646TIP3   OH244428   1.318   5.176  10.666 -0.1878 -0.6064  0.5016
 7646TIP3    H144429   1.269   5.258  10.675  0.5288 -0.0936 -0.0630
 7646TIP3    H244430   1.268   5.112  10.716 -0.8005  0.1634  0.9011
 7647TIP3   OH244431   6.239   6.187  12.899 -0.0439 -0.3818  0.7462
 7647TIP3    H144432   6.303   6.249  12.933 -1.3693 -0.1659  3.0810
 7647TIP3    H244433   6.245   6.111  12.957 -0.1452 -1.4515 -0.5814
 7648TIP3   OH244434   3.616   6.635  12.372 -0.5876 -0.1881 -0.1753
 7648TIP3    H144435   3.651   6.670  12.453 -2.2725  2.7095 -0.5769
 7648TIP3    H244436   3.650   6.693  12.304 -0.4902 -1.5909 -1.3666
 7649TIP3   OH244437   4.101   2.177  14.817  0.0757 -0.4805 -0.2112
 7649TIP3    H144438   4.157   2.186  14.740  1.5195  2.6480  1.0228
 7649TIP3    H244439   4.064   2.265  14.830 -0.1385 -0.8885  2.5874
 7650TIP3   OH244440   6.182   3.013  11.133 -0.3764  0.4483  0.5327
 7650TIP3    H144441   6.193   3.093  11.081 -0.0744 -0.0659 -0.2078
 7650TIP3    H244442   6.267   3.000  11.175 -0.1579  0.0501 -0.0273
 7651TIP3   OH244443   4.010   3.686   5.341  0.0945 -0.3832  0.1159
 7651TIP3    H144444   4.099   3.720   5.330  0.1608 -0.4559  0.3938
 7651TIP3    H244445   3.988   3.708   5.432 -0.9029  1.3220 -0.4833
 7652TIP3   OH244446   1.962   1.841   2.261 -0.1287 -0.0992  0.5178
 7652TIP3    H144447   1.959   1.795   2.345  0.4932  0.8111  1.0466
 7652TIP3    H244448   2.055   1.855   2.244 -0.3018  1.0368  0.4195
 7653TIP3   OH244449   3.846   4.465   0.867  0.0659 -0.3138 -0.5102
 7653TIP3    H144450   3.838   4.530   0.798 -0.2634  0.0630 -0.1241
 7653TIP3    H244451   3.941   4.456   0.881  0.2611 -1.9973 -2.4898
 7654TIP3   OH244452   5.336   3.619   2.092  0.1658  0.1771 -0.5667
 7654TIP3    H144453   5.307   3.532   2.065 -0.7142 -0.3398  1.7837
 7654TIP3    H244454   5.385   3.604   2.173 -1.2482  1.9301  0.7191
 7655TIP3   OH244455   3.070   2.555   3.582 -0.0235  0.2258  0.6825
 7655TIP3    H144456   2.983   2.593   3.594 -0.2480 -0.5754  1.7752
 7655TIP3    H244457   3.090   2.568   3.490 -0.3240  2.4737  0.8908
 7656TIP3   OH244458   1.919   1.269  12.591 -0.4065  0.5684 -0.0471
 7656TIP3    H144459   1.997   1.324  12.592  0.2422 -0.3238  0.5861
 7656TIP3    H244460   1.845   1.330  12.588  0.3159  1.4197 -0.8594
 7657TIP3   OH244461   0.421   2.244  12.693  0.3265  0.2380  0.4550
 7657TIP3    H144462   0.384   2.225  12.779  0.7239  1.0611  0.8178
 7657TIP3    H244463   0.361   2.202  12.632  1.1398 -2.1394  1.1694
 7658TIP3   OH244464   1.217   4.488   3.753 -0.0152  0.2943 -0.8773
 7658TIP3    H144465   1.125   4.478   3.779 -0.0185  1.6116 -0.2778
 7658TIP3    H244466   1.235   4.412   3.698 -1.4464 -0.0284 -0.9455
 7659TIP3   OH244467   4.546   1.417  11.582 -0.1015 -0.2018  0.3159
 7659TIP3    H144468   4.488   1.468  11.526  2.0336  0.6600 -1.2327
 7659TIP3    H244469   4.566   1.476  11.656  0.5310  0.3634 -0.2907
 7660TIP3   OH244470   2.539   4.000   0.948  0.1495  0.2051 -0.1792
 7660TIP3    H144471   2.509   4.084   0.983 -1.6875 -0.5175  0.0756
 7660TIP3    H244472   2.617   4.022   0.897 -0.8529  2.2198 -0.9609
 7661TIP3   OH244473   1.180   2.207  14.112  0.2366  0.0631 -0.0201
 7661TIP3    H144474   1.163   2.276  14.048  0.5927  0.2619  0.0950
 7661TIP3    H244475   1.222   2.137  14.061  0.9289  0.3999  0.0671
 7662TIP3   OH244476   3.265   4.853  13.352 -0.0313  0.1728 -0.1331
 7662TIP3    H144477   3.220   4.805  13.421  0.8041 -0.0050  0.2966
 7662TIP3    H244478   3.200   4.861  13.282 -1.7261  2.4051  1.5318
 7663TIP3   OH244479   6.565   3.217  13.843  0.3488 -0.8429 -0.5183
 7663TIP3    H144480   6.487   3.247  13.889  0.2401 -0.1964 -1.1023
 7663TIP3    H244481   6.580   3.128  13.875  1.6537  0.3462  2.5620
 7664TIP3   OH244482   5.721   5.779   1.085 -0.2077  0.1537 -0.2433
 7664TIP3    H144483   5.797   5.750   1.036  0.6379 -0.3290  1.2821
 7664TIP3    H244484   5.674   5.837   1.025  2.3565  2.0309 -0.6130
 7665TIP3   OH244485   0.338   4.783  15.643 -0.4006 -0.5275 -0.1856
 7665TIP3    H144486   0.268   4.724  15.617 -2.5875  0.9468  1.8916
 7665TIP3    H244487   0.399   4.728  15.692 -1.4472 -1.4160  0.1732
 7666TIP3   OH244488   2.306   3.107   3.011 -0.1223 -0.6256  0.4755
 7666TIP3    H144489   2.330   3.025   2.968 -0.5872  0.4734 -2.0855
 7666TIP3    H244490   2.234   3.084   3.069 -2.5746 -1.6208 -2.6832
 7667TIP3   OH244491   4.630   1.880   2.898  0.3039 -0.9868 -0.0869
 7667TIP3    H144492   4.536   1.865   2.890 -0.1133  0.7904  0.7856
 7667TIP3    H244493   4.659   1.902   2.810 -0.6541  1.0099  0.0432
 7668TIP3   OH244494   2.395   1.418   1.642  0.0302  0.1116  0.8123
 7668TIP3    H144495   2.306   1.450   1.626  0.6879  1.4808 -0.2162
 7668TIP3    H244496   2.381   1.332   1.682 -1.7588 -0.9539 -1.8001
 7669TIP3   OH244497   2.938   0.984   2.234  0.5110 -0.2569  0.4156
 7669TIP3    H144498   3.016   1.031   2.265  0.1885  0.6267 -0.0758
 7669TIP3    H244499   2.910   1.033   2.156 -0.3294 -0.7769  0.3786
 7670TIP3   OH244500   0.535   5.379  15.140 -0.4053  0.1497 -0.8184
 7670TIP3    H144501   0.605   5.444  15.129 -1.6304  1.2152 -2.8120
 7670TIP3    H244502   0.465   5.426  15.184 -0.3800 -0.5754  0.0392
 7671TIP3   OH244503   3.946   0.758  16.651 -0.2564  0.5335 -0.3327
 7671TIP3    H144504   3.952   0.787  16.741 -0.6589 -0.5790  0.0749
 7671TIP3    H244505   4.010   0.811  16.603  0.4635  0.6477  0.7311
 7672TIP3   OH244506   6.787   3.320  14.691  0.5355  0.0903  0.5299
 7672TIP3    H144507   6.751   3.399  14.651 -0.2455  0.1346  1.3113
 7672TIP3    H244508   6.783   3.336  14.785 -0.9279 -1.4046  0.7793
 7673TIP3   OH244509   0.099   0.434   0.936  0.1775  0.7184 -0.4145
 7673TIP3    H144510   0.036   0.400   1.000  0.5568  1.2686  0.2777
 7673TIP3    H244511   0.132   0.357   0.891  1.6285  0.0159  1.6866
 7674TIP3   OH244512   1.082   6.706  13.497  0.4019  0.1694  0.1522
 7674TIP3    H144513   1.106   6.747  13.580 -0.8631 -1.0074  1.1612
 7674TIP3    H244514   1.022   6.635  13.522 -0.0773 -0.1693 -1.7805
 7675TIP3   OH244515   5.793   4.824   0.579 -0.6071  0.3667 -0.5102
 7675TIP3    H144516   5.720   4.822   0.517 -1.5572  0.8130  0.5534
 7675TIP3    H244517   5.779   4.903   0.631  0.5266  0.3446 -0.1339
 7676TIP3   OH244518   3.272   4.066   6.076 -0.6987 -0.2951 -0.0439
 7676TIP3    H144519   3.181   4.096   6.085 -0.4188  0.1924  1.4180
 7676TIP3    H244520   3.316   4.140   6.033 -0.6561  0.1520  0.7536
 7677TIP3   OH244521   0.056   1.229  14.488  0.0109 -0.0969 -0.1127
 7677TIP3    H144522   0.041   1.148  14.536 -1.6648  0.2054 -0.0591
 7677TIP3    H244523   0.096   1.288  14.551 -0.4771 -0.2979  0.3919
 7678TIP3   OH244524   1.666   6.071   6.099  0.6260 -0.8435  0.0239
 7678TIP3    H144525   1.655   5.976   6.106 -1.1296 -0.7549 -0.8913
 7678TIP3    H244526   1.705   6.084   6.012 -2.5847 -0.6220 -1.5390
 7679TIP3   OH244527   6.200   1.951  14.671 -0.4662 -0.1216  0.0859
 7679TIP3    H144528   6.148   2.024  14.639 -1.7710 -1.3439 -0.6857
 7679TIP3    H244529   6.187   1.951  14.766 -1.1543  0.1251 -0.0086
 7680TIP3   OH244530   4.431   6.026  11.461 -0.2994 -0.1744  0.4560
 7680TIP3    H144531   4.350   5.983  11.436  0.4884 -1.7421  0.4603
 7680TIP3    H244532   4.476   6.043  11.378  0.1137 -0.8956  0.5158
 7681TIP3   OH244533   6.098   6.148   5.652 -0.1282 -0.0530  0.3219
 7681TIP3    H144534   6.089   6.229   5.602  0.2122  1.4030  2.4481
 7681TIP3    H244535   6.108   6.178   5.743  1.5977 -2.4440  1.0018
 7682TIP3   OH244536   0.454   3.230   5.764  0.3813 -0.7384  0.1988
 7682TIP3    H144537   0.539   3.192   5.743  0.9000  1.0851 -1.2360
 7682TIP3    H244538   0.475   3.309   5.814 -0.2802  0.9534 -2.0522
 7683TIP3   OH244539   2.360   6.353  13.348 -0.0115  0.3358  0.1650
 7683TIP3    H144540   2.358   6.264  13.383 -1.6122 -0.3968 -1.6393
 7683TIP3    H244541   2.301   6.351  13.273  1.6354  2.3383 -1.3137
 7684TIP3   OH244542   2.481   5.236   0.558  0.5366 -0.5260  0.0506
 7684TIP3    H144543   2.508   5.251   0.467  1.5464  0.2321  0.4478
 7684TIP3    H244544   2.389   5.213   0.553 -0.0949  1.9418 -0.9895
 7685TIP3   OH244545   4.202   1.631  12.329  0.0164 -0.5195  0.6046
 7685TIP3    H144546   4.137   1.659  12.265  0.5818 -1.9470 -0.6316
 7685TIP3    H244547   4.162   1.556  12.373  0.5045 -0.9149  0.3821
 7686TIP3   OH244548   0.487   4.183  16.355  0.0111  0.2746 -0.1034
 7686TIP3    H144549   0.525   4.270  16.344  0.6035 -0.0850 -0.9821
 7686TIP3    H244550   0.411   4.182  16.298  0.5240 -0.0797 -0.7959
 7687TIP3   OH244551   2.707   2.628   2.739 -0.2675  0.3722  0.4418
 7687TIP3    H144552   2.685   2.549   2.690 -1.1914  0.0089  1.4097
 7687TIP3    H244553   2.688   2.700   2.679  1.4090 -0.1283 -0.7708
 7688TIP3   OH244554   2.044   1.257   0.490  0.4772  0.2517  0.2362
 7688TIP3    H144555   2.022   1.200   0.416 -0.5195 -1.1446  1.5436
 7688TIP3    H244556   2.140   1.253   0.495  0.6661  1.3517 -1.6845
 7689TIP3   OH244557   5.276   3.736  13.038 -0.2520 -0.2494  0.4942
 7689TIP3    H144558   5.232   3.700  12.961 -0.4543  0.5125  0.2506
 7689TIP3    H244559   5.235   3.691  13.112 -1.8896  0.8806  0.3182
 7690TIP3   OH244560   2.270   4.956   0.899 -0.5201 -0.1197  0.2226
 7690TIP3    H144561   2.343   4.975   0.841 -0.6434 -1.7622 -0.5163
 7690TIP3    H244562   2.288   4.868   0.933 -0.9830  0.3697  1.8751
 7691TIP3   OH244563   2.238   6.081   0.604  0.4192  0.5038 -0.0809
 7691TIP3    H144564   2.296   6.155   0.590  1.4336 -0.1297  0.6213
 7691TIP3    H244565   2.263   6.018   0.536  0.3088  0.3753 -0.0015
 7692TIP3   OH244566   5.585   2.993  15.221  0.6823 -0.1177  0.0389
 7692TIP3    H144567   5.564   2.922  15.160  0.0971 -0.4850  0.6681
 7692TIP3    H244568   5.662   2.962  15.269  0.4017 -0.3445  0.3424
 7693TIP3   OH244569   1.881   0.864   3.546  0.8884  0.0863  0.0056
 7693TIP3    H144570   1.873   0.958   3.558 -0.5060  0.4200 -2.8126
 7693TIP3    H244571   1.794   0.835   3.518  1.7410 -1.6908 -1.0042
 7694TIP3   OH244572   6.181   2.364  17.137  0.0977  0.0423  0.3834
 7694TIP3    H144573   6.272   2.339  17.127 -0.0007  0.3518 -1.7205
 7694TIP3    H244574   6.154   2.395  17.050 -2.6481 -2.1416  0.2908
 7695TIP3   OH244575   6.165   4.194   2.150 -0.4555 -0.3334  0.0945
 7695TIP3    H144576   6.193   4.190   2.241 -0.5243  0.1116  0.1364
 7695TIP3    H244577   6.193   4.110   2.113  2.0674  0.5513 -0.1814
 7696TIP3   OH244578   1.880   5.353   0.341  1.0136 -0.0537 -0.4163
 7696TIP3    H144579   1.843   5.395   0.264 -0.3824  0.9699  0.7375
 7696TIP3    H244580   1.917   5.425   0.392  0.2846 -0.4443  0.7071
 7697TIP3   OH244581   6.235   1.240   6.101  0.6083 -0.0996  0.3264
 7697TIP3    H144582   6.162   1.194   6.141  0.3841 -0.1224 -0.1058
 7697TIP3    H244583   6.195   1.296   6.035  1.1282 -1.6424 -1.3825
 7698TIP3   OH244584   3.024   3.079   2.206 -0.2993 -0.2207 -0.4735
 7698TIP3    H144585   3.086   3.008   2.189  0.4667  0.6163 -1.2866
 7698TIP3    H244586   3.013   3.121   2.122 -1.0828  0.3601 -0.0860
 7699TIP3   OH244587   6.476   0.091  15.679 -0.3257  0.2364  0.2729
 7699TIP3    H144588   6.392   0.126  15.707  0.3287  1.4770  0.7819
 7699TIP3    H244589   6.533   0.100  15.756  1.2629  2.8596 -1.0714
 7700TIP3   OH244590   4.946   6.506   0.643 -0.3117  0.3417  0.4853
 7700TIP3    H144591   4.856   6.479   0.663  0.0952 -0.4919  1.2521
 7700TIP3    H244592   4.997   6.478   0.719  0.7106  0.2602 -0.2152
 7701TIP3   OH244593   0.454   1.879  15.119 -0.2768 -0.2386 -0.2095
 7701TIP3    H144594   0.522   1.836  15.171 -0.7285 -0.5853  0.1023
 7701TIP3    H244595   0.411   1.807  15.073 -1.2713 -0.1639  0.5898
 7702TIP3   OH244596   0.522   1.062   4.371 -0.3545 -0.5735 -0.0874
 7702TIP3    H144597   0.552   1.153   4.362 -1.1338 -0.4015 -1.1917
 7702TIP3    H244598   0.489   1.040   4.284  0.0463 -2.0073  0.1081
 7703TIP3   OH244599   4.075   3.850  12.504 -0.0216  0.2151  0.0682
 7703TIP3    H144600   4.042   3.803  12.580 -1.2438  1.2974  0.2507
 7703TIP3    H244601   4.036   3.805  12.428  0.6994 -0.4802  0.0977
 7704TIP3   OH244602   5.368   6.508   3.886 -0.7692 -0.1073  0.1513
 7704TIP3    H144603   5.381   6.509   3.791  0.2122 -0.2880  0.2753
 7704TIP3    H244604   5.302   6.440   3.900 -0.3554 -0.6198 -0.3378
 7705TIP3   OH244605   3.435   0.875   0.410 -0.4419 -0.1226  0.2016
 7705TIP3    H144606   3.346   0.889   0.378 -0.4198 -1.9971 -0.7420
 7705TIP3    H244607   3.425   0.818   0.486 -0.1463  1.1115  1.2231
 7706TIP3   OH244608   0.101   5.470  13.370  0.1120  0.0413  0.4891
 7706TIP3    H144609   0.105   5.424  13.454 -0.9433  0.5162  0.8131
 7706TIP3    H244610   0.111   5.562  13.392 -1.2814  0.2749  0.2364
 7707TIP3   OH244611   2.282   6.550  10.501  0.2027  0.1934 -0.5612
 7707TIP3    H144612   2.215   6.600  10.456  0.4382 -0.7101 -1.9551
 7707TIP3    H244613   2.360   6.558  10.446  0.6655 -0.4568 -0.0169
 7708TIP3   OH244614   2.471   4.891  16.638 -0.5960 -0.3172  0.0941
 7708TIP3    H144615   2.566   4.891  16.624 -0.7949 -1.7226 -1.6445
 7708TIP3    H244616   2.461   4.879  16.732  0.9312  1.1328  0.4955
 7709TIP3   OH244617   1.773   2.507  13.450  0.3278  0.3770  0.3054
 7709TIP3    H144618   1.720   2.558  13.389  0.1177 -0.1157  0.0776
 7709TIP3    H244619   1.719   2.502  13.529 -0.0645 -0.3138 -0.0013
 7710TIP3   OH244620   5.501   4.599   5.428 -0.2497  0.8161 -0.0682
 7710TIP3    H144621   5.526   4.664   5.362 -0.7338  0.5253 -0.5476
 7710TIP3    H244622   5.570   4.604   5.494 -0.0256  1.4715 -0.3434
 7711TIP3   OH244623   1.534   1.209   1.066 -0.7304  0.0445  0.3298
 7711TIP3    H144624   1.486   1.231   0.987  0.2330  0.9950 -0.0145
 7711TIP3    H244625   1.497   1.126   1.094 -0.3960 -0.8612 -1.7064
 7712TIP3   OH244626   0.371   6.018   2.713 -0.3000  0.2135 -0.5047
 7712TIP3    H144627   0.436   6.045   2.778  1.8113 -1.2172 -1.8917
 7712TIP3    H244628   0.378   5.923   2.711 -0.8722  0.1820 -2.2753
 7713TIP3   OH244629   1.978   3.151   1.650  0.1929 -0.7754 -0.0668
 7713TIP3    H144630   1.958   3.206   1.575  0.7087 -0.9529 -0.3352
 7713TIP3    H244631   1.895   3.108   1.671  0.1457 -1.0333 -0.7795
 7714TIP3   OH244632   5.368   5.752  13.308 -0.1222  0.2181  0.0553
 7714TIP3    H144633   5.345   5.840  13.280  0.4663  0.3641  0.0221
 7714TIP3    H244634   5.311   5.695  13.256  0.1242  0.5367 -0.5760
 7715TIP3   OH244635   5.139   2.172   0.821  0.4650  0.2480  0.5516
 7715TIP3    H144636   5.128   2.204   0.732  3.6719 -2.8608 -1.2070
 7715TIP3    H244637   5.140   2.251   0.875 -2.3419  2.1932 -1.9321
 7716TIP3   OH244638   4.051   5.691  12.486  0.4417  0.5213  0.7491
 7716TIP3    H144639   4.118   5.741  12.534  1.3887  0.5799 -0.5754
 7716TIP3    H244640   3.979   5.753  12.474  0.3018  0.5883  1.8349
 7717TIP3   OH244641   6.762   5.967  15.766  0.1235 -0.3815  0.4313
 7717TIP3    H144642   6.798   6.009  15.687 -1.8697 -0.0700 -0.3634
 7717TIP3    H244643   6.674   6.003  15.773 -1.0356 -3.1052  0.7579
 7718TIP3   OH244644   4.193   6.407  11.977 -0.4248  0.3537  0.0899
 7718TIP3    H144645   4.124   6.469  12.000 -0.1393  0.6264  0.2273
 7718TIP3    H244646   4.259   6.419  12.045 -0.1636  0.2246 -0.1387
 7719TIP3   OH244647   0.834   5.155   0.660  0.3944 -0.3138  0.5050
 7719TIP3    H144648   0.858   5.106   0.739  1.4384 -3.1910 -1.4221
 7719TIP3    H244649   0.890   5.118   0.591 -1.4019  1.1173 -1.8748
 7720TIP3   OH244650   6.432   5.303  12.377 -0.0877  0.2858  0.6217
 7720TIP3    H144651   6.468   5.214  12.378 -0.3326  0.1928  1.2425
 7720TIP3    H244652   6.470   5.345  12.454 -1.1026  0.2620  1.1531
 7721TIP3   OH244653   1.432   5.505  16.521 -0.6066 -0.2609 -0.0715
 7721TIP3    H144654   1.508   5.450  16.502  0.2617  0.9105 -0.0609
 7721TIP3    H244655   1.379   5.452  16.580 -0.0284 -1.2741 -0.4277
 7722TIP3   OH244656   3.664   1.708   5.224 -0.0120 -0.0415  0.1846
 7722TIP3    H144657   3.709   1.659   5.155  0.6774  0.2081  0.4487
 7722TIP3    H244658   3.718   1.785   5.238 -0.6024  0.3410  0.4157
 7723TIP3   OH244659   0.138   6.061   2.567 -0.5357 -0.3007 -0.3055
 7723TIP3    H144660   0.193   6.027   2.497 -0.1917 -1.5769  0.5448
 7723TIP3    H244661   0.198   6.078   2.639 -0.9475  0.5424 -0.1491
 7724TIP3   OH244662   3.719   6.695  15.732 -0.1875 -0.1555 -0.3762
 7724TIP3    H144663   3.639   6.704  15.784  1.0621  1.7168  1.3872
 7724TIP3    H244664   3.777   6.639  15.785  0.8793  1.2816  0.0437
 7725TIP3   OH244665   3.084   3.666   3.823 -0.1008  0.3246 -0.0135
 7725TIP3    H144666   3.085   3.585   3.873  0.7564  0.0692 -0.4264
 7725TIP3    H244667   3.167   3.709   3.845 -0.0679  0.5786 -0.6082
 7726TIP3   OH244668   6.201   5.699   1.028  0.7215  0.2635 -0.0363
 7726TIP3    H144669   6.176   5.609   1.047  2.0506 -0.2751 -0.7277
 7726TIP3    H244670   6.276   5.716   1.084 -0.3650  1.4575  1.1398
 7727TIP3   OH244671   3.759   3.691   3.360  0.2526  0.5137 -0.2173
 7727TIP3    H144672   3.696   3.756   3.390 -1.3228 -1.2190  0.4833
 7727TIP3    H244673   3.845   3.731   3.375 -0.6359  2.7822 -0.7785
 7728TIP3   OH244674   2.067   5.191   1.227 -0.1698 -0.3477  0.3191
 7728TIP3    H144675   1.976   5.168   1.247 -0.5053  1.1882  0.7180
 7728TIP3    H244676   2.078   5.278   1.266  0.5291  0.8470 -2.3333
 7729TIP3   OH244677   0.400   1.898   3.012 -0.5866 -0.1163  0.5096
 7729TIP3    H144678   0.341   1.832   3.048 -1.4391 -0.0935 -0.7823
 7729TIP3    H244679   0.399   1.883   2.918  1.4970 -0.1000  0.4373
 7730TIP3   OH244680   4.578   2.643  12.759  0.1732  0.6331 -0.1077
 7730TIP3    H144681   4.645   2.674  12.698  1.3386 -0.0164  0.8129
 7730TIP3    H244682   4.625   2.631  12.841 -0.7998 -1.0955  0.2209
 7731TIP3   OH244683   0.391   6.073  12.076 -0.0453 -0.2977 -0.5170
 7731TIP3    H144684   0.383   6.151  12.022 -1.5796 -0.3569 -0.4308
 7731TIP3    H244685   0.307   6.028  12.066 -0.8443  0.2068  2.6566
 7732TIP3   OH244686   2.335   2.592  15.733  0.0553 -0.0716 -0.2213
 7732TIP3    H144687   2.370   2.677  15.760  0.2813 -0.0155 -0.6698
 7732TIP3    H244688   2.319   2.602  15.639 -1.3747 -0.0316  0.0113
 7733TIP3   OH244689   2.587   1.587  16.376 -0.4661 -0.1527  0.1295
 7733TIP3    H144690   2.613   1.573  16.284  0.6511 -0.3564  0.4593
 7733TIP3    H244691   2.670   1.586  16.424 -1.1193 -1.1826  1.2884
 7734TIP3   OH244692   5.088   6.115   5.521  0.2993 -0.2579 -0.1648
 7734TIP3    H144693   5.058   6.052   5.587  1.8587  0.0282  0.8586
 7734TIP3    H244694   5.037   6.093   5.443  0.0050 -2.0734  0.4823
 7735TIP3   OH244695   3.211   5.485  11.249 -0.4457 -0.0794 -0.3509
 7735TIP3    H144696   3.160   5.405  11.232  1.0325 -1.9843  3.1992
 7735TIP3    H244697   3.302   5.456  11.244  0.1262  1.4502  0.8198
 7736TIP3   OH244698   4.828   2.100   5.652  0.0028  0.4065  0.8752
 7736TIP3    H144699   4.825   2.178   5.598  1.6583 -0.4992 -0.6201
 7736TIP3    H244700   4.810   2.028   5.591 -1.0826 -0.4497  2.1317
 7737TIP3   OH244701   6.421   1.707  11.085 -0.5508 -0.2486  0.1179
 7737TIP3    H144702   6.352   1.667  11.139 -0.2567  0.1642  0.8223
 7737TIP3    H244703   6.391   1.797  11.073  1.2506  0.9101  3.0592
 7738TIP3   OH244704   2.636   5.771   3.830 -0.0409  0.1710  0.6316
 7738TIP3    H144705   2.611   5.848   3.779  1.1223  0.0977 -0.0711
 7738TIP3    H244706   2.627   5.800   3.921  1.0563  1.3988  0.3873
 7739TIP3   OH244707   1.811   6.515   5.996  0.0122  0.0161 -0.1164
 7739TIP3    H144708   1.753   6.460   5.944 -1.4757 -0.4057  1.8798
 7739TIP3    H244709   1.753   6.568   6.050  1.4707  0.9412  0.6276
 7740TIP3   OH244710   0.591   4.026   4.662  0.1006 -0.1109 -0.1430
 7740TIP3    H144711   0.533   3.985   4.598  0.9510 -1.6558  0.0336
 7740TIP3    H244712   0.590   3.968   4.737  1.4568  0.0817  0.0648
 7741TIP3   OH244713   1.413   6.566   0.728 -0.3190  0.0148  0.1546
 7741TIP3    H144714   1.344   6.632   0.739 -0.3467 -0.2940  2.1072
 7741TIP3    H244715   1.495   6.614   0.738 -0.1014  0.5517 -3.0330
 7742TIP3   OH244716   1.173   4.161  11.346  0.1054 -0.3082 -0.0440
 7742TIP3    H144717   1.200   4.253  11.341 -0.0879 -0.3061 -2.8152
 7742TIP3    H244718   1.182   4.129  11.257 -1.5568 -2.4958  0.4848
 7743TIP3   OH244719   3.054   1.246   4.240  0.1231  0.1605 -0.2495
 7743TIP3    H144720   3.129   1.300   4.216 -0.0384 -0.0283 -1.1992
 7743TIP3    H244721   3.056   1.173   4.178  0.7124 -1.2930  1.3987
 7744TIP3   OH244722   3.489   0.138   6.178 -0.3684  0.5267  0.3947
 7744TIP3    H144723   3.500   0.232   6.189  0.8442  0.5078 -0.4312
 7744TIP3    H244724   3.419   0.129   6.114  0.3180  0.9193 -0.4354
 7745TIP3   OH244725   4.138   2.521   0.278  0.2009  0.2304 -0.4808
 7745TIP3    H144726   4.156   2.492   0.367  0.2321 -0.5831 -0.7378
 7745TIP3    H244727   4.069   2.587   0.287 -0.5346 -0.5850  0.0700
 7746TIP3   OH244728   5.169   1.293  12.960 -0.2745 -0.2781  0.0795
 7746TIP3    H144729   5.252   1.322  12.923  0.3641 -1.6616  0.3708
 7746TIP3    H244730   5.107   1.294  12.887  0.3402 -0.5464 -0.4457
 7747TIP3   OH244731   4.280   2.003   3.600 -0.6072 -0.0370 -0.0179
 7747TIP3    H144732   4.331   1.950   3.662 -0.5577  0.7703  0.6535
 7747TIP3    H244733   4.191   2.002   3.636 -0.8211 -0.4636 -0.5420
 7748TIP3   OH244734   0.106   0.673  13.601 -0.4015  0.5293 -0.0944
 7748TIP3    H144735   0.086   0.644  13.690 -1.4502  1.4830  0.0151
 7748TIP3    H244736   0.200   0.688  13.601 -0.3817  0.4878  0.8470
 7749TIP3   OH244737   4.315   1.305   6.002 -0.3170 -0.0449  0.2991
 7749TIP3    H144738   4.366   1.323   6.081  1.0239  0.7658 -0.7115
 7749TIP3    H244739   4.267   1.386   5.985  0.7158  0.4026 -0.6335
 7750TIP3   OH244740   0.192   3.966  12.396 -0.4604  0.2413  0.0405
 7750TIP3    H144741   0.208   4.050  12.440  0.9687  0.3410 -0.6144
 7750TIP3    H244742   0.239   3.902  12.448 -0.9763 -0.0529  0.1482
 7751TIP3   OH244743   4.841   0.648   4.297 -0.1931  0.4237 -0.2402
 7751TIP3    H144744   4.798   0.568   4.267  0.8456 -0.3819  0.3617
 7751TIP3    H244745   4.777   0.689   4.356  0.4344 -1.6746  2.0835
 7752TIP3   OH244746   5.780   5.487   0.943 -0.3723 -0.0967  0.0912
 7752TIP3    H144747   5.694   5.529   0.946 -0.8378 -0.8934 -1.0939
 7752TIP3    H244748   5.834   5.546   0.890 -0.0848  0.5536  1.0900
 7753TIP3   OH244749   1.059   2.831   5.110  0.3335  0.2518 -0.0736
 7753TIP3    H144750   1.040   2.741   5.087 -0.2903  0.5859 -0.9270
 7753TIP3    H244751   0.972   2.872   5.118  0.6063  0.7661  0.3368
 7754TIP3   OH244752   0.407   4.331  10.565 -0.0272  0.1895 -0.6091
 7754TIP3    H144753   0.474   4.393  10.596 -0.4046 -0.4526  1.7160
 7754TIP3    H244754   0.453   4.277  10.501  1.9242 -0.5828  1.2948
 7755TIP3   OH244755   3.956   2.735  14.021 -0.2802  0.0241  0.2371
 7755TIP3    H144756   3.918   2.818  14.049  1.4151  1.0767 -0.4285
 7755TIP3    H244757   3.983   2.750  13.930 -0.0221 -1.2770  0.0804
 7756TIP3   OH244758   1.807   2.651   0.741  0.2592  0.2913 -0.4289
 7756TIP3    H144759   1.871   2.583   0.720  0.8427  0.3735  0.9916
 7756TIP3    H244760   1.820   2.669   0.834 -2.4083 -0.2731  0.1255
 7757TIP3   OH244761   0.060   6.495   1.095  0.4407  0.2555 -0.1814
 7757TIP3    H144762   0.041   6.488   1.188 -1.9203 -3.0069 -0.7493
 7757TIP3    H244763   0.144   6.450   1.085 -1.5665 -3.9514 -0.0635
 7758TIP3   OH244764   5.601   5.140   1.755  1.0428  0.2443  0.2655
 7758TIP3    H144765   5.656   5.104   1.685  0.7665  2.2052 -1.0440
 7758TIP3    H244766   5.629   5.093   1.834  0.3543 -3.1628 -1.3034
 7759TIP3   OH244767   3.762   6.736  13.018  0.1299 -0.6759 -0.6388
 7759TIP3    H144768   3.767   6.689  12.935  0.2472 -1.5472 -0.1485
 7759TIP3    H244769   3.699   6.806  13.002 -0.3474 -1.2349 -1.2719
 7760TIP3   OH244770   4.511   1.571  15.805  0.0901 -0.1483  0.0750
 7760TIP3    H144771   4.573   1.498  15.807  0.0621 -0.1581  0.9413
 7760TIP3    H244772   4.563   1.646  15.775  1.4074  0.6119  3.7883
 7761TIP3   OH244773   2.060   6.297   5.163  0.3480  0.0966 -0.2451
 7761TIP3    H144774   2.083   6.388   5.179  0.1888  0.6568 -2.7857
 7761TIP3    H244775   2.120   6.269   5.094 -1.4600 -0.8109 -1.5161
 7762TIP3   OH244776   1.079   4.076   1.981 -0.3108 -0.3998  0.1832
 7762TIP3    H144777   1.063   4.170   1.992  1.9829  0.3720 -2.0187
 7762TIP3    H244778   1.064   4.061   1.887  0.8495 -1.8929  0.2083
 7763TIP3   OH244779   4.485   3.034   0.817  0.2221 -0.5214 -0.2238
 7763TIP3    H144780   4.550   3.000   0.755  1.7249  0.7524  0.5859
 7763TIP3    H244781   4.405   2.984   0.798  0.8308 -0.6682 -2.6834
 7764TIP3   OH244782   5.640   0.287   0.477  0.0106 -0.1977 -1.0441
 7764TIP3    H144783   5.651   0.280   0.572  0.9623 -1.0625 -1.2030
 7764TIP3    H244784   5.571   0.224   0.457 -1.6282  1.3977 -0.7147
 7765TIP3   OH244785   1.040   1.487   0.761 -0.1893  0.0309  0.0181
 7765TIP3    H144786   1.120   1.471   0.810  0.4863 -1.1345 -1.4053
 7765TIP3    H244787   0.974   1.503   0.828  1.2388  1.2403  1.2269
 7766TIP3   OH244788   5.024   6.430   4.707  0.6102 -0.4308 -0.0480
 7766TIP3    H144789   5.046   6.502   4.766 -0.5862 -1.0317  1.1879
 7766TIP3    H244790   5.038   6.466   4.620 -1.8004  2.0445  0.4124
 7767TIP3   OH244791   6.166   6.203  16.942  0.8298  0.2119  0.3814
 7767TIP3    H144792   6.088   6.259  16.938  0.5965 -0.1861 -1.8529
 7767TIP3    H244793   6.236   6.262  16.971  0.2729  1.2891 -0.4017
 7768TIP3   OH244794   1.269   1.936  15.627  0.1692  0.1895  0.4155
 7768TIP3    H144795   1.247   2.003  15.691 -0.1450  0.0885  0.4185
 7768TIP3    H244796   1.240   1.854  15.667 -1.6500  0.3007 -0.5594
 7769TIP3   OH244797   5.306   6.645   4.588  0.5227  0.0125  0.8133
 7769TIP3    H144798   5.313   6.593   4.669  1.2948  0.8365  1.2953
 7769TIP3    H244799   5.395   6.644   4.552  0.0919 -0.6983 -0.2683
 7770TIP3   OH244800   4.871   5.185  12.365  0.3046  0.0509 -0.4613
 7770TIP3    H144801   4.926   5.145  12.433  0.0941  1.6769  0.7273
 7770TIP3    H244802   4.783   5.151  12.382  0.4674 -0.5130 -0.7205
 7771TIP3   OH244803   3.422   6.221  14.040  0.5139 -0.8014 -0.5138
 7771TIP3    H144804   3.415   6.303  13.991  0.0400 -0.5547 -0.0467
 7771TIP3    H244805   3.331   6.198  14.060  0.7322 -0.5935  0.7445
 7772TIP3   OH244806   6.425   1.432  12.325  0.2578 -0.0391 -0.1171
 7772TIP3    H144807   6.492   1.387  12.377 -0.0328 -0.2657  0.0675
 7772TIP3    H244808   6.399   1.506  12.379  1.3680  0.8822 -0.8008
 7773TIP3   OH244809   1.149   4.810   1.424 -0.0907 -0.4717  0.7848
 7773TIP3    H144810   1.172   4.874   1.492 -2.3169  0.1789  1.0203
 7773TIP3    H244811   1.069   4.768   1.457 -1.3871  0.0316 -1.4565
 7774TIP3   OH244812   3.961   4.142   1.121 -0.5932  0.0649 -0.7116
 7774TIP3    H144813   3.927   4.104   1.040 -1.6823  0.6014 -0.5308
 7774TIP3    H244814   3.916   4.226   1.129 -1.3801 -0.4615  1.0203
 7775TIP3   OH244815   0.535   3.076   0.906  0.1934 -0.2277 -0.4517
 7775TIP3    H144816   0.563   3.032   0.986  0.9450  0.7677 -0.1460
 7775TIP3    H244817   0.608   3.134   0.884 -0.6121  0.5866 -1.0525
 7776TIP3   OH244818   5.437   2.080  14.059  0.1857  0.0417  0.5311
 7776TIP3    H144819   5.351   2.087  14.100  0.6275 -0.2217  1.5414
 7776TIP3    H244820   5.419   2.051  13.970 -0.7528 -0.3619  0.8397
 7777TIP3   OH244821   6.470   5.763  17.104  0.0490 -0.4333  0.2060
 7777TIP3    H144822   6.466   5.810  17.021 -1.3331 -2.5899 -1.0202
 7777TIP3    H244823   6.563   5.757  17.124  0.5211 -1.1247 -1.9527
 7778TIP3   OH244824   3.904   0.007   1.350 -0.1009  0.6727  0.8834
 7778TIP3    H144825   3.809   0.014   1.345 -0.2608 -1.2563  0.2936
 7778TIP3    H244826   3.934   0.029   1.261  0.0353  1.4518  1.1147
 7779TIP3   OH244827   3.281   1.029  16.455 -0.1584 -0.1346  0.6725
 7779TIP3    H144828   3.234   0.975  16.391 -0.9919  1.2216  0.1195
 7779TIP3    H244829   3.216   1.048  16.522  0.0761  0.3616  0.7570
 7780TIP3   OH244830   3.320   6.666   1.878 -0.2572 -0.7032 -0.1540
 7780TIP3    H144831   3.361   6.620   1.805 -1.1289  1.0253 -1.8212
 7780TIP3    H244832   3.246   6.712   1.839 -0.6979  0.3777  1.8163
 7781TIP3   OH244833   3.386   5.247  13.658  0.4439 -0.3571  0.2433
 7781TIP3    H144834   3.399   5.212  13.746  2.0666 -0.0219  0.1682
 7781TIP3    H244835   3.422   5.180  13.600  1.2068  0.2857 -0.0415
 7782TIP3   OH244836   6.793   1.670   2.979  0.2160  0.6375 -0.0272
 7782TIP3    H144837   6.700   1.646   2.978  0.7651 -2.0459 -2.8577
 7782TIP3    H244838   6.793   1.765   2.989 -2.7617  0.6631  0.9256
 7783TIP3   OH244839   5.066   5.914   5.699  0.0957  0.1355  0.0335
 7783TIP3    H144840   5.037   5.828   5.671  0.2001 -0.2198  0.9670
 7783TIP3    H244841   5.084   5.904   5.793 -0.3721  1.2864  0.2750
 7784TIP3   OH244842   1.825   1.975   5.486  0.3656  0.4309  0.5326
 7784TIP3    H144843   1.904   1.940   5.444  0.4708  0.2856  0.8524
 7784TIP3    H244844   1.755   1.958   5.423  0.3217 -0.8077  0.8959
 7785TIP3   OH244845   1.227   2.772  15.437  0.1152  0.1135  0.0326
 7785TIP3    H144846   1.176   2.827  15.378  0.1999 -1.9262 -2.0710
 7785TIP3    H244847   1.184   2.687  15.435 -0.6101  0.1726  3.9666
 7786TIP3   OH244848   6.434   0.183  11.014 -0.2831 -0.2790 -0.4035
 7786TIP3    H144849   6.383   0.109  10.982 -0.1560 -0.5246 -0.0436
 7786TIP3    H244850   6.430   0.248  10.944 -0.9706 -0.3506 -0.4374
 7787TIP3   OH244851   4.857   0.204  10.833  0.2610  0.2876  0.5272
 7787TIP3    H144852   4.855   0.125  10.779  0.0004  0.2574  0.5802
 7787TIP3    H244853   4.939   0.248  10.808 -0.7869  1.2911 -1.3916
 7788TIP3   OH244854   4.187   3.878   6.280 -0.2967  0.2560 -0.3812
 7788TIP3    H144855   4.127   3.927   6.336 -0.3051  0.7696 -0.8295
 7788TIP3    H244856   4.247   3.835   6.341 -1.0061 -0.1255  0.0619
 7789TIP3   OH244857   5.344   4.713  12.075  0.3864 -0.0936  0.7361
 7789TIP3    H144858   5.368   4.763  12.154  0.4522 -0.1610  0.7593
 7789TIP3    H244859   5.425   4.709  12.024 -0.0440  1.3697 -0.1230
 7790TIP3   OH244860   0.397   1.002   0.536 -0.1845 -0.2154 -0.3483
 7790TIP3    H144861   0.405   0.999   0.631  0.4982 -0.6626 -0.4105
 7790TIP3    H244862   0.485   1.026   0.505 -0.4578  0.1555 -0.8554
 7791TIP3   OH244863   5.956   4.791   0.856 -0.2178 -0.2020  0.2596
 7791TIP3    H144864   5.962   4.814   0.949 -1.8725 -2.0807  0.8982
 7791TIP3    H244865   5.890   4.850   0.821 -0.4337 -0.2560  0.5696
 7792TIP3   OH244866   2.753   2.167   1.559 -0.1624 -0.4492  0.0468
 7792TIP3    H144867   2.755   2.241   1.619 -1.9117 -0.0956 -0.2615
 7792TIP3    H244868   2.775   2.092   1.614 -3.0366 -0.3485  1.5746
 7793TIP3   OH244869   5.701   6.211  15.687 -0.6874 -0.3174 -0.0769
 7793TIP3    H144870   5.641   6.269  15.640 -0.4403 -0.3483 -0.4353
 7793TIP3    H244871   5.670   6.123  15.667 -0.7254 -0.3224  0.0067
 7794TIP3   OH244872   3.861   5.155  11.385 -0.7014  0.8206 -0.2384
 7794TIP3    H144873   3.779   5.162  11.433 -0.8576 -1.4864 -0.0360
 7794TIP3    H244874   3.925   5.130  11.452  0.0954  2.1555 -0.4744
 7795TIP3   OH244875   4.564   4.350  14.845 -0.0067  0.3747  0.1380
 7795TIP3    H144876   4.553   4.280  14.781 -0.9524  0.1097  0.5710
 7795TIP3    H244877   4.496   4.334  14.910  0.9032  0.6743  1.1868
 7796TIP3   OH244878   3.838   2.970   3.002  0.0914 -0.3121  0.4357
 7796TIP3    H144879   3.907   2.933   2.947 -0.8203 -0.9753 -0.3095
 7796TIP3    H244880   3.762   2.913   2.986  0.3472 -1.9598  4.1055
 7797TIP3   OH244881   4.086   0.307   1.317  0.0124  0.0768  0.0231
 7797TIP3    H144882   4.012   0.334   1.373  0.7589  1.7991  0.2500
 7797TIP3    H244883   4.075   0.358   1.237  1.5851  1.2973  0.5311
 7798TIP3   OH244884   2.117   0.536   1.718  0.3540 -0.2916 -0.0428
 7798TIP3    H144885   2.050   0.537   1.786 -0.6535  0.1332 -1.0026
 7798TIP3    H244886   2.092   0.463   1.661 -0.2426  0.8415 -1.2945
 7799TIP3   OH244887   6.666   4.511   0.379  0.1526 -0.0808  0.7642
 7799TIP3    H144888   6.692   4.562   0.302  0.0076 -1.3591 -0.1618
 7799TIP3    H244889   6.687   4.568   0.454  0.6894  1.0149 -0.1859
 7800TIP3   OH244890   4.472   2.911  11.320  0.2590 -0.2748 -0.3845
 7800TIP3    H144891   4.512   2.994  11.294  1.2234 -0.7417 -0.4422
 7800TIP3    H244892   4.380   2.932  11.334  0.5455  0.8672 -0.1151
 7801TIP3   OH244893   5.134   0.580  14.385 -0.6224  0.2329 -0.0858
 7801TIP3    H144894   5.172   0.667  14.398 -0.7805  0.4597 -1.0126
 7801TIP3    H244895   5.159   0.530  14.463  0.5459  0.7379 -0.1119
 7802TIP3   OH244896   1.641   0.811   2.647 -0.7258  0.1191  0.0388
 7802TIP3    H144897   1.568   0.772   2.696 -1.9555  1.2866 -0.7931
 7802TIP3    H244898   1.657   0.749   2.576 -0.0827 -0.7204  0.8769
 7803TIP3   OH244899   4.477   1.750  14.500 -0.0385  0.3156 -0.1496
 7803TIP3    H144900   4.388   1.763  14.467 -0.0330 -3.0107 -1.8337
 7803TIP3    H244901   4.467   1.689  14.573  0.9074 -0.8602 -0.9829
 7804TIP3   OH244902   3.701   1.274  16.300 -0.0408  0.8029 -0.8829
 7804TIP3    H144903   3.613   1.238  16.301 -0.3267  1.4722 -1.4122
 7804TIP3    H244904   3.730   1.266  16.209  1.0005 -0.6891 -0.4662
 7805TIP3   OH244905   1.203   0.380  15.947  0.2279  0.5150  0.0255
 7805TIP3    H144906   1.241   0.378  15.859 -0.7138  0.4705 -0.3953
 7805TIP3    H244907   1.276   0.404  16.004  0.7109  1.1820 -0.8398
 7806TIP3   OH244908   4.794   3.256  12.191 -0.4198  0.3860  0.3333
 7806TIP3    H144909   4.872   3.202  12.178 -0.4752  0.3115  0.3097
 7806TIP3    H244910   4.748   3.251  12.107 -0.6376  0.1281  0.4673
 7807TIP3   OH244911   3.803   0.638   0.857 -0.2469 -0.5825  0.6925
 7807TIP3    H144912   3.756   0.692   0.794  0.1884 -1.9604 -0.8643
 7807TIP3    H244913   3.834   0.701   0.923 -3.0030  0.5314  1.0366
 7808TIP3   OH244914   3.870   6.168  16.064 -0.5118  0.1784 -0.3867
 7808TIP3    H144915   3.954   6.166  16.020  0.0560  2.2870  0.4817
 7808TIP3    H244916   3.808   6.197  15.997 -0.6665 -1.6618 -1.1083
 7809TIP3   OH244917   5.110   2.936   3.589  0.3049 -0.1111  0.6890
 7809TIP3    H144918   5.089   2.978   3.506 -0.8727 -1.2490  0.3737
 7809TIP3    H244919   5.203   2.956   3.603  0.0628  1.6426  0.0416
 7810TIP3   OH244920   5.454   3.908  16.357 -0.0861 -0.3691 -0.3780
 7810TIP3    H144921   5.463   3.899  16.262  0.2344 -0.1269 -0.3727
 7810TIP3    H244922   5.362   3.931  16.370  0.3073  1.6707 -0.8044
 7811TIP3   OH244923   6.804   3.442  13.158 -0.3383 -0.7521 -0.3685
 7811TIP3    H144924   6.755   3.488  13.090 -1.2626 -1.2981 -0.1040
 7811TIP3    H244925   6.806   3.351  13.128 -0.4986 -0.9409  0.1845
 7812TIP3   OH244926   6.048   1.926  11.486 -0.5291  0.0062  0.5271
 7812TIP3    H144927   6.020   1.846  11.442 -0.6909  0.5318 -0.3390
 7812TIP3    H244928   6.012   1.997  11.434  1.9497  0.7183 -0.3811
 7813TIP3   OH244929   0.711   6.271  13.110  0.0568 -0.3361  0.1977
 7813TIP3    H144930   0.616   6.265  13.102  0.0066 -2.7347  1.6286
 7813TIP3    H244931   0.739   6.320  13.033 -2.3760  1.1194  0.1395
 7814TIP3   OH244932   2.015   4.309  10.518 -1.3631  0.1135  0.3171
 7814TIP3    H144933   2.028   4.386  10.573  1.4051  0.6537 -0.9479
 7814TIP3    H244934   1.941   4.331  10.462 -1.0633  1.5417  0.4592
 7815TIP3   OH244935   4.376   5.371  14.920  0.3413 -0.3454  0.2097
 7815TIP3    H144936   4.330   5.382  14.836  0.0949 -1.7588  0.1345
 7815TIP3    H244937   4.316   5.408  14.984 -0.6375 -1.5264  0.0260
 7816TIP3   OH244938   6.416   2.810   5.286 -1.0174 -0.7531  0.1940
 7816TIP3    H144939   6.375   2.833   5.370  0.0196 -0.5410  0.6492
 7816TIP3    H244940   6.481   2.878   5.270 -2.9004  0.6681 -2.0682
 7817TIP3   OH244941   5.107   1.126   1.171 -0.6086 -0.0756 -0.1687
 7817TIP3    H144942   5.024   1.084   1.152 -0.8879 -0.5061  1.7789
 7817TIP3    H244943   5.094   1.167   1.257 -0.2599  3.7776 -1.7370
 7818TIP3   OH244944   2.667   4.064  17.160 -0.1764  0.3706  0.1756
 7818TIP3    H144945   2.658   4.000  17.090  0.3795 -0.0346  0.4592
 7818TIP3    H244946   2.695   4.144  17.116  1.2862 -0.1801  0.0241
 7819TIP3   OH244947   0.877   6.215  17.157 -0.5568 -0.2655  0.1252
 7819TIP3    H144948   0.783   6.223  17.172 -0.6909  0.4364 -0.9974
 7819TIP3    H244949   0.901   6.294  17.107  0.3049 -1.2307 -1.0642
 7820TIP3   OH244950   4.974   5.400  12.549  0.1466 -0.0865  0.8103
 7820TIP3    H144951   4.935   5.323  12.509 -1.4215  0.3124  1.4624
 7820TIP3    H244952   5.066   5.379  12.559  0.9196  0.1288 -3.8118
 7821TIP3   OH244953   6.355   6.415  11.561  0.1109  0.0088 -0.6186
 7821TIP3    H144954   6.342   6.354  11.633 -1.3454  1.8903  0.8319
 7821TIP3    H244955   6.439   6.457  11.579  0.8249 -1.0882 -1.2906
 7822TIP3   OH244956   4.502   3.925   1.694 -0.0536  0.1001 -0.1619
 7822TIP3    H144957   4.449   3.845   1.687  0.4712 -0.3851  1.0709
 7822TIP3    H244958   4.451   3.992   1.649 -1.2861 -0.5621  0.2088
 7823TIP3   OH244959   5.002   6.476   5.415 -0.0957 -0.2822  0.1853
 7823TIP3    H144960   5.001   6.383   5.389 -0.2363 -0.6266  1.3725
 7823TIP3    H244961   5.003   6.474   5.510  1.6115  0.9282  0.2363
 7824TIP3   OH244962   2.287   6.589   4.123 -0.1896 -0.6493 -0.2744
 7824TIP3    H144963   2.218   6.590   4.189 -0.2396 -3.1836 -0.1768
 7824TIP3    H244964   2.246   6.625   4.044 -0.4837  1.2740  0.7010
 7825TIP3   OH244965   1.661   2.328   0.224  0.0494 -0.4984  0.3694
 7825TIP3    H144966   1.730   2.291   0.278 -0.5930 -2.1469  0.1019
 7825TIP3    H244967   1.587   2.269   0.234 -1.1340  0.8706  0.1340
 7826TIP3   OH244968   1.823   5.806  12.003  0.0807 -0.1898  0.1769
 7826TIP3    H144969   1.835   5.892  12.043  1.5567  0.3381 -1.2875
 7826TIP3    H244970   1.734   5.808  11.968 -0.1430  0.4672  0.7576
 7827TIP3   OH244971   0.910   0.978   5.430  0.2775 -0.5253  0.0311
 7827TIP3    H144972   0.839   0.915   5.414  1.2008 -1.2588 -1.4348
 7827TIP3    H244973   0.989   0.925   5.433  1.3373  0.6282 -3.1392
 7828TIP3   OH244974   3.199   3.510  12.861  0.1832  0.2891 -0.2541
 7828TIP3    H144975   3.168   3.467  12.941  0.7365  0.3076 -0.0279
 7828TIP3    H244976   3.291   3.529  12.878  0.2433  0.5069 -0.8076
 7829TIP3   OH244977   1.997   3.372   1.192 -0.0403 -0.3177 -0.0132
 7829TIP3    H144978   1.932   3.358   1.123 -0.0205 -1.9748  0.2574
 7829TIP3    H244979   2.078   3.336   1.155 -0.1318 -1.6658  1.0035
 7830TIP3   OH244980   6.529   1.064   0.418  0.1616  0.3914  0.0360
 7830TIP3    H144981   6.563   1.011   0.347 -0.0670  0.0796  0.1572
 7830TIP3    H244982   6.463   1.009   0.460 -0.7172  1.0894 -0.3937
 7831TIP3   OH244983   4.911   6.409   3.363 -0.4622 -0.1510  0.1814
 7831TIP3    H144984   4.892   6.455   3.445 -2.5716 -1.5356  0.5397
 7831TIP3    H244985   4.878   6.467   3.295 -0.2182  0.2650  0.4096
 7832TIP3   OH244986   5.996   1.567  15.328  0.3484  0.1311 -0.1738
 7832TIP3    H144987   5.904   1.594  15.338  0.8522  1.5366  1.0685
 7832TIP3    H244988   6.036   1.640  15.280  0.8468 -0.4081 -0.5770
 7833TIP3   OH244989   5.201   3.037   1.670 -0.3093 -0.0330  0.2143
 7833TIP3    H144990   5.172   3.045   1.761 -2.0556 -0.6404 -0.2557
 7833TIP3    H244991   5.229   3.126   1.646 -2.7466  0.8794  0.4368
 7834TIP3   OH244992   2.002   0.834   3.837 -0.4665  0.5273  0.2432
 7834TIP3    H144993   1.983   0.758   3.782 -2.8760 -0.1065  1.8340
 7834TIP3    H244994   1.917   0.871   3.858  0.5827  2.8536  0.6971
 7835TIP3   OH244995   3.465   5.792  15.236 -0.5903 -0.3400  0.3989
 7835TIP3    H144996   3.398   5.851  15.271 -2.0486 -0.6459 -1.7090
 7835TIP3    H244997   3.461   5.715  15.291 -1.6407 -0.1531  0.6029
 7836TIP3   OH244998   0.912   2.055   2.392 -0.4368 -0.0302  0.8026
 7836TIP3    H144999   0.978   2.089   2.331  1.5068  0.7426  3.1856
 7836TIP3    H245000   0.828   2.083   2.355  0.4478 -1.3340 -2.5378
 7837TIP3   OH245001   5.781   1.610   4.286  0.1813  0.6563  0.0967
 7837TIP3    H145002   5.817   1.648   4.206 -1.5788  2.4163  0.0741
 7837TIP3    H245003   5.690   1.592   4.266 -0.6264  2.2467  2.0328
 7838TIP3   OH245004   0.877   2.078  15.929 -0.5819  0.8027  0.3982
 7838TIP3    H145005   0.872   2.133  16.007  0.3831  2.7901 -0.8645
 7838TIP3    H245006   0.786   2.066  15.902 -0.8660  0.8241  1.3101
 7839TIP3   OH245007   4.181   6.790   3.399 -0.2207  0.4133  0.1200
 7839TIP3    H145008   4.131   6.760   3.476  0.3535  1.0042  0.7316
 7839TIP3    H245009   4.133   6.754   3.325  0.4524 -2.1075  0.7919
 7840TIP3   OH245010   0.804   2.410  14.082 -0.5600 -0.0321  0.1945
 7840TIP3    H145011   0.747   2.404  14.159 -0.8961 -1.3008 -0.1265
 7840TIP3    H245012   0.745   2.431  14.010 -0.3455  0.4728  0.1636
 7841TIP3   OH245013   3.305   5.129  12.081 -0.1832  0.0856  0.2088
 7841TIP3    H145014   3.305   5.177  11.997 -1.5807  0.5069  0.4245
 7841TIP3    H245015   3.378   5.167  12.129  0.1926  0.3487 -0.5464
 7842TIP3   OH245016   5.325   0.624  13.337  0.3044 -0.0664 -0.3537
 7842TIP3    H145017   5.276   0.701  13.308  0.1280  0.0969  0.3627
 7842TIP3    H245018   5.339   0.573  13.257  1.1314  1.1003 -0.9660
 7843TIP3   OH245019   0.782   1.750   0.490  0.0571 -0.0101  0.3557
 7843TIP3    H145020   0.806   1.657   0.499  1.2705 -0.1797 -3.1902
 7843TIP3    H245021   0.691   1.748   0.460  1.0210 -0.3980 -2.9649
 7844TIP3   OH245022   4.166   1.443  13.968 -0.0699  0.3422 -0.0840
 7844TIP3    H145023   4.134   1.389  13.896 -1.8682 -0.0863  0.9777
 7844TIP3    H245024   4.140   1.532  13.944  0.4465  0.3721 -0.5419
 7845TIP3   OH245025   1.295   2.734  16.848 -0.4805  0.3577  0.0894
 7845TIP3    H145026   1.348   2.744  16.927  1.0246  0.3263 -0.8616
 7845TIP3    H245027   1.236   2.809  16.848  0.9843  1.5519  0.1778
 7846TIP3   OH245028   4.551   2.519  13.317  0.2547  0.2114  0.5803
 7846TIP3    H145029   4.551   2.424  13.325 -1.1191  0.2121  0.7188
 7846TIP3    H245030   4.592   2.550  13.398  0.0042 -0.2435  0.8835
 7847TIP3   OH245031   2.263   5.980   1.242 -0.5581 -0.0222  0.0199
 7847TIP3    H145032   2.328   6.046   1.220  0.7486 -1.5252 -0.7807
 7847TIP3    H245033   2.278   5.962   1.335 -1.5801  1.4449  0.5189
 7848TIP3   OH245034   2.626   3.813   0.242 -0.2951  0.4779 -0.2864
 7848TIP3    H145035   2.670   3.883   0.193  1.7414 -1.1183 -0.9049
 7848TIP3    H245036   2.651   3.829   0.333  1.0821 -0.0205 -0.5518
 7849TIP3   OH245037   6.640   1.552  12.104  0.0649  0.5911 -0.1904
 7849TIP3    H145038   6.624   1.645  12.086  1.1584  1.1537  1.5128
 7849TIP3    H245039   6.556   1.521  12.139 -0.3014  0.9259 -0.7407
 7850TIP3   OH245040   4.808   5.248   1.166 -0.3392 -0.2066 -0.5523
 7850TIP3    H145041   4.901   5.262   1.183 -0.0614  0.8007 -2.6329
 7850TIP3    H245042   4.780   5.189   1.236  1.8152 -0.4187  0.2121
 7851TIP3   OH245043   3.165   0.769   3.427 -0.4085  0.0779  0.7064
 7851TIP3    H145044   3.146   0.683   3.391 -0.8469 -0.3409  1.8738
 7851TIP3    H245045   3.202   0.819   3.354  0.1333 -1.1809  0.0986
 7852TIP3   OH245046   1.603   4.193  10.226 -0.0448 -0.7446  0.1526
 7852TIP3    H145047   1.570   4.105  10.242  0.1007 -1.0030 -0.9031
 7852TIP3    H245048   1.529   4.241  10.188 -0.7667  0.2243  2.5862
 7853TIP3   OH245049   1.514   6.644  13.406  0.5936  0.1706 -0.2846
 7853TIP3    H145050   1.512   6.705  13.479  1.2306  0.0513 -0.1646
 7853TIP3    H245051   1.430   6.598  13.411  0.7778 -0.0824  0.5727
 7854TIP3   OH245052   6.383   4.191  15.977  0.3587  0.0747  0.4187
 7854TIP3    H145053   6.322   4.265  15.975 -1.2298 -1.1221  1.8075
 7854TIP3    H245054   6.440   4.206  15.902 -1.8336  1.1381 -1.1816
 7855TIP3   OH245055   4.971   4.941   0.476 -0.0242 -0.5695  0.2882
 7855TIP3    H145056   5.059   4.940   0.438  0.1652  1.0647  0.6148
 7855TIP3    H245057   4.968   4.864   0.533  1.4594 -0.2494  0.8401
 7856TIP3   OH245058   3.261   4.792  16.533 -0.1345 -0.1833 -0.0726
 7856TIP3    H145059   3.284   4.747  16.614  0.2402 -0.3770 -0.2840
 7856TIP3    H245060   3.171   4.765  16.516  0.2720 -1.3243 -0.5012
 7857TIP3   OH245061   3.857   4.067  10.259 -0.3621  0.1359  0.1510
 7857TIP3    H145062   3.911   4.081  10.338 -1.2333  1.1242  0.5990
 7857TIP3    H245063   3.916   4.088  10.187  0.2007  0.0767  0.5804
 7858TIP3   OH245064   5.005   1.255  12.738  0.9382 -0.1288 -0.6610
 7858TIP3    H145065   4.927   1.211  12.772  0.5169  1.8732  1.1954
 7858TIP3    H245066   4.971   1.340  12.707  2.0366 -0.1741 -2.0631
 7859TIP3   OH245067   6.624   3.827   0.054 -0.5036 -0.0947  0.4091
 7859TIP3    H145068   6.689   3.887   0.019 -0.8356  0.1301  0.1689
 7859TIP3    H245069   6.569   3.805  -0.021 -0.8328 -0.1125  0.6524
 7860TIP3   OH245070   1.293   3.362  14.039 -0.1360 -0.3757 -0.2597
 7860TIP3    H145071   1.231   3.289  14.040  0.7692 -1.1795 -1.0215
 7860TIP3    H245072   1.240   3.438  14.012 -0.2234 -1.7236 -4.7219
 7861TIP3   OH245073   5.425   2.306  16.630  0.2974  0.1876 -0.0001
 7861TIP3    H145074   5.331   2.319  16.616  0.7664  2.0187 -1.9187
 7861TIP3    H245075   5.459   2.392  16.652  1.4438 -0.6108  1.5399
 7862TIP3   OH245076   4.835   4.268   1.818  0.0176  0.4832  0.1862
 7862TIP3    H145077   4.920   4.261   1.860 -0.7273  1.0646  1.8640
 7862TIP3    H245078   4.780   4.314   1.881 -1.5126  0.2646 -0.9155
 7863TIP3   OH245079   3.833   2.350  15.074 -0.3704 -0.2740 -0.2832
 7863TIP3    H145080   3.902   2.310  15.126 -0.0597 -0.5436 -0.8886
 7863TIP3    H245081   3.764   2.371  15.137 -0.2525 -1.1314  0.1442
 7864TIP3   OH245082   5.203   0.113   4.053  0.7298  0.1001  0.0374
 7864TIP3    H145083   5.186   0.059   3.975  0.5079  1.7935 -1.1457
 7864TIP3    H245084   5.119   0.154   4.072  0.0782 -2.1942  2.8124
 7865TIP3   OH245085   4.011   0.220   5.321  0.7241 -0.5094 -0.9937
 7865TIP3    H145086   3.964   0.149   5.276 -0.1930 -0.7751  0.3326
 7865TIP3    H245087   3.959   0.298   5.303  0.9313 -0.4238 -1.2352
 7866TIP3   OH245088   3.509   0.673  13.911 -0.5061 -0.3489 -0.4605
 7866TIP3    H145089   3.450   0.739  13.947 -0.6924 -0.2147 -0.9990
 7866TIP3    H245090   3.595   0.715  13.910 -0.6254 -0.1130 -0.8072
 7867TIP3   OH245091   0.056   2.394   0.433 -0.8069  0.0392  0.0725
 7867TIP3    H145092   0.063   2.340   0.511  0.5979  0.5868  0.3681
 7867TIP3    H245093   0.046   2.483   0.466 -4.8920 -0.0776 -0.3819
 7868TIP3   OH245094   0.910   4.626   5.680  0.1536 -0.2514 -0.5279
 7868TIP3    H145095   1.003   4.612   5.660  0.0789  0.3093 -1.3221
 7868TIP3    H245096   0.911   4.681   5.758  0.4695 -1.5263  0.3821
 7869TIP3   OH245097   5.414   0.451   6.082 -0.0299 -0.1116  0.3579
 7869TIP3    H145098   5.496   0.498   6.096  0.1766 -0.4045  0.1476
 7869TIP3    H245099   5.347   0.506   6.124 -0.0363  1.2135 -1.2723
 7870TIP3   OH245100   4.433   4.578  17.188 -0.4340 -0.0206  0.5024
 7870TIP3    H145101   4.418   4.596  17.095 -0.0130  0.4564  0.5222
 7870TIP3    H245102   4.499   4.508  17.189 -1.4159 -0.9713  0.4348
 7871TIP3   OH245103   0.313   3.954  14.076  0.6864  0.5802 -0.0681
 7871TIP3    H145104   0.223   3.921  14.083  0.9137 -0.1755 -0.7461
 7871TIP3    H245105   0.348   3.913  13.998  1.7179  0.6717  0.3374
 7872TIP3   OH245106   0.045   3.899  16.736  0.4749  0.5735 -0.5623
 7872TIP3    H145107   0.027   3.901  16.642 -0.6673 -1.0495 -0.4155
 7872TIP3    H245108  -0.008   3.970  16.772 -0.1288  0.3487 -0.9936
 7873TIP3   OH245109   3.532   2.435   0.132  0.3055 -0.7505  0.2568
 7873TIP3    H145110   3.538   2.437   0.228 -1.2885  1.0848  0.3804
 7873TIP3    H245111   3.458   2.377   0.114 -0.0633 -0.2731  0.2081
 7874TIP3   OH245112   4.455   3.308  14.235 -0.8328 -0.7965  0.2376
 7874TIP3    H145113   4.413   3.365  14.171  0.2316 -0.8829 -0.5640
 7874TIP3    H245114   4.391   3.300  14.306 -1.1295  1.1342  0.2258
 7875TIP3   OH245115   5.857   2.750  12.281  0.2694  0.3945  0.3424
 7875TIP3    H145116   5.774   2.764  12.326 -1.0321 -0.7032 -1.5796
 7875TIP3    H245117   5.855   2.658  12.256  0.6079  1.0696 -2.4659
 7876TIP3   OH245118   3.766   6.145  12.854 -0.0841 -0.0057  0.1350
 7876TIP3    H145119   3.696   6.142  12.788  0.6271 -1.1774 -0.6116
 7876TIP3    H245120   3.770   6.237  12.881 -1.9598  0.0749  0.2730
 7877TIP3   OH245121   3.406   4.763  17.046  0.1089 -0.0020 -0.5352
 7877TIP3    H145122   3.328   4.711  17.025  0.1309  0.1604 -1.0264
 7877TIP3    H245123   3.374   4.830  17.107  0.2037 -0.9525  0.5967
 7878TIP3   OH245124   4.898   3.856  14.351  0.3204  0.0573  0.8104
 7878TIP3    H145125   4.986   3.879  14.318  0.2579 -0.0918  0.5339
 7878TIP3    H245126   4.861   3.801  14.282  0.4836 -0.9126  1.4912
 7879TIP3   OH245127   2.947   6.679   2.140 -1.5689 -0.8678  0.4436
 7879TIP3    H145128   3.030   6.713   2.173 -0.3527 -1.9999 -1.2566
 7879TIP3    H245129   2.944   6.588   2.170 -2.0213 -0.9488  0.1753
 7880TIP3   OH245130   1.087   0.044  11.229  0.2680  0.1485  0.1954
 7880TIP3    H145131   1.010   0.100  11.221  0.2834  0.2424  0.6744
 7880TIP3    H245132   1.126   0.068  11.313  0.9391  0.2495 -0.1358
 7881TIP3   OH245133   0.909   5.142  15.873  0.4403 -0.0489  0.1702
 7881TIP3    H145134   0.821   5.115  15.847 -0.1960  1.4297  0.6705
 7881TIP3    H245135   0.945   5.065  15.918 -0.7699 -0.5284  0.3645
 7882TIP3   OH245136   0.375   4.559  11.782 -0.8763  0.1021 -0.0101
 7882TIP3    H145137   0.330   4.539  11.864  0.8242  0.2409  1.0155
 7882TIP3    H245138   0.341   4.495  11.720 -2.2722  0.0521  0.7688
 7883TIP3   OH245139   5.560   4.712   6.198 -0.1991 -0.3361  0.4031
 7883TIP3    H145140   5.616   4.651   6.246  1.8651  0.4578 -0.8310
 7883TIP3    H245141   5.501   4.657   6.147  1.9183 -1.4049 -1.0423
 7884TIP3   OH245142   1.521   3.123   3.821 -0.1235 -0.2321  0.6267
 7884TIP3    H145143   1.461   3.195   3.805  1.1196  1.1542  1.8844
 7884TIP3    H245144   1.577   3.153   3.892  1.3056 -1.9153  0.3016
 7885TIP3   OH245145   6.462   0.945   0.863 -0.1093  0.4414  0.1895
 7885TIP3    H145146   6.505   1.005   0.924 -0.8495  0.3899  0.7752
 7885TIP3    H245147   6.532   0.915   0.805  0.3718  1.4356  0.2474
 7886TIP3   OH245148   2.076   6.167   2.879  0.2173  0.6092 -0.3926
 7886TIP3    H145149   2.005   6.126   2.829  0.4899  0.9411 -1.0688
 7886TIP3    H245150   2.150   6.107   2.868 -0.2549 -0.3283  1.2643
 7887TIP3   OH245151   1.085   1.280  15.159 -0.0244  0.2122  0.6421
 7887TIP3    H145152   1.019   1.313  15.098  0.7805  0.6794  0.0123
 7887TIP3    H245153   1.125   1.359  15.196  1.2131 -0.0372 -0.1075
 7888TIP3   OH245154   2.203   5.466   1.926 -0.4755  0.3926 -0.2810
 7888TIP3    H145155   2.223   5.474   2.020 -0.9405  1.2736 -0.2450
 7888TIP3    H245156   2.279   5.422   1.889  0.8007  2.1193  0.1432
 7889TIP3   OH245157   6.466   5.054   0.027 -0.3654  0.0959 -0.9421
 7889TIP3    H145158   6.485   4.961   0.014 -1.7528 -0.1217 -1.6310
 7889TIP3    H245159   6.504   5.075   0.112  0.5225 -0.9415 -1.0675
 7890TIP3   OH245160   0.175   6.739   4.918  0.1091  0.4289 -0.7982
 7890TIP3    H145161   0.186   6.830   4.946 -2.4328  0.7442 -0.5512
 7890TIP3    H245162   0.101   6.742   4.856 -0.3582 -1.5083 -0.3989
 7891TIP3   OH245163   2.060   0.304  15.509  0.5027  0.3258 -0.0965
 7891TIP3    H145164   2.143   0.295  15.557  1.9470 -1.8398 -2.7020
 7891TIP3    H245165   2.075   0.377  15.450 -0.2784  1.2484  0.8037
 7892TIP3   OH245166   0.879   5.005  13.137  0.0427  0.1686  0.4783
 7892TIP3    H145167   0.948   5.006  13.071 -0.3023  1.4291  0.1126
 7892TIP3    H245168   0.798   5.011  13.087 -0.3235 -0.7072  0.9405
 7893TIP3   OH245169   5.755   5.426  12.756  0.1545 -0.3439  0.4958
 7893TIP3    H145170   5.682   5.413  12.696  1.1185 -0.0065 -0.7907
 7893TIP3    H245171   5.761   5.521  12.766 -0.0862 -0.4037  1.2459
 7894TIP3   OH245172   4.525   4.593  14.699 -0.9431  0.4080 -0.9274
 7894TIP3    H145173   4.462   4.655  14.736 -0.6775 -0.1324  0.4974
 7894TIP3    H245174   4.521   4.517  14.758  0.3934  0.0146 -1.3137
 7895TIP3   OH245175   0.385   1.623  11.869  0.1507 -0.3782 -0.3137
 7895TIP3    H145176   0.349   1.534  11.875  0.7161 -0.5675  0.3784
 7895TIP3    H245177   0.315   1.673  11.827  0.1663 -1.3285 -1.5440
 7896TIP3   OH245178   1.340   4.345  13.384  0.2613  0.3011 -0.0975
 7896TIP3    H145179   1.355   4.403  13.459 -1.9329 -0.4001  0.9715
 7896TIP3    H245180   1.308   4.263  13.423  0.2097 -0.5096 -1.7455
 7897TIP3   OH245181   4.769   4.601  12.368 -0.1058 -0.4876  0.4203
 7897TIP3    H145182   4.705   4.561  12.427 -1.1881  0.1910 -0.2671
 7897TIP3    H245183   4.719   4.666  12.319  1.4279  1.1045  0.8967
 7898TIP3   OH245184   1.683   6.192  16.227  0.0134  0.0315 -0.2876
 7898TIP3    H145185   1.609   6.184  16.287 -0.4668 -0.1209 -0.8860
 7898TIP3    H245186   1.702   6.286  16.226 -0.1320  0.0648 -0.0856
 7899TIP3   OH245187   1.643   5.506  13.185  0.3783  0.2794  0.1049
 7899TIP3    H145188   1.657   5.414  13.208  2.1134  0.4524 -0.1400
 7899TIP3    H245189   1.687   5.517  13.101 -1.4680  0.9058 -0.8235
 7900TIP3   OH245190   0.870   3.829  11.483 -0.1233 -0.0839 -0.2468
 7900TIP3    H145191   0.814   3.794  11.552 -0.3191  0.1508 -0.2840
 7900TIP3    H245192   0.918   3.753  11.449 -1.1384 -0.4612 -0.8838
 7901TIP3   OH245193   6.816   2.290   2.756 -0.4658  0.4292 -0.2707
 7901TIP3    H145194   6.850   2.327   2.838  1.6357 -0.2897 -0.7757
 7901TIP3    H245195   6.768   2.212   2.784 -2.4142  1.8096  0.5092
 7902TIP3   OH245196   3.360   4.635  15.987  0.0911  0.5047  0.3440
 7902TIP3    H145197   3.294   4.578  15.947  0.7978  0.9877 -1.6499
 7902TIP3    H245198   3.433   4.577  16.008 -0.8334  0.0031  2.3586
 7903TIP3   OH245199   4.600   5.868  13.676  0.2560 -0.0569 -0.2832
 7903TIP3    H145200   4.548   5.870  13.596  2.0609 -0.5317 -1.5227
 7903TIP3    H245201   4.536   5.879  13.746 -1.2332  1.7185 -1.8194
 7904TIP3   OH245202   1.306   1.334  12.191  0.2040 -0.1679  0.0814
 7904TIP3    H145203   1.238   1.371  12.136 -1.4721 -4.1908 -0.9345
 7904TIP3    H245204   1.384   1.333  12.136 -1.0609 -2.6895 -1.8877
 7905TIP3   OH245205   1.510   3.206  16.388 -0.3313  0.0408 -0.1183
 7905TIP3    H145206   1.601   3.194  16.363  0.1133  1.1118  0.8894
 7905TIP3    H245207   1.512   3.215  16.483 -1.1584  2.4241 -0.2555
 7906TIP3   OH245208   1.120   5.616  12.912  0.5626  0.1682 -0.2152
 7906TIP3    H145209   1.103   5.583  13.000 -1.4405  1.5456 -0.0196
 7906TIP3    H245210   1.190   5.681  12.924 -1.8940  2.8015  1.0436
 7907TIP3   OH245211   6.700   6.294  15.358 -0.0985  0.4448 -0.1742
 7907TIP3    H145212   6.619   6.247  15.339 -0.2947  0.9977 -0.7517
 7907TIP3    H245213   6.750   6.290  15.276  0.7024 -0.3606  0.3434
 7908TIP3   OH245214   6.432   1.992  14.102  0.0442  0.4044  0.0244
 7908TIP3    H145215   6.405   2.060  14.164  0.6858  1.2202 -0.5735
 7908TIP3    H245216   6.419   2.032  14.016  0.2979 -0.2820 -0.3397
 7909TIP3   OH245217   6.638   4.301  16.962 -0.5707  0.0766  0.3446
 7909TIP3    H145218   6.677   4.353  17.033 -0.4547 -0.0144  0.3468
 7909TIP3    H245219   6.560   4.263  17.002  0.1443 -0.9711  0.8011
 7910TIP3   OH245220   0.374   5.462  14.873 -0.0641  0.0826 -0.1927
 7910TIP3    H145221   0.420   5.407  14.809 -1.8515 -1.2936 -0.3655
 7910TIP3    H245222   0.434   5.535  14.890  1.6575 -1.0257 -1.2637
 7911TIP3   OH245223   0.760   5.462  10.142 -0.1454 -0.4283  0.0335
 7911TIP3    H145224   0.782   5.529  10.078 -1.2359  1.4208  1.4997
 7911TIP3    H245225   0.844   5.419  10.160  0.1783 -1.0892 -2.6096
 7912TIP3   OH245226   5.732   2.557  12.624  0.2931  0.1050 -0.2951
 7912TIP3    H145227   5.738   2.514  12.709 -2.7358  0.5738  0.2586
 7912TIP3    H245228   5.804   2.520  12.573  2.2583 -0.1515  2.4308
 7913TIP3   OH245229   0.542   5.353   0.977 -0.1551 -0.2320  0.0459
 7913TIP3    H145230   0.573   5.311   0.897  0.4943  0.1539  0.0889
 7913TIP3    H245231   0.593   5.434   0.983 -2.0968  1.0989 -0.5864
 7914TIP3   OH245232   2.856   2.562  12.048 -0.0402  0.1578 -0.2745
 7914TIP3    H145233   2.766   2.581  12.076 -0.3686  0.8965 -1.7358
 7914TIP3    H245234   2.903   2.644  12.062  1.0344 -0.8390  2.6205
 7915TIP3   OH245235   6.185   5.316   3.160  0.2584  0.1386  0.0610
 7915TIP3    H145236   6.111   5.287   3.213  0.2649  1.8629  1.0723
 7915TIP3    H245237   6.149   5.385   3.104  0.1976 -1.7536 -2.4228
 7916TIP3   OH245238   3.987   5.929   2.717 -0.3769  0.1925  0.1047
 7916TIP3    H145239   3.951   5.981   2.646  0.0854 -1.0371 -1.0818
 7916TIP3    H245240   3.912   5.883   2.754 -0.3701 -0.7317 -0.9657
 7917TIP3   OH245241   0.172   0.215  14.774  0.5772  0.2747 -0.1679
 7917TIP3    H145242   0.085   0.241  14.745  0.7934  0.1285 -0.9702
 7917TIP3    H245243   0.231   0.272  14.725  0.9479  0.1045  0.0779
 7918TIP3   OH245244   1.542   1.093  14.716  0.0924  0.2292  0.4327
 7918TIP3    H145245   1.489   1.132  14.786  1.0319 -0.2928  1.4761
 7918TIP3    H245246   1.629   1.130  14.729  0.4038 -0.2847 -0.1382
 7919TIP3   OH245247   5.439   2.726   2.076 -0.1808 -0.0896  0.3860
 7919TIP3    H145248   5.442   2.814   2.038 -0.6672 -0.2295  0.0191
 7919TIP3    H245249   5.523   2.687   2.053 -0.1806  0.0870  0.0871
 7920TIP3   OH245250   1.854   0.882  12.730 -0.7206 -0.3833 -0.4220
 7920TIP3    H145251   1.882   0.873  12.822 -0.5572  4.0752  0.1944
 7920TIP3    H245252   1.935   0.872  12.680  0.5794  3.3020  0.6130
 7921TIP3   OH245253   5.054   5.977   6.079 -0.7014  0.0093  0.2347
 7921TIP3    H145254   5.056   5.887   6.047  0.8148  0.1058 -0.0541
 7921TIP3    H245255   5.113   5.977   6.155  0.3890  0.9957 -0.5630
 7922TIP3   OH245256   2.216   4.556   0.309 -0.0206 -0.2957 -0.0488
 7922TIP3    H145257   2.231   4.643   0.273 -0.6718  0.5560  1.6125
 7922TIP3    H245258   2.303   4.521   0.325  0.2641  0.7440  0.7934
 7923TIP3   OH245259   2.502   1.455  13.072 -0.0182 -0.2023  0.3867
 7923TIP3    H145260   2.482   1.464  13.165 -1.7959  2.7295 -0.1665
 7923TIP3    H245261   2.576   1.515  13.058 -0.2737 -0.0282 -0.2344
 7924TIP3   OH245262   6.656   0.807   0.322  0.2539 -0.6481 -0.2038
 7924TIP3    H145263   6.675   0.740   0.388  3.4624 -0.3100 -0.6095
 7924TIP3    H245264   6.680   0.766   0.239  1.6020  0.6831 -0.5255
 7925TIP3   OH245265   1.589   3.935   0.806  0.4703 -0.0305 -0.3777
 7925TIP3    H145266   1.590   4.014   0.752  1.7377  0.4097  0.2482
 7925TIP3    H245267   1.643   3.957   0.882  0.3912 -1.3127  0.0763
 7926TIP3   OH245268   2.975   1.008  16.987  0.1902 -0.1939 -0.4058
 7926TIP3    H145269   2.976   0.913  17.000 -2.8314 -0.3224 -0.4776
 7926TIP3    H245270   2.967   1.044  17.076 -1.0465 -0.1492 -0.5219
 7927TIP3   OH245271   1.961   2.304   1.189  0.9602  0.7096  0.0964
 7927TIP3    H145272   2.019   2.374   1.157 -0.4785  2.2289  0.6298
 7927TIP3    H245273   1.876   2.347   1.199 -0.0255 -1.1925  0.3078
 7928TIP3   OH245274   3.278   4.070   1.730 -0.1448  0.4367  0.0744
 7928TIP3    H145275   3.300   4.163   1.726  0.8767  0.2429  0.6585
 7928TIP3    H245276   3.363   4.026   1.740 -0.6693 -0.5095  0.5127
 7929TIP3   OH245277   5.192   1.841  14.222  0.1010 -0.8360  0.1374
 7929TIP3    H145278   5.145   1.923  14.207  0.4216 -0.1701  2.3398
 7929TIP3    H245279   5.124   1.776  14.240 -0.1048 -0.8098 -0.5207
 7930TIP3   OH245280   0.381   3.911  11.568 -0.2197 -0.0454  0.3278
 7930TIP3    H145281   0.398   3.977  11.635 -0.0464 -0.2405  0.4772
 7930TIP3    H245282   0.460   3.910  11.514 -0.8309  0.9777 -0.6249
 7931TIP3   OH245283   6.193   5.248   2.654 -0.9299 -0.1586 -0.1940
 7931TIP3    H145284   6.131   5.265   2.725 -3.0665 -1.1620 -1.7273
 7931TIP3    H245285   6.220   5.335   2.624  0.2027  0.2904  1.9034
 7932TIP3   OH245286   6.672   1.937   5.639 -0.3244  0.2352  0.4698
 7932TIP3    H145287   6.640   1.867   5.696  0.7527  1.0001  2.1225
 7932TIP3    H245288   6.763   1.949   5.665  0.2305  0.6046 -1.4978
 7933TIP3   OH245289   5.764   2.927   1.049 -0.0341  0.1854  0.6723
 7933TIP3    H145290   5.738   3.017   1.031  1.1762  0.3030 -0.6049
 7933TIP3    H245291   5.842   2.935   1.104 -0.7586 -0.1294  1.7916
 7934TIP3   OH245292   6.261   1.188  16.167 -1.0195  0.4190  0.0129
 7934TIP3    H145293   6.206   1.171  16.243  1.0316 -0.3718  1.3870
 7934TIP3    H245294   6.347   1.155  16.191 -0.3987 -0.3243 -2.8688
 7935TIP3   OH245295   1.331   3.956  15.811  0.2252 -0.1490  0.0494
 7935TIP3    H145296   1.342   3.862  15.799  0.3288 -0.1935  0.4647
 7935TIP3    H245297   1.417   3.987  15.842 -0.3002 -0.2250  1.6782
 7936TIP3   OH245298   2.613   2.212  13.623 -0.0481  0.2130  0.1209
 7936TIP3    H145299   2.518   2.218  13.623 -0.2408 -1.8779 -1.5043
 7936TIP3    H245300   2.641   2.278  13.560 -0.5123 -0.0057 -0.3185
 7937TIP3   OH245301   5.351   6.780  11.825  0.6883 -0.1274 -0.4028
 7937TIP3    H145302   5.405   6.812  11.753  1.5693 -0.1799  0.2018
 7937TIP3    H245303   5.395   6.814  11.904  0.1285 -0.6092  0.1281
 7938TIP3   OH245304   1.576   1.477  15.557  0.5044  0.0436  0.2009
 7938TIP3    H145305   1.604   1.388  15.580 -0.7571 -0.6307 -0.7681
 7938TIP3    H245306   1.621   1.496  15.475 -0.9405 -0.6219 -0.7895
 7939TIP3   OH245307   1.681   4.589   5.352 -0.5840 -0.2231  0.2220
 7939TIP3    H145308   1.630   4.508   5.364  0.5005 -1.2617 -1.7122
 7939TIP3    H245309   1.627   4.642   5.294 -0.0284 -0.8509 -0.9112
 7940TIP3   OH245310   0.160   5.589  17.038 -0.5507  0.1386 -0.4467
 7940TIP3    H145311   0.083   5.549  16.998  0.4940 -1.0816 -1.2987
 7940TIP3    H245312   0.235   5.549  16.994  0.6993 -1.3124  2.6667
 7941TIP3   OH245313   3.110   6.820  14.400 -0.2354  0.1350  0.2474
 7941TIP3    H145314   3.158   6.807  14.482 -0.9800  1.7781  0.9853
 7941TIP3    H245315   3.019   6.833  14.427 -0.7400 -0.6351 -0.9589
 7942TIP3   OH245316   2.574   3.810  15.974 -0.7632 -0.2451 -0.1201
 7942TIP3    H145317   2.614   3.779  16.055 -0.7699 -0.0334 -0.0330
 7942TIP3    H245318   2.645   3.807  15.909 -1.1898 -2.0426 -0.5374
 7943TIP3   OH245319   3.843   3.649  14.584 -0.1938 -0.1731 -0.4857
 7943TIP3    H145320   3.789   3.574  14.607 -0.9827 -0.5059 -3.0603
 7943TIP3    H245321   3.815   3.718  14.644 -0.4780 -1.4996  0.9696
 7944TIP3   OH245322   0.881   4.464   0.879  0.4546  0.2732 -0.0253
 7944TIP3    H145323   0.863   4.477   0.786 -0.3115  0.5550  0.1520
 7944TIP3    H245324   0.931   4.541   0.905  0.7653  0.1408 -0.2274
 7945TIP3   OH245325   0.335   3.806  15.766 -0.2993  1.0410 -0.2152
 7945TIP3    H145326   0.428   3.797  15.746 -0.1599  1.1340  0.3705
 7945TIP3    H245327   0.333   3.848  15.852 -0.8847  0.6135 -0.0182
 7946TIP3   OH245328   5.489   5.214  13.137  0.5219 -0.4271  0.3421
 7946TIP3    H145329   5.503   5.282  13.203  0.3240 -0.7996  0.7709
 7946TIP3    H245330   5.569   5.217  13.083 -0.2362  1.3678 -0.7744
 7947TIP3   OH245331   6.558   5.503  15.825 -0.5163 -0.4471 -0.0955
 7947TIP3    H145332   6.476   5.542  15.798 -1.4331 -2.4373 -0.3910
 7947TIP3    H245333   6.552   5.498  15.921  0.1833  1.2498  0.0686
 7948TIP3   OH245334   2.396   6.295  11.344  0.1306 -0.1403 -0.1447
 7948TIP3    H145335   2.465   6.240  11.307 -1.5550 -0.6669 -2.8047
 7948TIP3    H245336   2.375   6.255  11.428  0.9923 -1.7371 -0.6572
 7949TIP3   OH245337   1.604   0.864  15.442  0.5785  0.3943 -0.4913
 7949TIP3    H145338   1.576   0.888  15.354  0.2422  1.6514 -0.0514
 7949TIP3    H245339   1.592   0.943  15.494 -1.4396 -0.9374  1.2388
 7950TIP3   OH245340   1.316   4.604   0.724 -0.5381  0.1136 -0.0835
 7950TIP3    H145341   1.390   4.641   0.773  0.5169 -0.2478 -1.3683
 7950TIP3    H245342   1.315   4.512   0.747 -1.0709  0.2531  0.4983
 7951TIP3   OH245343   5.109   3.281  16.612 -0.3191 -0.5438  0.4019
 7951TIP3    H145344   5.080   3.257  16.524  0.8773 -0.4373 -0.0450
 7951TIP3    H245345   5.199   3.311  16.600  0.4879 -2.1872  1.9145
 7952TIP3   OH245346   3.575   0.640  15.276 -0.4097 -0.0681 -0.1361
 7952TIP3    H145347   3.662   0.640  15.236 -0.4575  0.5011 -0.2474
 7952TIP3    H245348   3.529   0.712  15.234 -0.5468  0.3770  0.7391
 7953TIP3   OH245349   1.746   5.759  14.319  0.4470 -0.1405  0.5429
 7953TIP3    H145350   1.841   5.754  14.308  0.3642 -2.1056  0.3171
 7953TIP3    H245351   1.732   5.738  14.411  0.2123 -0.1626  0.5016
 7954TIP3   OH245352   5.148   6.682  11.504  0.2821  0.1973 -0.5368
 7954TIP3    H145353   5.078   6.683  11.440  0.3348  0.2763 -0.5934
 7954TIP3    H245354   5.105   6.667  11.588  0.4004 -2.2180 -0.8364
 7955TIP3   OH245355   1.180   3.340   1.514  0.0989  0.2970  0.1576
 7955TIP3    H145356   1.203   3.353   1.606 -0.0146  0.3861  0.1733
 7955TIP3    H245357   1.242   3.274   1.483  1.1924  1.4109 -0.1309
 7956TIP3   OH245358   2.920   2.343   1.310  0.4953  0.1700  0.1619
 7956TIP3    H145359   2.844   2.287   1.327 -0.0339  0.5548 -0.8359
 7956TIP3    H245360   2.901   2.424   1.357 -0.1777  0.6140 -0.8347
 7957TIP3   OH245361   5.156   6.151  14.571  0.1895  0.3003  0.2783
 7957TIP3    H145362   5.074   6.119  14.534  0.3528 -0.1738  0.3207
 7957TIP3    H245363   5.219   6.146  14.499 -0.0233  1.5269 -0.0180
 7958TIP3   OH245364   5.708   2.066   5.249 -0.2910 -0.1729 -0.0365
 7958TIP3    H145365   5.765   2.140   5.272  0.3195 -1.1130  1.6540
 7958TIP3    H245366   5.627   2.083   5.296  0.4326 -1.3417  1.7698
 7959TIP3   OH245367   6.666   2.995   5.818  0.5631 -0.1134 -0.0473
 7959TIP3    H145368   6.709   2.997   5.733  0.6865  1.2095  0.0218
 7959TIP3    H245369   6.586   3.047   5.806  1.5075  1.7153  1.0857
 7960TIP3   OH245370   4.537   6.469   6.429 -0.3896  0.5745 -0.6049
 7960TIP3    H145371   4.594   6.399   6.397 -0.4117  0.6978 -0.9114
 7960TIP3    H245372   4.598   6.541   6.448 -0.2893  0.2722  0.2942
 7961TIP3   OH245373   3.757   6.010   4.617  0.5645 -0.0714 -0.0245
 7961TIP3    H145374   3.800   5.938   4.663  1.3546  0.6882  0.4514
 7961TIP3    H245375   3.705   5.967   4.548  0.8607 -1.0988  0.3778
 7962TIP3   OH245376   1.562   2.808  11.388 -0.0227 -0.2713  0.3201
 7962TIP3    H145377   1.626   2.780  11.322  0.0172 -1.8171  0.9704
 7962TIP3    H245378   1.492   2.849  11.338  1.1818  0.9493 -0.4568
 7963TIP3   OH245379   6.388   6.454  11.064  0.2539 -0.1956  0.2894
 7963TIP3    H145380   6.297   6.466  11.037  0.6079 -1.2103 -1.6010
 7963TIP3    H245381   6.439   6.475  10.985  1.6411  0.0447  1.2166
 7964TIP3   OH245382   6.621   0.217   0.415 -0.5571 -0.4206 -0.4677
 7964TIP3    H145383   6.620   0.132   0.372 -1.9141  0.1215 -1.5768
 7964TIP3    H245384   6.559   0.271   0.365 -4.2934 -0.4067  3.5270
 7965TIP3   OH245385   6.816   3.378  15.769  0.0839 -0.2920 -0.0756
 7965TIP3    H145386   6.835   3.386  15.863 -1.9234 -3.4777  0.7764
 7965TIP3    H245387   6.903   3.371  15.728  0.9905  0.1538  1.6720
 7966TIP3   OH245388   4.290   4.408  14.934 -0.3388 -0.2761  0.0876
 7966TIP3    H145389   4.329   4.336  14.983  0.0094 -0.6990 -0.7757
 7966TIP3    H245390   4.248   4.365  14.859 -1.3949  0.2883  0.3297
 7967TIP3   OH245391   5.638   3.523   6.555 -0.3035 -0.0905  0.3152
 7967TIP3    H145392   5.680   3.468   6.489 -1.4012 -3.5915  2.3040
 7967TIP3    H245393   5.709   3.578   6.589  1.4941 -2.0471 -0.0738
 7968TIP3   OH245394   6.112   6.061   3.210  0.0577  0.0130  0.0193
 7968TIP3    H145395   6.120   6.122   3.282 -1.1421  0.5150 -0.2510
 7968TIP3    H245396   6.190   6.076   3.157 -0.0992  1.1477  0.0833
 7969TIP3   OH245397   0.901   5.343   3.185  0.3426  0.0054  0.0747
 7969TIP3    H145398   0.914   5.278   3.115  1.6379  1.0880 -0.7356
 7969TIP3    H245399   0.854   5.415   3.142 -2.7408 -1.0228  1.3897
 7970TIP3   OH245400   0.012   3.344   2.123 -0.0625  0.4846 -0.4184
 7970TIP3    H145401   0.024   3.318   2.215 -0.8438  0.4051 -0.3393
 7970TIP3    H245402   0.030   3.438   2.123 -1.3115  0.7434  0.0662
 7971TIP3   OH245403   6.439   0.037  13.657 -0.1490  0.2110 -0.3145
 7971TIP3    H145404   6.465   0.093  13.585 -0.7879 -0.1227 -0.8125
 7971TIP3    H245405   6.375  -0.024  13.619  2.1680 -2.3840 -0.4006
 7972TIP3   OH245406   1.669   4.313   3.357  0.1649  0.3224  0.5331
 7972TIP3    H145407   1.674   4.408   3.348 -0.4307  0.2332 -1.1612
 7972TIP3    H245408   1.696   4.280   3.272 -0.3593 -0.9955  0.8556
 7973TIP3   OH245409   5.877   4.107   3.296 -0.6662 -0.5764 -0.1226
 7973TIP3    H145410   5.904   4.086   3.206 -0.4331  1.4659 -0.5829
 7973TIP3    H245411   5.782   4.116   3.290 -0.7486 -1.2928  0.0401
 7974TIP3   OH245412   4.624   3.329   1.806 -0.3770  0.6111  0.3129
 7974TIP3    H145413   4.655   3.288   1.725 -2.6844 -0.2269 -0.2160
 7974TIP3    H245414   4.620   3.422   1.786 -1.7943  0.3258 -0.9101
 7975TIP3   OH245415   0.237   3.129   4.257 -0.3384  0.1716 -0.4323
 7975TIP3    H145416   0.309   3.191   4.248  0.7064 -0.9020  0.1467
 7975TIP3    H245417   0.200   3.147   4.344  0.6895 -0.7110  0.2168
 7976TIP3   OH245418   6.415   3.694  14.070 -0.4197 -0.0665 -0.2330
 7976TIP3    H145419   6.466   3.764  14.028  0.2562  0.6863  1.6949
 7976TIP3    H245420   6.324   3.723  14.062 -0.1047  1.4397  1.1340
 7977TIP3   OH245421   0.837   2.808  12.911  0.3202  0.2696  0.4311
 7977TIP3    H145422   0.905   2.875  12.915 -0.7096  1.2781  2.1452
 7977TIP3    H245423   0.760   2.855  12.879 -0.5439  0.0593  2.1110
 7978TIP3   OH245424   5.709   1.737  15.681  0.0984 -0.0459 -0.6822
 7978TIP3    H145425   5.620   1.710  15.702  0.4280  0.3098  1.4059
 7978TIP3    H245426   5.703   1.832  15.670  0.5475  0.3399  1.8275
 7979TIP3   OH245427   1.981   5.606  11.867 -0.6206 -0.3144 -0.4864
 7979TIP3    H145428   1.979   5.644  11.779 -1.5567  1.3619  0.2227
 7979TIP3    H245429   1.960   5.679  11.925 -1.9310 -1.7944  0.9982
 7980TIP3   OH245430   1.493   5.314  12.875 -0.1518  0.6586 -0.0645
 7980TIP3    H145431   1.456   5.231  12.847  0.3156  0.0546  1.0629
 7980TIP3    H245432   1.446   5.335  12.956  0.1381  1.2067 -0.0354
 7981TIP3   OH245433   5.852   4.225  11.996  0.2584  0.5143 -0.2950
 7981TIP3    H145434   5.904   4.248  12.073  0.1662  0.6280 -0.2657
 7981TIP3    H245435   5.810   4.308  11.971  0.0364  0.4082 -0.2762
 7982TIP3   OH245436   4.570   3.312   1.342  0.3031 -0.0688  0.3615
 7982TIP3    H145437   4.616   3.395   1.352 -0.6806  0.3958  1.2742
 7982TIP3    H245438   4.493   3.320   1.399  1.0876 -2.2683  1.8972
 7983TIP3   OH245439   3.920   2.441  10.912 -0.6553 -0.8855 -0.2732
 7983TIP3    H145440   3.951   2.524  10.875 -1.7717 -0.5205 -0.4167
 7983TIP3    H245441   3.945   2.375  10.847 -3.3954 -0.1521 -2.2455
 7984TIP3   OH245442   3.183   3.981   1.481  0.0430  0.1234 -0.0497
 7984TIP3    H145443   3.218   4.035   1.552  0.8198 -0.8074  0.3010
 7984TIP3    H245444   3.239   4.001   1.406  0.1581  0.0273  0.0083
 7985TIP3   OH245445   4.869   3.279  13.209  0.3482  0.2104 -0.5945
 7985TIP3    H145446   4.863   3.262  13.303 -1.9317  0.4584 -0.6427
 7985TIP3    H245447   4.950   3.327  13.199  2.1922 -2.3311  0.8100
 7986TIP3   OH245448   3.598   3.876   4.007 -0.0641  0.7313 -0.0954
 7986TIP3    H145449   3.619   3.804   4.066 -0.3460  2.9410  2.9976
 7986TIP3    H245450   3.681   3.923   3.996 -0.4506  1.5839  0.4636
 7987TIP3   OH245451   4.304   2.657  13.270 -0.3663 -0.1271 -0.1848
 7987TIP3    H145452   4.314   2.713  13.193 -2.7680 -0.8173 -1.0779
 7987TIP3    H245453   4.385   2.606  13.273  0.5224  1.1383 -1.1957
 7988TIP3   OH245454   6.141   6.103   5.352 -0.3056  0.6746  0.6270
 7988TIP3    H145455   6.133   6.198   5.344 -0.1553  0.5543 -2.0202
 7988TIP3    H245456   6.070   6.069   5.297  0.5186 -0.7082  0.3730
 7989TIP3   OH245457   6.027   1.527  12.518  0.2286  0.0221 -0.0497
 7989TIP3    H145458   5.953   1.468  12.504  0.4157  0.0228 -1.1403
 7989TIP3    H245459   6.029   1.582  12.440  1.0851  0.3385  0.1843
 7990TIP3   OH245460   2.054   1.396   2.229  0.2927 -0.2271 -0.5735
 7990TIP3    H145461   1.968   1.365   2.257  0.7404 -0.8020  0.1928
 7990TIP3    H245462   2.044   1.491   2.221  0.1742 -0.0021  1.6676
 7991TIP3   OH245463   1.763   4.340  14.684 -0.1853 -0.3303  0.0690
 7991TIP3    H145464   1.676   4.312  14.711 -0.6349  0.5216 -0.4484
 7991TIP3    H245465   1.756   4.358  14.591 -0.4382  3.0640  0.6044
 7992TIP3   OH245466   5.054   0.830  16.279 -0.2167 -0.3445  0.5741
 7992TIP3    H145467   5.137   0.872  16.302 -1.1633  0.1962  3.3951
 7992TIP3    H245468   4.987   0.890  16.311 -1.7523 -0.9513 -1.2886
 7993TIP3   OH245469   0.678   0.663   3.111 -0.1009  0.0171 -0.2347
 7993TIP3    H145470   0.630   0.702   3.039  0.2539  2.1871  0.6483
 7993TIP3    H245471   0.769   0.690   3.096 -0.0452  0.5881  1.0718
 7994TIP3   OH245472   0.884   6.412  15.521  0.0364 -0.3281  0.4590
 7994TIP3    H145473   0.867   6.435  15.429  1.9032  0.2730  0.2370
 7994TIP3    H245474   0.933   6.330  15.517 -2.4310 -1.9705  1.0971
 7995TIP3   OH245475   3.304   4.751   6.643 -0.2029  0.1490  0.4003
 7995TIP3    H145476   3.358   4.745   6.564  0.5362 -0.5362  0.9472
 7995TIP3    H245477   3.297   4.845   6.661 -2.6181  0.5615 -1.9745
 7996TIP3   OH245478   6.028   3.582  15.391  0.4021  0.7086  0.4802
 7996TIP3    H145479   6.062   3.522  15.457 -1.2069 -1.2826 -0.3929
 7996TIP3    H245480   5.973   3.643  15.441 -1.2773 -1.1234  1.0395
 7997TIP3   OH245481   5.387   0.042  13.647  0.6741 -0.0747 -0.1597
 7997TIP3    H145482   5.311   0.050  13.704  1.5102 -0.2914  1.0052
 7997TIP3    H245483   5.385  -0.049  13.616  0.1499  0.0798 -0.6036
 7998TIP3   OH245484   4.736   2.490  11.231 -0.0415  0.0787 -0.2113
 7998TIP3    H145485   4.758   2.496  11.324 -0.4913  0.9207 -0.1517
 7998TIP3    H245486   4.812   2.529  11.187  0.3241 -0.6313 -0.2218
 7999TIP3   OH245487   1.416   0.403  12.865  0.6028 -0.1372 -0.1895
 7999TIP3    H145488   1.483   0.336  12.851  0.2322 -0.3707 -0.8728
 7999TIP3    H245489   1.367   0.372  12.941 -0.4634 -1.4025 -1.3353
 8000TIP3   OH245490   5.026   3.238   5.338 -0.2433  0.4323  0.0487
 8000TIP3    H145491   4.941   3.280   5.330 -0.4933 -0.1677 -0.5593
 8000TIP3    H245492   5.061   3.236   5.249  1.0183  1.8808  0.4715
 8001TIP3   OH245493   3.275   6.343  16.259 -0.1943 -0.2462 -0.4266
 8001TIP3    H145494   3.222   6.415  16.292 -0.4813  0.1155 -1.6190
 8001TIP3    H245495   3.365   6.366  16.283 -0.2463  0.6968 -1.0711
 8002TIP3   OH245496   6.602   3.459  13.691  0.0474  0.0961  0.4193
 8002TIP3    H145497   6.565   3.372  13.702 -2.6193  0.9801 -0.8085
 8002TIP3    H245498   6.633   3.462  13.601 -1.3848  0.8775 -0.0840
 8003TIP3   OH245499   4.246   4.076   0.086 -0.1904 -0.0254  0.0594
 8003TIP3    H145500   4.226   3.989   0.052 -0.2666 -0.3970  1.0279
 8003TIP3    H245501   4.223   4.072   0.178  3.2169 -0.1415  1.0491
 8004TIP3   OH245502   4.660   2.416  14.629  0.1036  0.4884  1.3221
 8004TIP3    H145503   4.601   2.379  14.695 -1.9640 -0.6992 -1.0373
 8004TIP3    H245504   4.629   2.505  14.617 -1.9765 -0.4070 -0.5708
 8005TIP3   OH245505   6.472   1.123   5.639  0.6411 -0.4549 -0.0400
 8005TIP3    H145506   6.422   1.203   5.657  1.4995 -0.1748  1.2760
 8005TIP3    H245507   6.424   1.079   5.569 -0.3741  0.7384 -0.1218
 8006TIP3   OH245508   6.760   1.386  16.903  0.1437  0.0796 -0.2483
 8006TIP3    H145509   6.686   1.358  16.957  2.3435 -1.4817  2.1833
 8006TIP3    H245510   6.759   1.481  16.909  0.0973 -0.0198  2.3782
 8007TIP3   OH245511   6.189   5.304   5.529 -0.4413 -0.4160  0.5172
 8007TIP3    H145512   6.115   5.336   5.477 -1.7694 -1.2950  1.7892
 8007TIP3    H245513   6.227   5.234   5.475 -1.4319 -0.9279  0.4682
 8008TIP3   OH245514   2.182   5.711  13.377 -0.5974  0.6016  0.0125
 8008TIP3    H145515   2.139   5.631  13.407 -0.0618  0.5117  0.5778
 8008TIP3    H245516   2.117   5.780  13.388 -1.2608  0.1631 -1.0160
 8009TIP3   OH245517   2.512   0.709  12.415  0.5259 -0.2693  0.6023
 8009TIP3    H145518   2.456   0.647  12.461  1.3935  0.9099  3.4290
 8009TIP3    H245519   2.466   0.793  12.421  1.5631  0.2851  1.0349
 8010TIP3   OH245520   3.464   4.481   1.466 -0.1989  0.0367  0.6860
 8010TIP3    H145521   3.381   4.477   1.420 -0.8798 -0.2694  1.9024
 8010TIP3    H245522   3.497   4.391   1.464 -0.8095 -0.2285  1.7975
 8011TIP3   OH245523   1.300   5.096   3.010  0.5008  0.4919  0.6295
 8011TIP3    H145524   1.332   5.005   3.010  0.9092  0.4752 -2.8302
 8011TIP3    H245525   1.295   5.120   3.102  2.2324 -2.3964  1.6200
 8012TIP3   OH245526   4.112   4.377  14.683 -0.1441  0.3267  0.3535
 8012TIP3    H145527   4.044   4.427  14.637 -1.3465  0.5058  2.2336
 8012TIP3    H245528   4.193   4.398  14.636 -1.0629  1.7768 -0.6575
 8013TIP3   OH245529   5.266   2.881   5.281 -0.1804 -0.3396 -0.5913
 8013TIP3    H145530   5.259   2.947   5.351 -3.0836 -0.5527 -0.5811
 8013TIP3    H245531   5.351   2.839   5.297  1.1109  2.3444  0.2847
 8014TIP3   OH245532   1.727   5.748  12.282 -0.0370 -0.1456 -0.0244
 8014TIP3    H145533   1.678   5.680  12.237  2.2442 -1.5163 -0.5910
 8014TIP3    H245534   1.770   5.798  12.212  1.9334 -1.0448  0.4604
 8015TIP3   OH245535   1.425   3.777  14.477 -0.3899 -0.2237  0.4847
 8015TIP3    H145536   1.511   3.776  14.517 -0.4147 -0.6435  0.5305
 8015TIP3    H245537   1.422   3.858  14.427 -0.9702  1.1734  2.6545
 8016TIP3   OH245538   1.843   4.957   4.812 -0.0741  0.3651 -0.0918
 8016TIP3    H145539   1.758   4.955   4.769 -0.4407  2.2407  0.4657
 8016TIP3    H245540   1.903   4.992   4.747 -0.0450  0.5205  0.0187
 8017TIP3   OH245541   1.136   3.674   1.203  0.4245  0.0017  0.1621
 8017TIP3    H145542   1.130   3.768   1.221 -0.1570  0.0418 -0.2271
 8017TIP3    H245543   1.205   3.666   1.137  0.6321  0.1266  0.3610
 8018TIP3   OH245544   2.368   1.303   2.537  0.1558  0.4753 -0.0390
 8018TIP3    H145545   2.433   1.267   2.477 -1.3670  1.3604 -2.3580
 8018TIP3    H245546   2.284   1.276   2.500 -0.8731  1.6070  1.3535
 8019TIP3   OH245547   0.705   1.829  14.589  0.3160  0.5456  0.2403
 8019TIP3    H145548   0.699   1.747  14.639 -0.1767  1.1816  1.2530
 8019TIP3    H245549   0.629   1.827  14.530  0.7200 -0.0582 -0.2743
 8020TIP3   OH245550   0.162   5.838   4.319  0.5327  0.1084 -0.6078
 8020TIP3    H145551   0.163   5.754   4.365 -0.1655 -0.2667 -1.2580
 8020TIP3    H245552   0.202   5.820   4.234  2.3171  0.9197  0.0154
 8021TIP3   OH245553   3.724   2.482  14.323  0.5889  0.5138  0.0831
 8021TIP3    H145554   3.818   2.478  14.305  0.2821  1.6603 -2.3061
 8021TIP3    H245555   3.683   2.476  14.236 -1.8254 -3.9486  1.2224
 8022TIP3   OH245556   2.897   1.163   4.829 -0.4701 -0.0914 -0.6762
 8022TIP3    H145557   2.966   1.195   4.772  0.8327 -0.4158  0.6509
 8022TIP3    H245558   2.868   1.241   4.877  0.6828 -0.3268  0.4728
 8023TIP3   OH245559   3.496   0.952  14.209 -0.2238 -0.0007 -0.0394
 8023TIP3    H145560   3.591   0.949  14.196 -0.2651 -2.8394 -0.3153
 8023TIP3    H245561   3.478   0.886  14.275 -2.0053  0.8546  0.4170
 8024TIP3   OH245562   1.856   0.270   2.053  0.1575  0.0743  0.0192
 8024TIP3    H145563   1.798   0.219   1.997 -0.2766  0.8328 -0.2373
 8024TIP3    H245564   1.939   0.223   2.050  0.4285  0.5780 -2.0039
 8025TIP3   OH245565   1.230   4.928   1.911  0.3185  0.0862 -0.0936
 8025TIP3    H145566   1.300   4.993   1.907 -0.4250  0.8544 -2.6409
 8025TIP3    H245567   1.242   4.884   1.995  2.3122  1.8784  0.6314
 8026TIP3   OH245568   0.962   0.532   2.442 -0.1877  0.3592 -0.3597
 8026TIP3    H145569   0.995   0.531   2.532  1.8755  0.3187 -1.0510
 8026TIP3    H245570   0.877   0.575   2.447 -0.3758 -0.1654  1.6766
 8027TIP3   OH245571   5.120   6.715  13.260 -0.2527  0.3048  0.0786
 8027TIP3    H145572   5.098   6.630  13.299  1.3421  0.0643  0.5478
 8027TIP3    H245573   5.039   6.765  13.264 -0.9215 -0.7870  0.8826
 8028TIP3   OH245574   3.303   5.527  10.496  0.1503 -0.4319  0.0232
 8028TIP3    H145575   3.274   5.467  10.427 -2.2952  0.1496  0.4752
 8028TIP3    H245576   3.304   5.473  10.575  2.7698 -1.0493 -0.3280
 8029TIP3   OH245577   0.815   4.446  12.168  0.1471  0.2038  0.1405
 8029TIP3    H145578   0.737   4.500  12.161  0.0191 -0.0948 -0.9530
 8029TIP3    H245579   0.882   4.505  12.202 -0.8598  0.1202  2.4285
 8030TIP3   OH245580   0.946   4.191   0.892 -0.1092 -0.0143  0.2455
 8030TIP3    H145581   0.929   4.143   0.972 -2.5950  0.2589 -0.0519
 8030TIP3    H245582   0.911   4.279   0.908 -0.0274  0.2489 -0.8910
 8031TIP3   OH245583   0.970   1.027  13.875  0.3366  0.8020 -0.0808
 8031TIP3    H145584   1.066   1.026  13.874  0.3459 -0.7352 -0.0769
 8031TIP3    H245585   0.947   1.038  13.967  0.4993  1.0560 -0.0687
 8032TIP3   OH245586   1.506   3.476  16.536  0.1553  0.1144  0.2606
 8032TIP3    H145587   1.499   3.570  16.523  2.5127  0.3846  0.4857
 8032TIP3    H245588   1.419   3.449  16.567 -1.0581  1.9006 -1.3619
 8033TIP3   OH245589   0.973   5.779  12.496 -0.4081 -0.0452 -0.5749
 8033TIP3    H145590   0.926   5.863  12.497  0.9109  0.7169  0.0330
 8033TIP3    H245591   0.915   5.720  12.449 -0.0232  2.0027 -3.9525
 8034TIP3   OH245592   1.182   5.033   5.262 -0.2988  0.3351 -0.0663
 8034TIP3    H145593   1.237   5.019   5.339  0.9602 -1.8031 -1.2552
 8034TIP3    H245594   1.096   5.054   5.297  0.2427 -0.5759  1.9435
 8035TIP3   OH245595   0.530   2.754   0.997  0.0494 -0.0502  0.5153
 8035TIP3    H145596   0.451   2.715   1.036 -0.4677  0.1000 -0.3603
 8035TIP3    H245597   0.560   2.818   1.062  0.2143 -1.0309  1.4392
 8036TIP3   OH245598   3.476   1.018   1.898  0.1898 -0.4462  0.6392
 8036TIP3    H145599   3.413   0.954   1.931 -0.9999  0.2764 -0.1601
 8036TIP3    H245600   3.425   1.076   1.841  1.0012  1.7560  1.9790
 8037TIP3   OH245601   1.894   3.765  10.099  0.0159 -0.1268  0.4331
 8037TIP3    H145602   1.801   3.783  10.113 -0.1523 -0.7343  0.1343
 8037TIP3    H245603   1.939   3.841  10.135 -0.6772  1.0307 -1.0403
 8038TIP3   OH245604   6.088   6.372  16.316 -0.5136  0.2581 -1.2506
 8038TIP3    H145605   6.123   6.455  16.284  1.3275 -0.1912 -0.4916
 8038TIP3    H245606   6.136   6.306  16.267  1.2027 -0.4111  1.1983
 8039TIP3   OH245607   4.121   0.279   4.501  0.2338 -0.7200  0.4930
 8039TIP3    H145608   4.212   0.292   4.473  0.2705 -1.8089  0.0664
 8039TIP3    H245609   4.073   0.263   4.421 -0.4324  0.2932  0.6778
 8040TIP3   OH245610   1.064   1.185  10.507  0.7676  0.6954  0.4426
 8040TIP3    H145611   0.969   1.191  10.496  0.7966  0.0060 -0.2442
 8040TIP3    H245612   1.084   1.248  10.577 -0.1727  0.9381  0.5051
 8041TIP3   OH245613   3.467   5.665   3.676  0.1860  0.2922  0.3875
 8041TIP3    H145614   3.389   5.621   3.710  0.4745  1.9246  3.5482
 8041TIP3    H245615   3.511   5.600   3.622 -2.0514 -1.4738  0.5618
 8042TIP3   OH245616   5.007   4.512  16.783  0.1399  0.3296 -0.4994
 8042TIP3    H145617   5.080   4.570  16.804  0.7334 -0.3820 -0.5718
 8042TIP3    H245618   4.999   4.516  16.688 -0.9703  1.6525 -0.3795
 8043TIP3   OH245619   5.538   3.337   0.894  0.6123 -0.3519 -0.3944
 8043TIP3    H145620   5.447   3.362   0.911  0.2349 -2.5789  1.4147
 8043TIP3    H245621   5.539   3.311   0.803 -0.8157 -1.1596 -0.2058
 8044TIP3   OH245622   1.762   4.584   2.952 -0.0960 -0.6109 -0.3787
 8044TIP3    H145623   1.793   4.663   2.995  0.0326 -1.2493  0.7394
 8044TIP3    H245624   1.680   4.611   2.909  0.0976  0.1920 -0.2608
 8045TIP3   OH245625   4.498   3.451  10.211 -0.2485 -0.1626  0.1820
 8045TIP3    H145626   4.582   3.416  10.183  0.8024  3.0720 -1.2866
 8045TIP3    H245627   4.515   3.489  10.297 -0.7380 -1.1560  0.7250
 8046TIP3   OH245628   4.623   1.834  11.919 -0.2971  0.0628 -0.5345
 8046TIP3    H145629   4.618   1.902  11.986 -0.3350 -0.6424  0.2018
 8046TIP3    H245630   4.620   1.881  11.836  2.2720  1.1731 -0.0983
 8047TIP3   OH245631   5.159   4.849  15.622  0.1623  0.1812  0.1608
 8047TIP3    H145632   5.175   4.757  15.604 -0.9397  0.0742 -0.4021
 8047TIP3    H245633   5.067   4.862  15.597  0.5842  1.6590 -0.7287
 8048TIP3   OH245634   6.419   0.510  11.536 -0.0176  0.4416 -0.0059
 8048TIP3    H145635   6.466   0.594  11.531 -0.7215  0.7998 -0.8939
 8048TIP3    H245636   6.482   0.450  11.576  1.0068  1.0546 -0.6391
 8049TIP3   OH245637   5.566   6.782   0.833 -0.4172  0.1290  0.2099
 8049TIP3    H145638   5.631   6.824   0.890 -0.8845  0.3476  0.5850
 8049TIP3    H245639   5.512   6.730   0.892  0.0870 -0.9401 -0.2389
 8050TIP3   OH245640   3.174   5.508  16.555  0.3093  0.5705 -0.1304
 8050TIP3    H145641   3.226   5.449  16.500  0.5894  0.4564  0.2533
 8050TIP3    H245642   3.232   5.529  16.628  0.1496  1.1929 -0.1813
 8051TIP3   OH245643   6.665   0.959   5.754 -0.1187  0.1177  0.5057
 8051TIP3    H145644   6.621   0.966   5.838 -0.7573 -0.6112  0.2402
 8051TIP3    H245645   6.611   1.008   5.693  0.6529  1.1457  0.6191
 8052TIP3   OH245646   0.890   1.913   1.927 -0.2369 -0.4251  0.1301
 8052TIP3    H145647   0.826   1.880   1.991  2.0298 -0.0168  2.7959
 8052TIP3    H245648   0.945   1.838   1.907 -1.1629 -0.6549 -1.7922
 8053TIP3   OH245649   6.043   3.280   5.639  0.0608  0.3026  0.5557
 8053TIP3    H145650   6.056   3.336   5.715 -0.8801  1.1438  0.1036
 8053TIP3    H245651   6.006   3.199   5.675 -1.7048  1.2065  0.8681
 8054TIP3   OH245652   6.296   3.396   2.115  0.1421  0.3774  0.1822
 8054TIP3    H145653   6.321   3.308   2.143 -1.6548  0.3600  1.9550
 8054TIP3    H245654   6.310   3.396   2.020  2.0337 -1.1428  0.3965
 8055TIP3   OH245655   2.639   4.068  15.299 -0.0066 -0.3856  0.1105
 8055TIP3    H145656   2.551   4.095  15.326 -0.1937 -0.5180 -0.3669
 8055TIP3    H245657   2.658   3.992  15.355 -0.6150 -0.9964 -0.4929
 8056TIP3   OH245658   2.664   3.804  11.495  0.4742 -0.5327 -0.2190
 8056TIP3    H145659   2.738   3.808  11.434  1.0326 -2.1656  0.2971
 8056TIP3    H245660   2.674   3.719  11.539 -1.9908 -1.0348 -0.4888
 8057TIP3   OH245661   5.437   6.778   2.480 -0.4090 -0.0661  0.5921
 8057TIP3    H145662   5.528   6.755   2.460 -1.1296 -2.0290 -0.8359
 8057TIP3    H245663   5.433   6.778   2.575  1.1001  0.0821  0.6845
 8058TIP3   OH245664   2.118   5.586  16.132 -0.3000  0.2371  0.2615
 8058TIP3    H145665   2.136   5.521  16.200 -0.6118 -0.7969 -0.6181
 8058TIP3    H245666   2.031   5.619  16.153 -0.2847  0.1179  0.5208
 8059TIP3   OH245667   5.644   1.114  17.197  0.0661  0.4322 -0.1828
 8059TIP3    H145668   5.669   1.041  17.253  1.1781  0.3308 -0.7951
 8059TIP3    H245669   5.725   1.165  17.186 -0.5508  1.4374 -0.2416
 8060TIP3   OH245670   0.950   4.585  12.810 -0.0100  0.1348 -0.0977
 8060TIP3    H145671   1.039   4.559  12.831 -0.6767 -0.4370  2.2413
 8060TIP3    H245672   0.900   4.503  12.810 -0.7438  0.5703 -0.2603
 8061TIP3   OH245673   5.166   0.517   6.173  0.6627 -0.5809  0.2914
 8061TIP3    H145674   5.117   0.539   6.094  1.1921 -0.0338  0.1104
 8061TIP3    H245675   5.100   0.513   6.242  0.4414  0.9195  0.2034
 8062TIP3   OH245676   5.930   6.463  13.132 -0.2255  0.7033 -0.1478
 8062TIP3    H145677   5.894   6.491  13.047 -2.6608  0.4161  0.7094
 8062TIP3    H245678   5.918   6.539  13.189  1.3339  0.8646  0.0054
 8063TIP3   OH245679   5.788   3.719   5.228 -0.1825 -0.2600  0.1451
 8063TIP3    H145680   5.882   3.713   5.245  0.2543  0.2920 -1.8356
 8063TIP3    H245681   5.747   3.686   5.309  1.6433  1.5353  1.9401
 8064TIP3   OH245682   0.668   2.113  14.330 -0.2464  0.1459  0.6580
 8064TIP3    H145683   0.644   2.098  14.421  0.5236  0.2811  0.8959
 8064TIP3    H245684   0.763   2.103  14.329 -0.2566  0.0521 -0.1509
 8065TIP3   OH245685   2.011   4.995  12.575 -0.4420 -0.3129 -0.1427
 8065TIP3    H145686   2.084   5.054  12.594  0.2602  0.4403 -4.3535
 8065TIP3    H245687   1.934   5.051  12.578 -0.4591 -0.3706  0.9404
 8066TIP3   OH245688   5.252   2.027   6.594 -0.2938 -0.0953  0.8067
 8066TIP3    H145689   5.172   2.012   6.645 -0.5087 -1.1134  0.2046
 8066TIP3    H245690   5.306   1.951   6.614  0.4359  0.4707  1.0183
 8067TIP3   OH245691   3.582   1.363  15.806 -0.2996  0.1589  0.1569
 8067TIP3    H145692   3.567   1.280  15.762 -1.9629  0.6686 -0.3160
 8067TIP3    H245693   3.533   1.428  15.754 -0.7885  1.0711  1.6673
 8068TIP3   OH245694   2.953   2.740  13.236 -1.0457 -0.1600 -0.1326
 8068TIP3    H145695   3.013   2.733  13.310  0.1251  2.2465 -0.7498
 8068TIP3    H245696   3.002   2.704  13.162 -1.5822 -1.0476 -0.0673
 8069TIP3   OH245697   4.152   3.743   6.676 -0.0259 -0.0449 -0.3565
 8069TIP3    H145698   4.075   3.784   6.638  0.1486 -0.9419 -1.7590
 8069TIP3    H245699   4.157   3.657   6.634  1.4268 -0.2170  0.0970
 8070TIP3   OH245700   6.692   1.838  12.463 -0.6995 -0.0888  0.9341
 8070TIP3    H145701   6.737   1.843  12.379  0.1643 -2.5745  1.1757
 8070TIP3    H245702   6.744   1.893  12.521  0.7904 -1.1504  0.6591
 8071TIP3   OH245703   4.208   1.714   4.384  0.1050 -0.1134  0.3887
 8071TIP3    H145704   4.172   1.788   4.433  0.8956  0.4322  0.1683
 8071TIP3    H245705   4.133   1.675   4.340 -0.0314  2.0043 -1.4149
 8072TIP3   OH245706   5.910   0.679  17.148 -0.4847 -0.2676 -0.1284
 8072TIP3    H145707   5.947   0.756  17.106  0.5751 -0.5278  0.3080
 8072TIP3    H245708   5.981   0.642  17.200 -1.3015 -0.8896  0.5909
 8073TIP3   OH245709   0.362   5.792   5.845 -0.1031  0.2065  0.0866
 8073TIP3    H145710   0.340   5.723   5.907 -0.0542 -1.2868 -1.4995
 8073TIP3    H245711   0.440   5.759   5.799  1.4386  2.4061  0.9570
 8074TIP3   OH245712   4.564   2.800  16.438  0.1497  0.2532 -0.2157
 8074TIP3    H145713   4.530   2.711  16.440  0.1198  0.2485  2.1770
 8074TIP3    H245714   4.492   2.853  16.404 -0.8902 -0.2772  1.0726
 8075TIP3   OH245715   6.035   5.229   0.621 -0.4389 -0.0017 -0.3246
 8075TIP3    H145716   6.118   5.211   0.576  0.2860 -0.5062  1.1332
 8075TIP3    H245717   5.970   5.231   0.551  0.4012 -2.1422 -1.2723
 8076TIP3   OH245718   4.806   5.973   2.583 -0.4772  0.5494  0.0376
 8076TIP3    H145719   4.816   6.049   2.641  0.7029  0.3900  0.0581
 8076TIP3    H245720   4.886   5.922   2.596 -0.7899 -0.1620 -0.7601
 8077TIP3   OH245721   2.967   0.695  10.570  0.4986  0.1260 -0.2834
 8077TIP3    H145722   2.986   0.782  10.607  1.5129  0.0415 -0.5874
 8077TIP3    H245723   3.039   0.678  10.510  0.1620 -0.8181 -0.4319
 8078TIP3   OH245724   2.259   1.823   2.213  0.2873 -0.3079 -0.5232
 8078TIP3    H145725   2.321   1.877   2.164 -0.0152 -1.2199 -1.9531
 8078TIP3    H245726   2.296   1.820   2.302  0.2988  2.2342 -0.3568
 8079TIP3   OH245727   2.769   1.410  15.196 -0.2591  0.1520 -0.0048
 8079TIP3    H145728   2.699   1.355  15.230 -0.7757 -0.3801 -1.7986
 8079TIP3    H245729   2.811   1.447  15.274 -2.6621  0.6816  1.1155
 8080TIP3   OH245730   3.458   0.168   4.918 -0.3122  0.1837 -0.1540
 8080TIP3    H145731   3.372   0.201   4.893  0.1893  1.4761 -0.2710
 8080TIP3    H245732   3.483   0.110   4.846 -0.5782  0.7619 -0.7256
 8081TIP3   OH245733   3.178   4.115  12.453  0.2144  0.0110  0.1701
 8081TIP3    H145734   3.232   4.075  12.522  1.5188  1.2695 -0.0820
 8081TIP3    H245735   3.221   4.198  12.435  0.2425 -0.5293 -2.5920
 8082TIP3   OH245736   1.081   0.221   4.966  0.2486 -0.7069  0.0329
 8082TIP3    H145737   1.136   0.258   4.897  0.7105 -1.6302 -0.1129
 8082TIP3    H245738   1.114   0.260   5.047  0.0728 -0.0485 -0.2051
 8083TIP3   OH245739   1.482   5.816   0.186 -0.0458  0.8260 -0.7506
 8083TIP3    H145740   1.495   5.837   0.093 -0.9452 -1.3644 -1.4358
 8083TIP3    H245741   1.401   5.862   0.209  0.3290  1.6077 -0.9386
 8084TIP3   OH245742   3.183   1.538  16.293  0.5276 -0.0884  0.7748
 8084TIP3    H145743   3.263   1.497  16.326  0.6492 -1.0536 -0.6192
 8084TIP3    H245744   3.161   1.488  16.215  0.4611  2.2408 -0.8238
 8085TIP3   OH245745   1.913   2.790  16.741 -0.3974  0.1863 -0.1067
 8085TIP3    H145746   1.968   2.789  16.663 -1.1120  0.2671 -0.6226
 8085TIP3    H245747   1.959   2.735  16.804  0.5006  0.6269 -0.3643
 8086TIP3   OH245748   3.116   6.245  16.863  0.0213  0.2908  0.7586
 8086TIP3    H145749   3.133   6.190  16.787 -0.6030  0.1454  0.7192
 8086TIP3    H245750   3.145   6.192  16.938 -1.2941 -0.4310  0.7889
 8087TIP3   OH245751   2.033   3.716  12.577 -0.2068 -0.3728  0.0612
 8087TIP3    H145752   2.012   3.623  12.569 -0.4261 -0.2200 -1.2750
 8087TIP3    H245753   2.127   3.718  12.596 -0.3249 -0.8799  0.7372
 8088TIP3   OH245754   5.413   1.338   3.857  0.1390 -0.3878  0.0578
 8088TIP3    H145755   5.504   1.347   3.826  0.4688 -0.7723  0.8867
 8088TIP3    H245756   5.421   1.320   3.951 -0.8429  0.5996  0.3488
 8089TIP3   OH245757   5.796   2.498   6.543  0.0521 -0.1175  0.2051
 8089TIP3    H145758   5.838   2.510   6.628 -0.2707  0.7093  0.2573
 8089TIP3    H245759   5.861   2.528   6.480 -0.8524  2.3419  0.3492
 8090TIP3   OH245760   0.552   2.500  15.054  0.9279  0.4274  0.3231
 8090TIP3    H145761   0.555   2.414  15.012  0.6016  0.8970 -0.6971
 8090TIP3    H245762   0.624   2.549  15.013 -0.3952  1.4214 -0.9249
 8091TIP3   OH245763   0.851   0.738  12.595 -0.0340  0.6054 -0.3836
 8091TIP3    H145764   0.851   0.702  12.506 -1.9357 -1.4115  0.3157
 8091TIP3    H245765   0.863   0.661  12.651  0.3806  1.7376  1.1284
 8092TIP3   OH245766   0.280   6.066  14.551  0.5058 -0.0162 -0.0529
 8092TIP3    H145767   0.279   5.975  14.578 -0.7682 -0.2334 -0.7294
 8092TIP3    H245768   0.292   6.063  14.456 -0.2693  0.4591 -0.1796
 8093TIP3   OH245769   2.228   1.947   3.507  0.1324 -0.0086  0.1635
 8093TIP3    H145770   2.248   1.917   3.418 -1.7017  4.7401 -2.2308
 8093TIP3    H245771   2.149   1.900   3.531  0.1708 -0.7837 -1.1253
 8094TIP3   OH245772   3.238   0.282   2.211  0.3693 -0.4252 -0.5723
 8094TIP3    H145773   3.329   0.259   2.226 -0.2057 -1.6317  1.4878
 8094TIP3    H245774   3.196   0.199   2.186 -0.5645 -0.4140  0.8191
 8095TIP3   OH245775   4.701   4.066   4.809 -0.0891 -0.0681 -0.0235
 8095TIP3    H145776   4.767   4.016   4.761  1.2731  0.5718  1.1238
 8095TIP3    H245777   4.653   4.113   4.741  0.6392 -0.5426 -0.8918
 8096TIP3   OH245778   4.657   4.704  13.785  0.6710  0.8472 -0.6631
 8096TIP3    H145779   4.717   4.634  13.809 -0.3629  1.0904  3.3050
 8096TIP3    H245780   4.570   4.665  13.791  0.1930  1.1254 -3.9746
 8097TIP3   OH245781   4.852   3.752   5.670 -0.4860 -0.9383  0.1929
 8097TIP3    H145782   4.814   3.736   5.756 -0.4722 -2.3107 -0.0459
 8097TIP3    H245783   4.849   3.668   5.626  2.2131 -0.9739 -0.0711
 8098TIP3   OH245784   3.419   2.263  14.470  0.3654  0.0765 -0.2264
 8098TIP3    H145785   3.431   2.246  14.377 -4.6651 -0.9302 -1.0276
 8098TIP3    H245786   3.380   2.351  14.473 -3.3304 -1.3694  0.1922
 8099TIP3   OH245787   0.824   1.062   4.136 -0.8118 -0.5122  0.2207
 8099TIP3    H145788   0.867   1.093   4.056 -1.4277 -0.1390  0.0377
 8099TIP3    H245789   0.751   1.122   4.150 -1.8255 -1.6635  0.0383
 8100TIP3   OH245790   6.622   5.269  17.156 -0.0370  0.1910  0.4900
 8100TIP3    H145791   6.623   5.174  17.173 -2.6914  0.0687  0.4370
 8100TIP3    H245792   6.621   5.308  17.243 -0.4387  0.0806  0.5411
 8101TIP3   OH245793   4.267   3.349   3.343  0.4901 -0.3702  0.3518
 8101TIP3    H145794   4.333   3.281   3.356 -1.6297 -2.6961 -0.4186
 8101TIP3    H245795   4.193   3.322   3.396  0.2205  2.4382  1.5959
 8102TIP3   OH245796   5.873   3.996  14.810  0.1842 -0.1407  0.5888
 8102TIP3    H145797   5.847   4.084  14.784 -0.5499 -0.4123  0.3610
 8102TIP3    H245798   5.959   4.007  14.851  0.7353  0.4917 -0.6831
 8103TIP3   OH245799   6.043   0.084   4.967 -0.2814 -0.3488  0.4067
 8103TIP3    H145800   6.116   0.025   4.950 -0.1218  0.2712 -1.1750
 8103TIP3    H245801   6.071   0.135   5.043 -0.6559 -2.6237  2.2004
 8104TIP3   OH245802   0.834   4.004  12.451 -0.2411 -0.0986  0.1735
 8104TIP3    H145803   0.844   4.023  12.358 -1.2829  0.0908  0.0854
 8104TIP3    H245804   0.920   3.971  12.479  0.5766  1.4028 -0.4718
 8105TIP3   OH245805   3.036   6.333  12.509 -0.0578 -0.1923  0.2748
 8105TIP3    H145806   2.980   6.357  12.436 -0.1746 -0.3730  0.3044
 8105TIP3    H245807   3.011   6.393  12.580 -2.7917 -2.5662  1.5026
 8106TIP3   OH245808   0.677   6.022   4.525 -0.1595  0.6126 -0.3272
 8106TIP3    H145809   0.673   6.103   4.474 -2.8416  0.5398 -0.3438
 8106TIP3    H245810   0.593   5.980   4.512  0.7622 -1.7039  0.5368
 8107TIP3   OH245811   3.083   3.997  13.352  0.6210 -0.5151  0.0130
 8107TIP3    H145812   3.004   4.017  13.402 -1.4900  0.0807 -3.2363
 8107TIP3    H245813   3.071   3.907  13.324 -0.3597  0.3596 -2.6809
 8108TIP3   OH245814   0.612   6.324  16.702 -0.3224  0.1715 -0.4868
 8108TIP3    H145815   0.687   6.272  16.731 -1.3761 -1.1178  0.0354
 8108TIP3    H245816   0.617   6.322  16.606  0.4719  0.3885 -0.4615
 8109TIP3   OH245817   1.056   0.656  15.979  0.4210  1.1102  0.5547
 8109TIP3    H145818   1.075   0.576  15.930  1.2332  0.1727  2.3248
 8109TIP3    H245819   1.000   0.707  15.921 -1.4821 -1.4488  0.0083
 8110TIP3   OH245820   4.463   0.952   0.750 -0.0123 -0.2963  0.1839
 8110TIP3    H145821   4.409   1.012   0.801  2.0282  1.2291  0.6519
 8110TIP3    H245822   4.437   0.967   0.659 -0.0723  0.7146  0.3633
 8111TIP3   OH245823   5.238   4.861   5.536  0.3340  0.3683  0.5393
 8111TIP3    H145824   5.165   4.871   5.598 -0.0446  0.0540  0.1491
 8111TIP3    H245825   5.306   4.818   5.586 -0.6120 -1.5245  0.2695
 8112TIP3   OH245826   4.902   3.477  10.757  0.0890 -0.1272 -0.2799
 8112TIP3    H145827   4.846   3.408  10.790 -0.9346  1.1698  0.8210
 8112TIP3    H245828   4.982   3.433  10.728 -1.0681 -1.8935 -0.9138
 8113TIP3   OH245829   1.384   2.407  15.735  0.3453 -0.0590 -0.9035
 8113TIP3    H145830   1.373   2.321  15.775 -1.2593  0.2386 -0.6513
 8113TIP3    H245831   1.353   2.396  15.645  2.1358 -0.2400 -1.5471
 8114TIP3   OH245832   0.007   6.785   3.661  0.2449  0.4747 -0.3852
 8114TIP3    H145833  -0.009   6.719   3.593  0.8992  1.2512 -1.3269
 8114TIP3    H245834  -0.081   6.808   3.693  0.0529 -1.4091  0.5341
 8115TIP3   OH245835   2.597   1.363   1.454  0.0516  0.2280  0.0376
 8115TIP3    H145836   2.552   1.367   1.539 -1.6495  1.6755 -0.8776
 8115TIP3    H245837   2.528   1.350   1.390  1.2913 -0.6456 -1.1799
 8116TIP3   OH245838   3.550   4.957  11.242 -0.0129 -0.1636 -0.2763
 8116TIP3    H145839   3.577   5.037  11.286 -2.1571  0.4506  0.0555
 8116TIP3    H245840   3.504   4.907  11.309 -0.1549 -0.8868 -0.8956
 8117TIP3   OH245841   4.176   6.362   4.993  0.3818  0.1684  0.2385
 8117TIP3    H145842   4.110   6.335   5.057  0.5382 -0.1537  0.2665
 8117TIP3    H245843   4.259   6.334   5.032  0.7918  2.6246  1.3438
 8118TIP3   OH245844   3.137   3.033   1.736  0.6453  0.0865 -0.1871
 8118TIP3    H145845   3.133   2.966   1.669  1.0148  1.1991 -1.3681
 8118TIP3    H245846   3.159   3.113   1.688 -0.3982  1.1747  1.0659
 8119TIP3   OH245847   1.164   2.997   6.604  0.2396 -0.0420  0.0847
 8119TIP3    H145848   1.096   3.064   6.599  0.1991 -0.0586  0.4128
 8119TIP3    H245849   1.129   2.931   6.664  0.4813 -0.1234  0.1370
 8120TIP3   OH245850   4.037   1.850  16.176  0.0562  0.3333 -0.6228
 8120TIP3    H145851   4.131   1.865  16.185  0.0551 -0.4531  1.3952
 8120TIP3    H245852   4.030   1.768  16.127  0.5663 -0.8697  1.1911
 8121TIP3   OH245853   3.567   5.858  14.597 -0.1374 -0.0446  0.3313
 8121TIP3    H145854   3.548   5.896  14.511  3.1443 -0.3065 -0.6654
 8121TIP3    H245855   3.545   5.926  14.659 -0.8118  0.8786 -0.8861
 8122TIP3   OH245856   1.506   6.600   2.214  0.2902  0.0808  0.4730
 8122TIP3    H145857   1.461   6.662   2.157 -1.5118 -0.2697  1.4367
 8122TIP3    H245858   1.503   6.640   2.300 -1.4578 -1.5435  1.2406
 8123TIP3   OH245859   1.177   2.682  12.362 -0.3558 -0.7444  0.1719
 8123TIP3    H145860   1.101   2.668  12.306 -0.4936 -0.6827  0.3442
 8123TIP3    H245861   1.206   2.595  12.386 -0.2379 -0.7749 -0.0734
 8124TIP3   OH245862   3.673   4.136   5.965  0.1911 -0.2045 -0.6416
 8124TIP3    H145863   3.749   4.181   6.002 -0.2361 -0.1047  0.1335
 8124TIP3    H245864   3.710   4.059   5.922  0.6355 -0.8682  0.8587
 8125TIP3   OH245865   5.081   1.375  14.127 -0.0195 -0.1347 -0.1339
 8125TIP3    H145866   5.024   1.411  14.059  0.1578  0.1923 -0.1089
 8125TIP3    H245867   5.170   1.387  14.092  0.1468  1.0592  0.6378
 8126TIP3   OH245868   6.674   1.245  12.919 -0.4786 -0.3456  0.1313
 8126TIP3    H145869   6.664   1.287  12.833  0.4883  0.3874  0.3460
 8126TIP3    H245870   6.749   1.186  12.908 -0.0000  0.1612  0.6049
 8127TIP3   OH245871   6.689   3.545  14.544 -0.2971  0.0941 -0.2527
 8127TIP3    H145872   6.610   3.591  14.516  1.0138  0.3599 -4.0827
 8127TIP3    H245873   6.753   3.614  14.563  0.1499 -0.1127 -0.9710
 8128TIP3   OH245874   6.310   0.285  16.422  0.6704  0.2282  0.1167
 8128TIP3    H145875   6.285   0.296  16.514 -0.1905  0.0259 -0.0890
 8128TIP3    H245876   6.250   0.218  16.389  0.0785  1.2552 -0.9459
 8129TIP3   OH245877   6.265   3.841   5.296 -0.3244  0.0868 -0.1442
 8129TIP3    H145878   6.175   3.844   5.264 -1.2453  1.3165  2.2865
 8129TIP3    H245879   6.260   3.790   5.377  0.9916  0.8356  0.4466
 8130TIP3   OH245880   1.705   4.736  13.205  0.0280  0.4251  0.4769
 8130TIP3    H145881   1.676   4.715  13.116  1.8365  0.8982 -0.2641
 8130TIP3    H245882   1.624   4.753  13.253 -1.0430 -0.6555 -0.8484
 8131TIP3   OH245883   2.469   6.046   6.014 -0.6240 -0.0400  0.4943
 8131TIP3    H145884   2.535   5.991   5.972 -1.0605 -1.7637  1.9435
 8131TIP3    H245885   2.387   6.000   6.001 -1.3607  1.4142 -0.1493
 8132TIP3   OH245886   2.107   3.073   3.453 -0.1673  0.1848 -0.0927
 8132TIP3    H145887   2.174   3.127   3.496  0.2080  1.3991 -2.0938
 8132TIP3    H245888   2.150   2.989   3.437  0.1054  0.1672  0.6803
 8133TIP3   OH245889   6.046   4.823   6.090 -0.1403  0.3387  0.1105
 8133TIP3    H145890   6.024   4.908   6.128 -1.2374  0.2888 -0.3854
 8133TIP3    H245891   6.072   4.769   6.165 -1.5043  0.4764  0.7028
 8134TIP3   OH245892   4.984   5.586   6.658 -0.2208 -0.3200 -0.4120
 8134TIP3    H145893   4.920   5.613   6.592 -0.6242 -0.2928 -0.0094
 8134TIP3    H245894   4.940   5.517   6.708 -0.6925  1.0633  1.1476
 8135TIP3   OH245895   3.023   4.313   6.347 -0.1521 -0.1181 -0.2960
 8135TIP3    H145896   3.051   4.361   6.425  0.7403  0.4224 -0.9267
 8135TIP3    H245897   2.945   4.359   6.317  0.6002  0.8812 -0.8026
 8136TIP3   OH245898   6.629   6.522  16.935 -0.1707 -0.1960 -0.4138
 8136TIP3    H145899   6.533   6.524  16.936 -0.1595  1.0871 -0.1168
 8136TIP3    H245900   6.651   6.430  16.952 -1.3407 -0.4126  0.0534
 8137TIP3   OH245901   5.396   3.109   2.332  0.0561  0.5712 -0.4064
 8137TIP3    H145902   5.470   3.154   2.291  1.1605  0.0956  0.9962
 8137TIP3    H245903   5.414   3.016   2.321  1.2981  0.3594  2.5390
 8138TIP3   OH245904   5.350   1.617  16.481 -0.0587  0.2166 -0.2592
 8138TIP3    H145905   5.348   1.578  16.393  0.2554  2.5902 -1.4122
 8138TIP3    H245906   5.442   1.637  16.496 -0.1595  0.1612  0.4521
 8139TIP3   OH245907   1.962   6.339   0.751 -0.3913  0.1959 -0.5199
 8139TIP3    H145908   2.013   6.407   0.795 -0.1218  0.0329 -0.5781
 8139TIP3    H245909   1.886   6.385   0.716  0.4446  0.7275 -1.7142
 8140TIP3   OH245910   3.425   5.032   4.638  0.1023  0.2774 -0.6995
 8140TIP3    H145911   3.514   5.066   4.623 -0.0905  1.4147  0.5410
 8140TIP3    H245912   3.368   5.106   4.617 -0.3654  0.6126  1.4882
 8141TIP3   OH245913   4.932   6.376  15.243 -0.1641  0.2769 -0.1389
 8141TIP3    H145914   4.872   6.350  15.313  1.3741 -1.7826  0.5266
 8141TIP3    H245915   5.019   6.356  15.277  0.7858  1.2186 -1.8465
 8142TIP3   OH245916   0.505   0.880  16.807  0.3234 -0.2453 -0.3927
 8142TIP3    H145917   0.500   0.857  16.714  2.1236  0.9518 -0.8317
 8142TIP3    H245918   0.578   0.941  16.813  1.2845 -1.4747  2.0417
 8143TIP3   OH245919   2.836   2.329   1.790  0.5033 -0.2671 -0.8201
 8143TIP3    H145920   2.922   2.338   1.748 -0.3063 -2.2880 -3.1329
 8143TIP3    H245921   2.828   2.235   1.807  0.0812  0.2603  2.5679
 8144TIP3   OH245922   1.405   6.428   2.687 -0.2334 -0.0518 -0.3408
 8144TIP3    H145923   1.430   6.520   2.684  2.9889 -0.8223 -0.3488
 8144TIP3    H245924   1.411   6.404   2.780  1.7192 -0.8666 -0.6374
 8145TIP3   OH245925   4.543   1.624   1.730  0.0705  0.0400 -0.0374
 8145TIP3    H145926   4.620   1.631   1.787 -0.0915  1.3542  0.0499
 8145TIP3    H245927   4.482   1.568   1.779 -0.3159  1.6477  1.4318
 8146TIP3   OH245928   4.056   2.384  15.789 -0.2316 -0.1175  0.1497
 8146TIP3    H145929   3.983   2.423  15.836 -2.8512 -2.7971 -1.3841
 8146TIP3    H245930   4.115   2.353  15.858 -1.1003  1.0333  1.4673
 8147TIP3   OH245931   0.295   0.187  15.722  1.0332 -0.8248 -0.1727
 8147TIP3    H145932   0.298   0.226  15.810 -0.0850  2.6985 -1.5408
 8147TIP3    H245933   0.377   0.139  15.714  2.1639  0.6055  2.0017
 8148TIP3   OH245934   3.000   0.666   3.044 -0.9268  0.3045 -0.0504
 8148TIP3    H145935   3.009   0.590   2.986  0.0698 -0.4826  1.1187
 8148TIP3    H245936   2.918   0.651   3.090 -0.0326 -0.8146  1.2237
 8149TIP3   OH245937   1.151   1.106  13.252 -0.5816 -0.5089 -0.2830
 8149TIP3    H145938   1.197   1.112  13.335 -0.2181  0.9844 -0.5604
 8149TIP3    H245939   1.139   1.012  13.237  2.5558 -0.9927 -0.2984
 8150TIP3   OH245940   5.110   4.417  13.545  0.2967  0.0603 -0.4470
 8150TIP3    H145941   5.052   4.345  13.519 -0.6032  1.4894 -2.6829
 8150TIP3    H245942   5.106   4.418  13.640 -4.2397  0.7310 -0.4593
 8151TIP3   OH245943   1.674   1.644   5.836 -0.3885  0.3026  0.5356
 8151TIP3    H145944   1.739   1.689   5.783 -0.0345 -1.7328 -0.8653
 8151TIP3    H245945   1.671   1.694   5.918  1.0502  1.9266 -0.3361
 8152TIP3   OH245946   4.206   0.740   3.814  0.0053 -1.0431 -0.5441
 8152TIP3    H145947   4.232   0.667   3.758  0.0746 -2.2197  0.9630
 8152TIP3    H245948   4.226   0.710   3.902  0.1307  0.8591  0.1088
 8153TIP3   OH245949   1.650   3.944   0.105 -0.2027  0.1570 -0.4888
 8153TIP3    H145950   1.598   3.997   0.044  1.1050  0.8709 -1.0080
 8153TIP3    H245951   1.741   3.965   0.084  0.2907 -0.1981  1.1921
 8154TIP3   OH245952   3.212   2.282  13.702  0.3288  0.3826  0.0476
 8154TIP3    H145953   3.200   2.189  13.685  0.5798  0.3652 -0.0373
 8154TIP3    H245954   3.124   2.319  13.699  0.3965  0.4752 -1.8769
 8155TIP3   OH245955   1.831   4.572  16.220 -0.4571 -0.4870 -0.0514
 8155TIP3    H145956   1.814   4.478  16.228 -1.1600 -0.4208 -0.7514
 8155TIP3    H245957   1.867   4.583  16.132  0.8235 -0.2617  0.4732
 8156TIP3   OH245958   0.722   5.731   1.527 -0.7831  0.3814  0.4779
 8156TIP3    H145959   0.713   5.817   1.567  1.0621  0.6760  0.3128
 8156TIP3    H245960   0.784   5.744   1.455  1.3436 -1.5031  1.8408
 8157TIP3   OH245961   2.859   6.002  15.634 -0.4106 -0.7726 -0.4409
 8157TIP3    H145962   2.841   6.093  15.659 -2.0758 -0.7758 -1.4789
 8157TIP3    H245963   2.851   5.952  15.715 -1.7907 -0.2816 -0.2522
 8158TIP3   OH245964   6.093   2.698   3.611 -0.8742 -0.4390 -0.1016
 8158TIP3    H145965   6.039   2.620   3.597 -2.1505 -0.3634  3.4417
 8158TIP3    H245966   6.163   2.670   3.669 -1.3809  0.9900  1.2880
 8159TIP3   OH245967   5.575   3.396   1.153 -0.7469 -0.3130 -0.3273
 8159TIP3    H145968   5.503   3.336   1.173  1.0323 -2.4402  0.1664
 8159TIP3    H245969   5.605   3.369   1.066  0.4598 -0.5988  0.1457
 8160TIP3   OH245970   5.702   2.033   4.707  0.0267 -0.0323 -0.2363
 8160TIP3    H145971   5.711   2.039   4.802 -0.8068 -0.9249 -0.0826
 8160TIP3    H245972   5.784   1.995   4.678 -0.1991 -0.9510  0.2801
 8161TIP3   OH245973   0.263   6.788   0.665 -0.2378  0.0268 -0.2833
 8161TIP3    H145974   0.242   6.856   0.602  0.8022  1.9188  1.3118
 8161TIP3    H245975   0.276   6.834   0.747  2.4515 -1.8667  0.4831
 8162TIP3   OH245976   5.465   2.498   3.416  0.2918 -0.2648  0.7992
 8162TIP3    H145977   5.407   2.441   3.466  0.5849 -0.0058  1.4491
 8162TIP3    H245978   5.427   2.585   3.426  0.4903 -0.1764  0.7828
 8163TIP3   OH245979   6.597   2.480  14.844  0.3764 -0.2819  0.5263
 8163TIP3    H145980   6.678   2.438  14.875 -0.0730 -0.4153  1.5654
 8163TIP3    H245981   6.528   2.437  14.894 -0.0729  1.9364  1.9223
 8164TIP3   OH245982   2.786   2.425   4.716 -0.4487  0.9002  0.1085
 8164TIP3    H145983   2.799   2.517   4.691 -0.2258  0.3489 -2.0020
 8164TIP3    H245984   2.713   2.396   4.662 -0.4477 -0.1924  0.6766
 8165TIP3   OH245985   1.068   6.134   5.673 -0.1470 -0.4158  0.1191
 8165TIP3    H145986   1.114   6.092   5.746  1.6042 -0.3328 -0.8929
 8165TIP3    H245987   1.098   6.225   5.675  0.6509 -0.6332 -1.2624
 8166TIP3   OH245988   4.987   2.882  12.336  0.4059  0.3597  0.4548
 8166TIP3    H145989   5.001   2.957  12.278 -3.0266  1.0023  0.2145
 8166TIP3    H245990   4.894   2.888  12.360  0.4868 -2.7445  2.0070
 8167TIP3   OH245991   0.356   1.203   1.248 -0.5629 -0.7620  0.4383
 8167TIP3    H145992   0.364   1.148   1.326 -1.0690  0.4196  1.3417
 8167TIP3    H245993   0.275   1.173   1.206  0.9068 -3.0651 -1.0299
 8168TIP3   OH245994   2.250   4.187  10.562 -0.2494  0.2028 -0.1466
 8168TIP3    H145995   2.250   4.107  10.511 -0.9724 -0.1229  0.3528
 8168TIP3    H245996   2.174   4.236  10.531 -0.2721  0.3321  0.1068
 8169TIP3   OH245997   2.400   6.651  13.477 -0.0061  0.2968  0.4181
 8169TIP3    H145998   2.340   6.659  13.403 -0.8951 -2.4178  0.7271
 8169TIP3    H245999   2.481   6.692  13.447 -1.2804  1.9877 -0.8658
 8170TIP3   OH246000   2.677   1.397   0.309 -0.6393 -0.6819 -0.1440
 8170TIP3    H146001   2.639   1.370   0.393 -1.2508  2.4852  0.7068
 8170TIP3    H246002   2.602   1.427   0.257  0.1977  2.0760  0.1178
 8171TIP3   OH246003   0.107   2.454   1.856  0.0519 -0.0131  0.1079
 8171TIP3    H146004   0.033   2.420   1.806 -0.5171 -0.2208  1.0722
 8171TIP3    H246005   0.154   2.510   1.794 -0.6936 -0.1800 -0.6252
 8172TIP3   OH246006   0.952   1.141   0.893 -0.1455  0.7306  0.5207
 8172TIP3    H146007   0.895   1.112   0.821  0.2530 -0.0692  0.5171
 8172TIP3    H246008   0.993   1.220   0.859 -1.6718  1.6533  0.7389
 8173TIP3   OH246009   4.466   6.098   5.266  0.2736 -0.1073 -0.7722
 8173TIP3    H146010   4.413   6.102   5.345  1.0053 -0.2041 -0.2706
 8173TIP3    H246011   4.423   6.031   5.212  0.7134 -1.2678  0.2588
 8174TIP3   OH246012   0.872   3.529   4.178 -0.5095  0.0379 -0.0378
 8174TIP3    H146013   0.962   3.553   4.155 -0.5416 -0.9394 -1.2903
 8174TIP3    H246014   0.822   3.544   4.098 -1.2868 -0.2716  0.3806
 8175TIP3   OH246015   3.350   3.141  12.883  0.0043 -0.1220 -0.2136
 8175TIP3    H146016   3.340   3.234  12.907 -0.7652 -0.6974  1.9825
 8175TIP3    H246017   3.369   3.097  12.966 -1.6457 -2.2072 -0.8570
 8176TIP3   OH246018   5.422   0.112   3.234 -0.3646  0.1324  0.0966
 8176TIP3    H146019   5.407   0.143   3.145 -1.5941 -0.0094  0.2425
 8176TIP3    H246020   5.391   0.022   3.234  1.3662 -0.5150  0.2000
 8177TIP3   OH246021   1.943   3.954   0.067 -0.2861 -0.3921  0.5327
 8177TIP3    H146022   1.936   3.860   0.081 -2.6266 -0.4712 -0.7689
 8177TIP3    H246023   2.019   3.980   0.119 -1.2535 -2.5179  3.2417
 8178TIP3   OH246024   3.691   0.010   1.805 -0.5592 -0.5354 -0.0680
 8178TIP3    H146025   3.688   0.027   1.899 -2.1207 -0.1557 -0.1674
 8178TIP3    H246026   3.750   0.076   1.771  0.2592 -0.8599  0.6661
 8179TIP3   OH246027   5.739   4.918   1.920  0.5721  0.3164  0.0142
 8179TIP3    H146028   5.750   4.999   1.970 -0.4220 -0.2561  1.1896
 8179TIP3    H246029   5.685   4.862   1.976 -0.1621 -0.5337 -1.4920
 8180TIP3   OH246030   3.356   4.244  14.796  0.0535  0.6133  0.1680
 8180TIP3    H146031   3.320   4.307  14.733 -2.0051  1.2290  1.8270
 8180TIP3    H246032   3.378   4.167  14.743  0.4929  1.8639 -1.5861
 8181TIP3   OH246033   5.042   1.444   0.490  0.4245 -0.9640 -0.2484
 8181TIP3    H146034   4.951   1.426   0.509  0.2938  1.0973  1.3836
 8181TIP3    H246035   5.091   1.372   0.531 -0.3204 -0.5498  1.4209
 8182TIP3   OH246036   0.138   2.676  13.012 -0.7012 -0.0414 -0.0188
 8182TIP3    H146037   0.171   2.704  12.927  0.0522 -1.2561 -0.1440
 8182TIP3    H246038   0.213   2.636  13.055 -0.6203  2.0109  1.9232
 8183TIP3   OH246039   4.861   2.129  16.968 -0.0752 -0.6646 -0.3351
 8183TIP3    H146040   4.792   2.072  17.000  1.2062 -2.4345 -0.6051
 8183TIP3    H246041   4.817   2.187  16.906 -1.4514 -1.1815  0.1051
 8184TIP3   OH246042   5.305   1.398  16.319 -0.0839  0.2783  0.0987
 8184TIP3    H146043   5.300   1.333  16.388  1.8690 -0.9000 -0.8043
 8184TIP3    H246044   5.220   1.392  16.275 -0.5856 -0.3747  1.1220
 8185TIP3   OH246045   5.269   3.482   5.580 -0.5755 -0.1018  0.2272
 8185TIP3    H146046   5.186   3.515   5.547 -0.4878 -0.3303 -0.2256
 8185TIP3    H246047   5.246   3.438   5.662 -1.1164 -1.2852 -0.5205
 8186TIP3   OH246048   4.306   4.295  11.186  0.0476 -0.6441  0.0389
 8186TIP3    H146049   4.277   4.245  11.110  1.1216 -1.9982  0.4873
 8186TIP3    H246050   4.264   4.251  11.260 -0.5502  0.3352  0.3063
 8187TIP3   OH246051   3.652   3.891  10.914 -0.1107 -0.2876 -0.0105
 8187TIP3    H146052   3.728   3.915  10.862  0.5815 -0.5346  0.8567
 8187TIP3    H246053   3.586   3.862  10.850  0.6670 -0.4714 -0.7385
 8188TIP3   OH246054   1.528   3.222  15.994  0.3916  0.0924 -0.1655
 8188TIP3    H146055   1.570   3.144  16.030 -0.7040 -1.0381 -1.2320
 8188TIP3    H246056   1.566   3.232  15.907  0.8088  0.9983  0.1077
 8189TIP3   OH246057   2.552   2.718  10.622 -0.6560  0.8768  0.1677
 8189TIP3    H146058   2.647   2.714  10.620 -0.6788 -0.1420  0.5745
 8189TIP3    H246059   2.525   2.688  10.535 -0.6696 -3.1298  1.3763
 8190TIP3   OH246060   5.464   0.927  17.184  0.1954 -0.2044  0.0239
 8190TIP3    H146061   5.516   0.854  17.152  1.1538  1.0799 -1.5124
 8190TIP3    H246062   5.520   1.004  17.171 -1.5682  1.0650 -0.4862
 8191TIP3   OH246063   4.070   5.535   0.959 -0.2893 -0.2038  0.1250
 8191TIP3    H146064   4.048   5.629   0.962 -0.4773 -0.1610 -1.5897
 8191TIP3    H246065   3.990   5.491   0.988 -1.5439  0.0790 -2.6567
 8192TIP3   OH246066   2.147   6.218   1.895 -0.2480  0.2237 -0.2121
 8192TIP3    H146067   2.053   6.199   1.887  0.0126 -0.6568 -1.4725
 8192TIP3    H246068   2.155   6.310   1.868 -0.7849  0.4388  0.3220
 8193TIP3   OH246069   3.185   3.010   3.878  0.1374 -0.1822  0.3629
 8193TIP3    H146070   3.222   2.925   3.898 -2.4129 -1.2288  1.0975
 8193TIP3    H246071   3.171   3.051   3.963 -1.2911 -0.2870  0.2052
 8194TIP3   OH246072   1.473   6.693   2.672 -0.2864  0.2711  0.4397
 8194TIP3    H146073   1.527   6.733   2.604  1.6902 -0.0335  1.7392
 8194TIP3    H246074   1.491   6.744   2.751 -2.6969  0.7523  0.7604
 8195TIP3   OH246075   0.204   5.012  13.374 -0.3469  0.7335 -0.7837
 8195TIP3    H146076   0.268   4.968  13.430 -0.2631  1.3098 -0.4219
 8195TIP3    H246077   0.183   4.948  13.306 -0.0001  0.2464 -0.4337
 8196TIP3   OH246078   4.363   0.268  16.243 -0.0003 -0.2462 -0.5046
 8196TIP3    H146079   4.339   0.357  16.270 -0.4980  0.1533 -2.1475
 8196TIP3    H246080   4.434   0.244  16.303 -0.6450  0.7794  0.7365
 8197TIP3   OH246081   4.399   3.381  15.411  0.4058 -0.0258  0.3911
 8197TIP3    H146082   4.494   3.372  15.416  0.6480  1.3180 -0.9319
 8197TIP3    H246083   4.372   3.410  15.498  0.8311 -2.8474  1.5657
 8198TIP3   OH246084   1.009   6.423   1.855 -0.2599 -0.3592 -0.3523
 8198TIP3    H146085   0.926   6.463   1.880  0.4012  0.5167  0.5561
 8198TIP3    H246086   1.044   6.388   1.937  1.0724  0.8720 -0.3579
 8199TIP3   OH246087   3.363   2.430   1.539  0.1440  0.0426  0.0432
 8199TIP3    H146088   3.409   2.347   1.530  2.5817  1.3140 -0.3138
 8199TIP3    H246089   3.386   2.461   1.627  1.2169  1.3350 -0.6452
 8200TIP3   OH246090   3.922   1.441  11.805 -0.1956  0.7622 -0.2100
 8200TIP3    H146091   3.848   1.488  11.767 -1.7672 -0.3152  1.3586
 8200TIP3    H246092   3.964   1.398  11.730 -1.8766  0.4443 -1.0189
 8201TIP3   OH246093   1.478   6.309  11.721  0.4733  0.1116  0.4432
 8201TIP3    H146094   1.392   6.349  11.704 -0.2811 -0.4853  2.5564
 8201TIP3    H246095   1.458   6.228  11.768  2.1748 -0.5024  0.1648
 8202TIP3   OH246096   1.129   6.652  16.400 -0.0014 -0.3487 -0.0471
 8202TIP3    H146097   1.049   6.634  16.350 -0.0490  0.1469 -0.1502
 8202TIP3    H246098   1.200   6.625  16.341 -0.0496  0.4608 -0.4803
 8203TIP3   OH246099   2.796   1.357  11.843  0.0621 -0.5368 -0.1672
 8203TIP3    H146100   2.802   1.366  11.747 -0.4316  1.7752 -0.0445
 8203TIP3    H246101   2.740   1.430  11.870  1.0211 -0.5368  2.0068
 8204TIP3   OH246102   2.706   1.403   4.745 -0.0420 -0.9050  0.2453
 8204TIP3    H146103   2.760   1.479   4.725 -1.4357 -0.3975 -1.9851
 8204TIP3    H246104   2.708   1.351   4.664 -2.8689 -0.8031 -0.0134
 8205TIP3   OH246105   2.397   6.697  11.652  0.0989 -0.0823 -0.3247
 8205TIP3    H146106   2.426   6.714  11.562  2.3505 -0.5491  0.2316
 8205TIP3    H246107   2.382   6.603  11.655 -0.3422 -0.0117 -0.3038
 8206TIP3   OH246108   2.711   6.128  10.473  0.3754  0.0685  0.2123
 8206TIP3    H146109   2.655   6.102  10.400 -0.1954 -0.0057  0.6683
 8206TIP3    H246110   2.657   6.114  10.551  0.9527  0.2087  0.6442
 8207TIP3   OH246111   1.637   2.441  12.467  0.0181  0.3729  0.1103
 8207TIP3    H146112   1.605   2.512  12.411 -0.1363  0.6187  0.5046
 8207TIP3    H246113   1.570   2.431  12.535  0.5075  0.5176  0.6248
 8208TIP3   OH246114   0.073   1.796   5.417  0.1708 -0.0612 -0.1181
 8208TIP3    H146115   0.048   1.790   5.510  0.8961  1.7249  0.2330
 8208TIP3    H246116   0.168   1.784   5.418  0.0501 -1.2338 -0.7995
 8209TIP3   OH246117   2.946   1.590   4.055 -0.0771 -0.4662 -0.4674
 8209TIP3    H146118   2.999   1.579   3.976  0.1300  1.8912 -0.7319
 8209TIP3    H246119   2.856   1.597   4.022  0.1030  1.5080 -0.6615
 8210TIP3   OH246120   2.917   5.318  15.075  0.0854  0.1823 -0.6930
 8210TIP3    H146121   2.846   5.382  15.086 -0.3185 -0.1366 -1.3682
 8210TIP3    H246122   2.997   5.367  15.095 -0.2304  0.8466 -1.0227
 8211TIP3   OH246123   6.274   1.405   2.959  0.3095 -0.3109 -0.2034
 8211TIP3    H146124   6.219   1.331   2.983  0.1618 -0.1549 -0.0611
 8211TIP3    H246125   6.227   1.482   2.990  1.0899 -0.2294  0.8353
 8212TIP3   OH246126   4.654   2.270  12.785 -0.2108 -0.2471  0.1878
 8212TIP3    H146127   4.632   2.179  12.764  2.7488 -1.4286  1.7005
 8212TIP3    H246128   4.697   2.303  12.706  1.3561 -1.1790  0.6210
 8213TIP3   OH246129   1.479   1.207  17.203  0.0924  0.3994  0.2409
 8213TIP3    H146130   1.490   1.205  17.298 -1.4096  1.1151  0.4530
 8213TIP3    H246131   1.447   1.295  17.184 -2.0978 -0.5094 -0.6012
 8214TIP3   OH246132   6.126   2.386   2.679  0.0580 -0.2380  0.4282
 8214TIP3    H146133   6.108   2.467   2.725 -0.3465  0.4126 -0.8361
 8214TIP3    H246134   6.047   2.368   2.629  0.8367 -0.3695 -0.8011
 8215TIP3   OH246135   4.085   4.520   1.902  0.1474  0.3632  0.2793
 8215TIP3    H146136   4.085   4.576   1.979 -2.7717  0.9232  0.0018
 8215TIP3    H246137   4.030   4.445   1.927  0.8661 -0.4889 -0.5937
 8216TIP3   OH246138   5.411   2.264  12.205  0.2112 -0.1403  0.3247
 8216TIP3    H146139   5.497   2.226  12.184  0.2228  1.1023 -2.3189
 8216TIP3    H246140   5.357   2.245  12.128 -0.9887  1.5774  0.6825
 8217TIP3   OH246141   0.771   2.570   3.585  0.1755 -0.6531 -0.0244
 8217TIP3    H146142   0.818   2.635   3.534 -0.2211  0.1466  0.6121
 8217TIP3    H246143   0.830   2.495   3.589  1.1240  0.0911  0.2062
 8218TIP3   OH246144   3.107   5.349   0.012 -0.3232  0.0990  0.1957
 8218TIP3    H146145   3.151   5.274   0.053 -1.6272 -0.7845  0.0532
 8218TIP3    H246146   3.038   5.373   0.074  0.0131  1.1323  0.1875
 8219TIP3   OH246147   6.017   0.484  14.715  0.1208 -0.9387 -0.5030
 8219TIP3    H146148   6.037   0.533  14.636 -0.2714 -1.2301 -0.7923
 8219TIP3    H246149   5.982   0.401  14.683 -0.2646 -0.9652 -0.0274
 8220TIP3   OH246150   2.575   0.390  16.173  0.0382  0.7159  0.4077
 8220TIP3    H146151   2.657   0.392  16.223 -0.7655  1.0062  1.7716
 8220TIP3    H246152   2.513   0.347  16.231 -0.7975  0.5310 -0.5929
 8221TIP3   OH246153   6.363   3.755  16.227  0.4582  0.2172  0.3040
 8221TIP3    H146154   6.452   3.787  16.218 -0.0155  1.8192  0.9998
 8221TIP3    H246155   6.309   3.820  16.182 -0.3288 -1.1115 -0.7564
 8222TIP3   OH246156   5.423   3.271   5.433  0.8660 -0.0169 -0.3193
 8222TIP3    H146157   5.383   3.357   5.450 -0.4929 -0.6935  0.0628
 8222TIP3    H246158   5.352   3.209   5.447  1.1054 -1.0549 -3.0841
 8223TIP3   OH246159   4.156   4.176  16.818 -0.0371 -0.5432  0.4834
 8223TIP3    H146160   4.235   4.183  16.765  0.0959 -0.7183  0.6563
 8223TIP3    H246161   4.092   4.232  16.774 -0.5077 -2.0982 -0.9295
 8224TIP3   OH246162   0.539   2.787  12.744  0.0389  0.0443 -0.2684
 8224TIP3    H146163   0.612   2.828  12.697  0.0976 -0.2376 -0.4310
 8224TIP3    H246164   0.498   2.858  12.793 -0.1616  0.3813 -0.9284
 8225TIP3   OH246165   1.100   0.157   0.155  0.4290 -0.0037 -0.7145
 8225TIP3    H146166   1.013   0.168   0.117  0.2373 -1.4730 -0.7453
 8225TIP3    H246167   1.097   0.207   0.237  0.3560  1.9241 -1.8362
 8226TIP3   OH246168   2.663   1.797  16.801  0.4225  0.4536 -0.3673
 8226TIP3    H146169   2.621   1.880  16.824  1.5713  1.6312 -2.2385
 8226TIP3    H246170   2.608   1.763  16.730 -1.0065 -1.3026  1.4696
 8227TIP3   OH246171   0.072   3.490  16.428  0.4389 -0.0808 -0.1321
 8227TIP3    H146172   0.117   3.568  16.459  2.5086 -1.7755  1.4611
 8227TIP3    H246173   0.077   3.429  16.501 -0.5122 -1.9467 -1.5277
 8228TIP3   OH246174   1.970   5.915  15.258 -0.2073 -0.3906 -0.0524
 8228TIP3    H146175   2.060   5.942  15.239 -0.6497  0.2469 -1.3716
 8228TIP3    H246176   1.919   5.995  15.250 -0.7648 -0.5137  1.8199
 8229TIP3   OH246177   0.702   1.353   2.302  0.4576  0.3251 -1.0697
 8229TIP3    H146178   0.793   1.375   2.281  0.6249  2.3271  1.3541
 8229TIP3    H246179   0.660   1.438   2.320 -1.0873 -0.7488  0.7453
 8230TIP3   OH246180   3.390   1.360   3.491  0.4429  0.1657  0.6421
 8230TIP3    H146181   3.473   1.408   3.498 -0.6472  2.4396 -0.9884
 8230TIP3    H246182   3.372   1.355   3.397 -1.6410  0.4270  0.9768
 8231TIP3   OH246183   6.328   5.702   3.669 -0.2388  0.2314  0.2282
 8231TIP3    H146184   6.417   5.702   3.634 -0.0559 -0.5728  0.6592
 8231TIP3    H246185   6.332   5.757   3.747 -0.2402  0.5977 -0.0271
 8232TIP3   OH246186   0.559   0.267  13.206 -0.0914 -0.2008  0.1902
 8232TIP3    H146187   0.631   0.282  13.266  0.8865 -0.8644 -0.7649
 8232TIP3    H246188   0.481   0.297  13.252  0.7389  0.0949  1.4261
 8233TIP3   OH246189   5.693   2.508  15.936  0.6645 -0.3109  0.0304
 8233TIP3    H146190   5.651   2.591  15.914  0.5028 -0.3353  0.2329
 8233TIP3    H246191   5.662   2.489  16.025  2.6295  0.6471  0.9856
 8234TIP3   OH246192   3.679   2.372  13.482 -0.3140 -0.3283 -0.2914
 8234TIP3    H146193   3.654   2.413  13.399 -0.1302 -0.9643 -0.6623
 8234TIP3    H246194   3.692   2.280  13.461  0.7187 -0.3208  0.2345
 8235TIP3   OH246195   0.147   3.495  12.519  0.1208  0.4654  0.0403
 8235TIP3    H146196   0.164   3.465  12.429 -0.3552 -1.5926  0.5645
 8235TIP3    H246197   0.213   3.561  12.536 -0.5399  1.8063 -2.2258
 8236TIP3   OH246198   6.385   6.059  14.368  0.7594 -0.1057 -0.0527
 8236TIP3    H146199   6.334   6.138  14.353 -2.2655 -1.7182  1.0441
 8236TIP3    H246200   6.359   5.999  14.298 -1.9004 -2.2524  2.5142
 8237TIP3   OH246201   2.691   1.771  14.806 -0.0472 -0.1346  0.0550
 8237TIP3    H146202   2.704   1.846  14.864 -1.8060  0.8049 -0.6928
 8237TIP3    H246203   2.695   1.695  14.863  2.4823  0.4104  0.7338
 8238TIP3   OH246204   2.814   2.193   6.250 -0.4686  0.1266 -0.2898
 8238TIP3    H146205   2.895   2.169   6.294  0.5415  0.7877 -1.6929
 8238TIP3    H246206   2.756   2.118   6.263  0.0943 -0.0520  1.3554
 8239TIP3   OH246207   4.875   6.341   4.920  0.2245  0.5045 -0.1298
 8239TIP3    H146208   4.947   6.357   4.860 -0.0811  0.7042 -0.4482
 8239TIP3    H246209   4.797   6.369   4.872 -0.4233 -2.2365 -0.9149
 8240TIP3   OH246210   0.798   4.166  15.944 -0.5993  0.2010  0.0607
 8240TIP3    H146211   0.861   4.151  15.873  1.4610  0.1533  1.7836
 8240TIP3    H246212   0.834   4.240  15.993 -2.5344  0.9280  0.4885
 8241TIP3   OH246213   2.975   2.317   4.870  0.3583 -0.0106 -0.1934
 8241TIP3    H146214   3.004   2.243   4.816  0.9776 -0.1969  0.3835
 8241TIP3    H246215   2.909   2.361   4.816 -2.3591 -2.7385  0.6212
 8242TIP3   OH246216   3.424   1.306   3.066 -0.0157  0.0942  0.3161
 8242TIP3    H146217   3.482   1.245   3.112 -0.6053 -0.2477  0.6167
 8242TIP3    H246218   3.383   1.358   3.135  1.2859  1.5976  0.0139
 8243TIP3   OH246219   4.778   2.106  15.032 -0.5125 -0.0496 -0.6450
 8243TIP3    H146220   4.710   2.137  14.972 -1.4807  1.4932  1.1625
 8243TIP3    H246221   4.782   2.011  15.015 -0.4388  0.3599 -3.3786
 8244TIP3   OH246222   0.906   3.590   0.879  0.1752 -0.2927 -0.1659
 8244TIP3    H146223   0.975   3.578   0.814  0.0307  3.7911 -1.3714
 8244TIP3    H246224   0.830   3.545   0.842  0.7814 -0.2293 -1.5683
 8245TIP3   OH246225   0.055   5.164   4.697  0.0598 -0.2361  0.0853
 8245TIP3    H146226  -0.013   5.198   4.755  1.5934  0.9753  1.2954
 8245TIP3    H246227   0.096   5.243   4.660  0.8970 -0.9122 -0.4621
 8246TIP3   OH246228   2.751   2.520  11.613 -0.1354  0.4597  0.4809
 8246TIP3    H146229   2.820   2.521  11.546 -0.1568  2.2116  0.4429
 8246TIP3    H246230   2.795   2.549  11.693 -0.8607  1.9360  0.3780
 8247TIP3   OH246231   1.179   5.873   4.365  0.3319 -0.0908 -0.5565
 8247TIP3    H146232   1.118   5.928   4.414 -0.0970 -1.6894  0.7943
 8247TIP3    H246233   1.135   5.858   4.281 -0.2070  0.3971 -0.3713
 8248TIP3   OH246234   4.898   0.188   1.771 -0.2765  0.4197  0.1160
 8248TIP3    H146235   4.873   0.280   1.773  0.4416  0.6395  2.2146
 8248TIP3    H246236   4.894   0.163   1.679  0.1021  2.7049 -0.5698
 8249TIP3   OH246237   5.108   1.683   4.147  0.4851 -0.1810  0.2189
 8249TIP3    H146238   5.177   1.746   4.168 -0.8311  2.5447 -2.7401
 8249TIP3    H246239   5.145   1.628   4.077  0.0635  0.6546 -0.6920
 8250TIP3   OH246240   4.568   3.853   3.350  0.0465  0.3781  0.4942
 8250TIP3    H146241   4.523   3.770   3.363  1.1687 -0.2640  0.3689
 8250TIP3    H246242   4.530   3.911   3.417 -0.9323 -0.1469  0.4039
 8251TIP3   OH246243   0.275   0.494   2.931  0.1499  0.3333  0.0871
 8251TIP3    H146244   0.192   0.508   2.976  0.6835  1.0532  0.8720
 8251TIP3    H246245   0.337   0.471   3.000  0.4169 -1.1672 -0.6017
 8252TIP3   OH246246   3.835   3.399   4.858  0.3673 -0.0775 -0.1517
 8252TIP3    H146247   3.769   3.355   4.912 -1.1616  1.3890 -0.7457
 8252TIP3    H246248   3.906   3.335   4.850 -0.5870 -1.3688  1.2524
 8253TIP3   OH246249   5.875   6.392   2.765 -0.1983 -0.1443  0.6006
 8253TIP3    H146250   5.828   6.407   2.847  0.1340 -0.6428  0.8841
 8253TIP3    H246251   5.823   6.438   2.699  0.2081  1.3611  1.2799
 8254TIP3   OH246252   1.368   6.370   0.193 -0.5051  0.2737 -0.2532
 8254TIP3    H146253   1.346   6.378   0.100 -2.4877  2.0681  0.2852
 8254TIP3    H246254   1.452   6.414   0.201 -2.0481  3.6040 -0.6981
 8255TIP3   OH246255   4.797   5.337  11.332 -0.3382  0.3387 -0.1214
 8255TIP3    H146256   4.890   5.349  11.350 -0.5709  0.0469  1.3258
 8255TIP3    H246257   4.794   5.305  11.241  0.9451  0.5601 -0.2541
 8256TIP3   OH246258   0.461   6.288   3.423 -0.6001  0.1863 -0.3707
 8256TIP3    H146259   0.483   6.281   3.516  3.1064  2.1983 -0.8963
 8256TIP3    H246260   0.403   6.364   3.418 -2.7103 -1.2970  0.4383
 8257TIP3   OH246261   3.404   0.985   1.284 -0.5041 -0.5138 -0.3799
 8257TIP3    H146262   3.317   1.013   1.256 -0.9708  1.0756  2.3266
 8257TIP3    H246263   3.464   1.028   1.223 -1.5512 -0.9458 -1.7611
 8258TIP3   OH246264   3.707   3.623  12.515  0.0877  0.6553  0.0230
 8258TIP3    H146265   3.695   3.564  12.440 -1.0491  2.4327 -1.2800
 8258TIP3    H246266   3.652   3.586  12.584 -0.1567 -0.1193 -0.5721
 8259TIP3   OH246267   4.392   2.524  14.852  0.3246  0.1369 -0.6106
 8259TIP3    H146268   4.315   2.510  14.907  0.5912  1.0250  0.0049
 8259TIP3    H246269   4.391   2.618  14.833  2.2017  0.5023  0.8340
 8260TIP3   OH246270   1.764   5.395  14.997 -0.0521  0.3946  0.1607
 8260TIP3    H146271   1.677   5.430  15.015 -0.1744 -0.0221  0.3980
 8260TIP3    H246272   1.751   5.334  14.924  0.0586  0.4077  0.1299
 8261TIP3   OH246273   2.148   5.497  13.129 -0.1995 -0.2708 -0.0877
 8261TIP3    H146274   2.173   5.587  13.105  1.0809 -0.2749  1.1742
 8261TIP3    H246275   2.212   5.442  13.084  0.5439 -0.4113  1.1200
 8262TIP3   OH246276   2.831   1.755   4.766  0.1581 -0.1496 -0.1057
 8262TIP3    H146277   2.762   1.821   4.753 -0.4817 -1.0407 -1.5238
 8262TIP3    H246278   2.841   1.714   4.680  1.4110 -1.0723  0.4492
 8263TIP3   OH246279   1.981   1.120   1.136  0.0227 -0.3990 -0.3202
 8263TIP3    H146280   1.886   1.121   1.145 -0.1428 -0.7631 -1.7616
 8263TIP3    H246281   2.000   1.036   1.093  0.8521  0.2637 -1.3085
 8264TIP3   OH246282   0.907   3.427  15.886  0.0178 -0.0575  0.0062
 8264TIP3    H146283   0.870   3.363  15.947  1.1172 -0.1625  0.5910
 8264TIP3    H246284   0.899   3.385  15.800  0.6134 -0.9430  0.3636
 8265TIP3   OH246285   5.554   1.317  16.460 -0.0313  0.7199 -0.2505
 8265TIP3    H146286   5.540   1.253  16.390  0.0103  2.2223 -1.7006
 8265TIP3    H246287   5.550   1.402  16.416 -1.6174  1.8199  1.8376
 8266TIP3   OH246288   6.497   5.398   2.429  0.5403  0.1061 -0.0804
 8266TIP3    H146289   6.414   5.405   2.477  0.4735  0.3006 -0.2264
 8266TIP3    H246290   6.562   5.438   2.487  0.6980 -0.8647  0.4421
 8267TIP3   OH246291   1.489   4.987   1.633  0.2196  0.0845  0.3908
 8267TIP3    H146292   1.517   4.962   1.545 -1.6693 -0.5809 -0.0709
 8267TIP3    H246293   1.509   5.081   1.639  0.0635  0.2140 -0.8798
 8268TIP3   OH246294   0.526   3.574  14.199 -0.3564  0.4063  0.8273
 8268TIP3    H146295   0.461   3.592  14.267 -0.6572  1.3585  0.2954
 8268TIP3    H246296   0.609   3.603  14.237 -0.0060 -1.7871  1.9360
 8269TIP3   OH246297   3.348   2.038   6.340 -0.1619 -0.0872 -0.5666
 8269TIP3    H146298   3.394   2.117   6.313  0.1735  0.8483  2.3206
 8269TIP3    H246299   3.378   1.971   6.279  1.4656  1.4742 -1.6048
 8270TIP3   OH246300   2.459   0.756   0.921 -0.0755 -0.2766 -0.1565
 8270TIP3    H146301   2.437   0.809   0.998  4.2545  2.8287 -0.6672
 8270TIP3    H246302   2.488   0.673   0.958  2.3318  1.2803  1.7930
 8271TIP3   OH246303   4.065   2.094   0.769 -0.0702 -0.7429  0.1542
 8271TIP3    H146304   4.131   2.069   0.704 -1.6886 -0.9174 -1.5248
 8271TIP3    H246305   3.985   2.103   0.718 -1.1633  0.3394  1.9790
 8272TIP3   OH246306   2.114   3.068   4.507 -0.0284  0.0507  0.3003
 8272TIP3    H146307   2.081   3.108   4.588 -0.3747 -0.7743  0.5725
 8272TIP3    H246308   2.176   3.133   4.472 -1.9331  1.6516 -0.2391
 8273TIP3   OH246309   4.578   2.930  12.879  0.1188  0.2526  0.4916
 8273TIP3    H146310   4.602   3.002  12.937 -2.1667  1.6266 -0.1402
 8273TIP3    H246311   4.617   2.953  12.794  1.5492 -0.6278  0.8581
 8274TIP3   OH246312   6.369   4.824  16.802  0.0763  0.1021 -0.2654
 8274TIP3    H146313   6.331   4.863  16.881 -0.8464 -0.6283 -0.3229
 8274TIP3    H246314   6.461   4.851  16.803 -0.6140  2.7052 -0.5932
 8275TIP3   OH246315   5.936   0.340   6.086  0.0257  0.1035  0.4457
 8275TIP3    H146316   5.994   0.285   6.140 -0.6961  0.9751  2.2121
 8275TIP3    H246317   5.887   0.278   6.032  1.6984 -0.7280 -0.1991
 8276TIP3   OH246318   6.032   1.237  13.217 -0.7514  0.0466 -0.2344
 8276TIP3    H146319   6.080   1.155  13.228 -2.2589 -0.7718  0.5430
 8276TIP3    H246320   6.054   1.265  13.128  2.2744  0.5088  0.5288
 8277TIP3   OH246321   4.669   5.076   0.670  0.0990  0.1818 -0.7129
 8277TIP3    H146322   4.671   5.038   0.758 -0.3731  1.2463 -0.2273
 8277TIP3    H246323   4.740   5.140   0.669  1.7133 -1.5134 -1.9400
 8278TIP3   OH246324   5.726   3.648   0.762 -0.1486 -0.0520  0.5553
 8278TIP3    H146325   5.782   3.709   0.714 -0.2977  0.7742  1.4197
 8278TIP3    H246326   5.786   3.596   0.814 -0.1435  0.6846  1.3105
 8279TIP3   OH246327   0.645   0.048  14.659  1.0235 -0.1534 -0.3355
 8279TIP3    H146328   0.736   0.076  14.657  0.5930  1.4019  0.6292
 8279TIP3    H246329   0.625   0.037  14.751 -1.0601  4.3192  0.0281
 8280TIP3   OH246330   0.426   2.668  13.822 -0.0240 -0.3667  0.0726
 8280TIP3    H146331   0.432   2.734  13.892  1.2682  0.4771 -0.7890
 8280TIP3    H246332   0.333   2.659  13.806 -0.2748  0.4877  0.9273
 8281TIP3   OH246333   2.208   2.667  13.347  0.2640 -0.2429 -0.8455
 8281TIP3    H146334   2.156   2.726  13.401 -0.1434  1.2756 -2.7879
 8281TIP3    H246335   2.152   2.590  13.336 -0.2930  0.0868 -0.4130
 8282TIP3   OH246336   0.028   2.247  14.702 -0.1088  0.0933 -0.2638
 8282TIP3    H146337   0.011   2.337  14.673 -0.1704  0.2926  0.3697
 8282TIP3    H246338   0.072   2.206  14.628  0.6275  0.8800 -0.2814
 8283TIP3   OH246339   3.159   4.060  17.109 -0.3366 -0.1450  0.5500
 8283TIP3    H146340   3.125   4.066  17.198 -0.4793  0.4770  0.4545
 8283TIP3    H246341   3.089   4.094  17.053  0.1130  0.3394  0.2805
 8284TIP3   OH246342   2.690   4.699   5.129 -0.1041 -0.0749  0.3315
 8284TIP3    H146343   2.726   4.635   5.068  1.3343  0.6219  0.4220
 8284TIP3    H246344   2.605   4.722   5.092  0.2539 -0.5030 -0.8086
 8285TIP3   OH246345   5.669   0.006  13.732 -0.2541 -0.0477 -0.0576
 8285TIP3    H146346   5.580   0.040  13.742 -0.0328  0.9394 -1.1882
 8285TIP3    H246347   5.724   0.067  13.782 -0.1979 -0.6591  0.6470
 8286TIP3   OH246348   0.978   5.886  17.021  0.2981 -0.0563 -0.3058
 8286TIP3    H146349   0.923   5.922  16.952 -0.3187 -1.4162 -0.5694
 8286TIP3    H246350   0.925   5.816  17.060  1.7858 -1.3566 -0.5015
 8287TIP3   OH246351   5.960   6.229  12.051  0.1792  0.1449  0.7005
 8287TIP3    H146352   5.932   6.195  12.136  0.1910 -1.6713  0.0149
 8287TIP3    H246353   6.056   6.223  12.053  0.1155 -1.7840 -0.1358
 8288TIP3   OH246354   6.585   1.761   6.117 -0.1857 -0.1363 -0.7212
 8288TIP3    H146355   6.559   1.733   6.205  2.2100  0.8982  0.4207
 8288TIP3    H246356   6.519   1.826   6.092 -0.3324  0.3327  0.7757
 8289TIP3   OH246357   4.425   3.387   2.558 -0.3419 -0.1226 -0.1519
 8289TIP3    H146358   4.476   3.415   2.482 -1.2660  1.5395 -0.2028
 8289TIP3    H246359   4.446   3.452   2.626 -1.1598 -0.3354  0.3158
 8290TIP3   OH246360   2.981   3.865   0.367 -0.7046  0.4157  0.4571
 8290TIP3    H146361   2.924   3.926   0.414  0.2916 -0.0231  2.3703
 8290TIP3    H246362   3.066   3.872   0.412  0.2121 -0.3354 -1.0781
 8291TIP3   OH246363   0.386   0.003   3.381 -0.7137 -0.5770  0.6782
 8291TIP3    H146364   0.465   0.036   3.337 -0.3820 -1.0539  0.9103
 8291TIP3    H246365   0.374   0.062   3.456 -1.3631  0.3278 -0.1103
 8292TIP3   OH246366   2.915   3.546   3.408  0.7220  0.1454 -0.6447
 8292TIP3    H146367   2.925   3.551   3.503 -0.9962 -0.1084 -0.4216
 8292TIP3    H246368   2.849   3.477   3.394 -0.0690  1.1187 -1.9325
 8293TIP3   OH246369   1.295   1.862  13.946  0.3356 -0.3645 -0.2440
 8293TIP3    H146370   1.378   1.873  13.992  0.0055  1.0385  0.0695
 8293TIP3    H246371   1.233   1.835  14.014  0.3865 -0.7559 -0.3516
 8294TIP3   OH246372   5.642   1.075   1.278  0.3801  0.4460  0.4797
 8294TIP3    H146373   5.597   1.101   1.197  1.0105  0.6086  0.1754
 8294TIP3    H246374   5.587   1.006   1.314  0.0979  0.3541 -0.1037
 8295TIP3   OH246375   0.456   2.175  13.347  0.2845  0.8982 -0.5367
 8295TIP3    H146376   0.396   2.243  13.318 -1.7680 -0.4300  0.3866
 8295TIP3    H246377   0.481   2.201  13.436 -0.5221  0.4444 -0.1735
 8296TIP3   OH246378   4.423   5.828  13.479 -0.0872 -0.2861 -0.3387
 8296TIP3    H146379   4.407   5.921  13.463  2.3495  0.2547 -0.1092
 8296TIP3    H246380   4.337   5.791  13.499 -1.5073  1.3824 -2.8933
 8297TIP3   OH246381   1.367   3.511  14.832  0.3395 -0.6624  0.2184
 8297TIP3    H146382   1.428   3.460  14.884 -0.0568  0.0975  1.4695
 8297TIP3    H246383   1.292   3.525  14.889  0.4535  1.3575 -0.0252
 8298TIP3   OH246384   5.018   5.905  10.871 -0.4711 -0.0335 -0.1508
 8298TIP3    H146385   5.082   5.975  10.858 -0.8471  0.7991  2.0350
 8298TIP3    H246386   5.067   5.825  10.856  0.7763  0.6288  0.2465
 8299TIP3   OH246387   4.591   0.930   1.048 -0.0965  0.6002 -0.8866
 8299TIP3    H146388   4.584   0.856   0.989  0.4135 -0.7794  0.7118
 8299TIP3    H246389   4.513   0.923   1.104  0.9830 -0.0050  0.6169
 8300TIP3   OH246390   0.507   0.779  13.046 -0.2366  0.6298 -0.5283
 8300TIP3    H146391   0.553   0.704  13.009 -0.2287  1.3426 -2.0196
 8300TIP3    H246392   0.477   0.749  13.132 -1.2587 -1.4794 -1.5590
 8301TIP3   OH246393   2.747   2.094   2.046 -0.2395  0.6018 -0.3559
 8301TIP3    H146394   2.819   2.158   2.046  0.4307 -0.1289 -0.9966
 8301TIP3    H246395   2.730   2.078   1.953 -1.0985  0.5992 -0.2080
 8302TIP3   OH246396   4.594   5.789   5.195 -0.0541 -0.4495 -0.2949
 8302TIP3    H146397   4.611   5.879   5.166  0.7988 -1.1107 -2.0191
 8302TIP3    H246398   4.520   5.797   5.255  1.1428  1.6056  1.0460
 8303TIP3   OH246399   4.482   2.350  16.294 -0.3728  0.2601  0.5445
 8303TIP3    H146400   4.436   2.424  16.333  0.0914  1.6382 -1.4156
 8303TIP3    H246401   4.570   2.354  16.331 -0.6503  0.0109  1.2559
 8304TIP3   OH246402   5.468   2.169  16.974  0.3406 -0.1206 -0.9636
 8304TIP3    H146403   5.375   2.173  16.954  0.2766 -0.7143 -0.8104
 8304TIP3    H246404   5.490   2.076  16.966  0.3830 -0.3744  1.3882
 8305TIP3   OH246405   4.758   0.836   2.505  0.1678 -0.6952 -0.3335
 8305TIP3    H146406   4.691   0.876   2.450 -0.4423 -1.5712 -0.2556
 8305TIP3    H246407   4.833   0.896   2.499 -0.4439  0.0459 -0.8172
 8306TIP3   OH246408   5.397   2.988   3.388  0.2532 -0.4821 -0.5013
 8306TIP3    H146409   5.450   3.006   3.465  1.3852  0.0520 -1.3675
 8306TIP3    H246410   5.420   3.058   3.326 -0.9075 -0.6755 -1.1856
 8307TIP3   OH246411   2.010   6.698   1.457 -0.2365  0.0782 -0.7454
 8307TIP3    H146412   2.058   6.747   1.390  0.2325  1.1693  0.3373
 8307TIP3    H246413   1.927   6.745   1.466  0.9960  2.0346  1.7129
 8308TIP3   OH246414   5.270   3.835   1.083 -0.5651  0.2593  0.3892
 8308TIP3    H146415   5.335   3.784   1.035 -0.9669 -0.1157  0.2378
 8308TIP3    H246416   5.320   3.906   1.124 -0.0454 -0.1079  0.3908
 8309TIP3   OH246417   6.167   1.628  13.789 -0.0415 -0.2630 -0.7793
 8309TIP3    H146418   6.122   1.543  13.792  0.5886 -0.5896 -0.3485
 8309TIP3    H246419   6.099   1.690  13.764 -1.2307 -0.4136  1.8299
 8310TIP3   OH246420   0.288   6.150  14.902  0.0922  0.1525  0.2576
 8310TIP3    H146421   0.363   6.167  14.845  0.1434  0.0226  0.2870
 8310TIP3    H246422   0.253   6.237  14.922  3.0568  0.7465  4.1286
 8311TIP3   OH246423   1.747   6.670   2.066 -0.0293 -0.1199  0.0931
 8311TIP3    H146424   1.690   6.645   2.139  0.2455  1.4093  0.8829
 8311TIP3    H246425   1.834   6.681   2.106  0.3823 -0.4051 -0.7015
 8312TIP3   OH246426   4.968   2.747  16.786 -0.2833 -0.0549 -0.5080
 8312TIP3    H146427   4.896   2.700  16.828 -0.6092  1.5410  0.8241
 8312TIP3    H246428   5.043   2.734  16.845  0.1521 -0.5208 -1.1492
 8313TIP3   OH246429   0.887   5.341   4.686  0.0190  0.0927 -0.5190
 8313TIP3    H146430   0.977   5.372   4.692  0.0685 -0.3075  1.3251
 8313TIP3    H246431   0.866   5.344   4.592  1.8485  0.4449 -0.9389
 8314TIP3   OH246432   0.771   4.494   0.026  0.0604  0.1112 -0.4026
 8314TIP3    H146433   0.718   4.568  -0.006 -1.1671 -0.7300 -0.3653
 8314TIP3    H246434   0.736   4.475   0.113 -0.7423 -1.5328 -1.0419
 8315TIP3   OH246435   2.471   4.370   2.673  0.5771  0.2543  0.2672
 8315TIP3    H146436   2.527   4.425   2.727  2.2568 -0.6596 -0.4553
 8315TIP3    H246437   2.458   4.291   2.724  0.3230  0.2892  0.2545
 8316TIP3   OH246438   6.415   5.028  14.864  0.0699  0.2418 -0.5120
 8316TIP3    H146439   6.382   4.939  14.874  0.7329  0.1487  1.1393
 8316TIP3    H246440   6.491   5.020  14.806 -0.4141 -0.1162 -1.1085
 8317TIP3   OH246441   5.609   2.825  16.911  0.2813  0.1655 -0.2215
 8317TIP3    H146442   5.594   2.740  16.869  2.0630  0.0545 -0.6989
 8317TIP3    H246443   5.544   2.883  16.870 -0.6810 -0.8461 -0.1869
 8318TIP3   OH246444   0.289   1.092  13.092  0.1796 -0.1376 -0.7164
 8318TIP3    H146445   0.369   1.136  13.062 -0.3160  0.9906 -0.4384
 8318TIP3    H246446   0.282   1.116  13.184  0.0680 -1.0961 -0.4607
 8319TIP3   OH246447   3.843   1.597  10.867 -0.1012  0.1305 -0.0191
 8319TIP3    H146448   3.799   1.517  10.894 -0.2447  0.6185  1.3178
 8319TIP3    H246449   3.875   1.635  10.949 -0.4358  1.6592 -0.5491
 8320TIP3   OH246450   2.507   1.210   2.276  0.0014  0.3210  1.1110
 8320TIP3    H146451   2.447   1.137   2.262  0.2355  0.1974  0.7511
 8320TIP3    H246452   2.538   1.233   2.189  0.5304  0.3362  1.3006
 8321TIP3   OH246453   1.146   1.990   5.586 -0.1335 -0.3591 -0.6868
 8321TIP3    H146454   1.068   2.035   5.618 -1.6064 -1.7930 -2.1395
 8321TIP3    H246455   1.193   1.964   5.666  0.1583  2.5323  0.2143
 8322TIP3   OH246456   1.001   6.820   0.966 -0.3330  0.2838  0.3584
 8322TIP3    H146457   0.907   6.806   0.955 -0.0582 -0.8080 -0.8152
 8322TIP3    H246458   1.031   6.742   1.012 -0.0356  0.7633  0.9895
 8323TIP3   OH246459   4.819   1.452   0.644  0.5028 -0.1410 -0.3978
 8323TIP3    H146460   4.800   1.536   0.603 -0.1248 -0.9297 -1.8110
 8323TIP3    H246461   4.812   1.468   0.738 -0.3985  1.1914 -0.6772
 8324TIP3   OH246462   4.139   3.221  13.447  0.4251  0.6313  0.0456
 8324TIP3    H146463   4.135   3.168  13.367 -0.5508 -0.9873  1.1033
 8324TIP3    H246464   4.048   3.229  13.475  0.8511 -0.3899  1.9247
 8325TIP3   OH246465   1.081   6.398  12.921 -0.0663 -0.1597  0.2640
 8325TIP3    H146466   1.141   6.460  12.879 -2.2914  1.4645 -0.6933
 8325TIP3    H246467   1.103   6.314  12.881 -0.0982  0.8348 -2.0073
 8326TIP3   OH246468   1.538   3.033  13.075 -0.1145 -0.0107 -0.2519
 8326TIP3    H146469   1.521   3.011  12.984 -0.8275  2.3813 -0.7813
 8326TIP3    H246470   1.584   3.117  13.071 -1.3330  0.8142  1.5803
 8327TIP3   OH246471   4.023   5.787   0.959  0.0949 -0.0144  0.0140
 8327TIP3    H146472   3.953   5.809   1.020  2.3201  0.8470  2.4578
 8327TIP3    H246473   4.032   5.864   0.903  0.0300  0.4824  0.6732
 8328TIP3   OH246474   3.158   4.875  14.450  0.2425  0.0304  0.6337
 8328TIP3    H146475   3.167   4.924  14.368 -2.7398 -0.9847 -0.4598
 8328TIP3    H246476   3.071   4.899  14.483  0.0313 -2.0196  1.7672
 8329TIP3   OH246477   3.557   2.425  16.470 -0.6131 -0.1448 -1.0011
 8329TIP3    H146478   3.632   2.484  16.468 -0.5000 -0.2852 -0.9533
 8329TIP3    H246479   3.575   2.366  16.543  0.5901 -1.9286 -2.6461
 8330TIP3   OH246480   4.546   2.947   1.078  0.0974  0.5026  0.3804
 8330TIP3    H146481   4.546   2.964   0.984  0.2309 -1.7434 -0.0845
 8330TIP3    H246482   4.458   2.913   1.096  0.4813 -0.3008  0.7891
 8331TIP3   OH246483   3.379   4.552  12.403  0.0692 -0.4499  0.6887
 8331TIP3    H146484   3.329   4.600  12.468 -0.8717 -1.3542  0.6483
 8331TIP3    H246485   3.468   4.587  12.410 -0.3742  0.5759  1.3412
 8332TIP3   OH246486   6.552   0.624  16.334  0.1877 -0.0695 -0.0475
 8332TIP3    H146487   6.577   0.696  16.277  0.1408 -0.1909 -0.2205
 8332TIP3    H246488   6.615   0.628  16.407  1.4622 -1.0751 -1.0347
 8333TIP3   OH246489   4.482   5.156  15.887 -0.0218  0.1735 -0.3939
 8333TIP3    H146490   4.530   5.208  15.822  1.4313 -0.2703  0.2813
 8333TIP3    H246491   4.449   5.221  15.949 -0.3758  0.4955 -0.9084
 8334TIP3   OH246492   1.311   4.972   5.006  0.3721 -0.1537  0.0042
 8334TIP3    H146493   1.239   5.018   4.963 -0.4376 -0.9264  0.5014
 8334TIP3    H246494   1.291   4.981   5.100  1.1668  0.0042  0.1613
 8335TIP3   OH246495   2.584   3.478   3.014 -0.1498 -0.0400 -0.1970
 8335TIP3    H146496   2.584   3.384   3.002 -0.7344 -0.0588 -0.0901
 8335TIP3    H246497   2.636   3.512   2.942 -0.0969 -0.4295 -0.3446
 8336TIP3   OH246498   0.150   1.374  15.996 -0.0977  0.2042 -0.2849
 8336TIP3    H146499   0.168   1.310  15.927 -0.4306 -0.7219  0.4644
 8336TIP3    H246500   0.056   1.389  15.991 -0.0943  0.2680 -0.1523
 8337TIP3   OH246501   2.819   3.509  16.103  0.5392  0.2370  0.0885
 8337TIP3    H146502   2.809   3.423  16.145 -0.2439  0.3843  0.2211
 8337TIP3    H246503   2.778   3.498  16.017  0.7769  0.3757 -0.0433
 8338TIP3   OH246504   1.804   2.227  13.654 -0.5660 -0.1892 -0.2059
 8338TIP3    H146505   1.777   2.205  13.565 -0.4967 -0.3168 -0.1968
 8338TIP3    H246506   1.723   2.242  13.702 -0.5636  2.1132 -0.8416
 8339TIP3   OH246507   5.338   2.719  16.089  0.1342  0.1629 -0.6887
 8339TIP3    H146508   5.244   2.711  16.072  0.2860 -1.6282 -0.7932
 8339TIP3    H246509   5.378   2.712  16.002  0.3681  1.4709 -0.7140
 8340TIP3   OH246510   2.969   2.116  16.555 -0.5739 -0.2681  0.6456
 8340TIP3    H146511   3.000   2.202  16.583 -0.8555 -0.2006  0.7517
 8340TIP3    H246512   2.875   2.127  16.542 -0.8503 -0.8757  1.9288
 8341TIP3   OH246513   6.106   2.261   1.773  0.2386  0.3410 -0.2790
 8341TIP3    H146514   6.013   2.265   1.752 -0.0101  0.2909  0.7707
 8341TIP3    H246515   6.125   2.167   1.780  0.0124  0.3769  0.9804
 8342TIP3   OH246516   0.229   5.801   1.281 -0.1016  0.2417  0.7686
 8342TIP3    H146517   0.146   5.757   1.265 -0.1868  0.4317  0.6774
 8342TIP3    H246518   0.295   5.733   1.271 -0.2371  0.1193  0.7067
 8343TIP3   OH246519   5.048   1.709  10.874 -0.0521 -0.0789  0.3547
 8343TIP3    H146520   5.129   1.659  10.863  1.0892  1.3073  1.9387
 8343TIP3    H246521   5.072   1.798  10.848 -1.5410  0.0528 -0.6666
 8344TIP3   OH246522   0.291   1.095  16.366  0.4175  0.4050  0.1043
 8344TIP3    H146523   0.249   1.159  16.309 -0.9689  1.3931  2.1223
 8344TIP3    H246524   0.274   1.011  16.324  2.0340  1.2433 -2.4412
 8345TIP3   OH246525   2.913   0.385   1.598  0.0334  0.0297  0.1646
 8345TIP3    H146526   2.938   0.413   1.510  0.6404 -3.3572 -0.8597
 8345TIP3    H246527   2.993   0.351   1.636 -0.8875 -1.6090  0.7291
 8346TIP3   OH246528   1.029   2.352  14.488 -0.3490 -0.4853 -0.0396
 8346TIP3    H146529   1.023   2.443  14.459  1.0853 -0.1936  0.4760
 8346TIP3    H246530   1.112   2.348  14.536 -0.6362 -1.9474  0.3856
 8347TIP3   OH246531   1.948   3.589   4.613 -0.5306 -0.5845 -0.6136
 8347TIP3    H146532   1.897   3.576   4.693  0.3071 -1.6549 -0.2345
 8347TIP3    H246533   1.885   3.623   4.550 -1.2112  0.2733  0.4785
 8348TIP3   OH246534   6.810   1.855  12.217 -0.4271  0.2115  0.4659
 8348TIP3    H146535   6.899   1.891  12.216 -1.1582  2.2184  1.7418
 8348TIP3    H246536   6.755   1.926  12.184 -1.6322 -0.8398  0.1396
 8349TIP3   OH246537   0.114   0.954   4.389  0.4969 -0.5222 -0.1512
 8349TIP3    H146538   0.092   1.020   4.455 -0.8900 -1.6999  0.6148
 8349TIP3    H246539   0.034   0.945   4.337  0.7378 -1.4373 -0.3783
 8350TIP3   OH246540   5.986   1.035   0.510  0.2388  0.4361  0.4321
 8350TIP3    H146541   5.940   1.118   0.505  0.5701  0.6027  0.0494
 8350TIP3    H246542   6.019   1.020   0.421 -0.2681 -0.3680  0.3700
 8351TIP3   OH246543   0.089   5.821   5.798  0.1842 -0.3414 -0.3920
 8351TIP3    H146544   0.183   5.805   5.810 -0.3498 -3.5255  0.7035
 8351TIP3    H246545   0.050   5.733   5.796 -2.8421  0.8695 -0.3339
 8352TIP3   OH246546   4.480   6.162  13.015 -0.1207 -0.0095 -0.7094
 8352TIP3    H146547   4.395   6.180  13.057 -0.1466  0.2561 -0.8753
 8352TIP3    H246548   4.506   6.077  13.050 -1.4111 -1.0456 -2.1523
 8353TIP3   OH246549   1.948   2.482   4.225  0.0871  0.1378  0.0388
 8353TIP3    H146550   1.865   2.450   4.189  0.1291 -0.0824  0.1343
 8353TIP3    H246551   1.952   2.574   4.198 -0.6201  0.4065  0.8076
 8354TIP3   OH246552   1.845   4.515  12.627  0.0234 -0.2069 -0.0800
 8354TIP3    H146553   1.858   4.522  12.532 -0.7045  0.3882 -0.1407
 8354TIP3    H246554   1.853   4.421  12.645  0.9855 -0.2339 -0.6010
 8355TIP3   OH246555   1.099   0.498   6.427  0.3697 -0.1633  0.2265
 8355TIP3    H146556   1.113   0.408   6.456  0.1581 -0.1247  0.4519
 8355TIP3    H246557   1.075   0.545   6.507 -0.7266 -0.1612 -0.0960
 8356TIP3   OH246558   0.032   4.432   0.101  0.0834 -0.0594  0.1534
 8356TIP3    H146559   0.029   4.507   0.161 -0.8883  0.4758 -0.5322
 8356TIP3    H246560   0.097   4.373   0.139 -0.7412  0.1062  1.9356
 8357TIP3   OH246561   0.983   4.293  15.737  0.0183 -0.0898 -0.4066
 8357TIP3    H146562   1.056   4.235  15.716  0.9676  0.5382  0.9859
 8357TIP3    H246563   1.022   4.364  15.788 -1.6022  0.0856  0.6895
 8358TIP3   OH246564   2.868   0.836   0.208 -0.2826 -0.2380 -0.1459
 8358TIP3    H146565   2.926   0.910   0.225  0.8953 -1.0534 -0.5710
 8358TIP3    H246566   2.911   0.786   0.139 -1.6991 -0.6367 -0.7761
 8359TIP3   OH246567   1.404   5.640   5.643 -0.3092  0.5373 -0.2001
 8359TIP3    H146568   1.475   5.659   5.704  1.1078 -0.4986 -1.4327
 8359TIP3    H246569   1.335   5.702   5.666 -0.1112 -0.2341  2.8192
 8360TIP3   OH246570   3.616   3.916   1.548  0.1508  0.2041 -0.4801
 8360TIP3    H146571   3.707   3.945   1.549  0.7213 -1.4724  0.8121
 8360TIP3    H246572   3.606   3.872   1.463  0.3162  1.0020 -0.9251
 8361TIP3   OH246573   4.695   0.799  14.023  0.5898 -0.2411 -0.1413
 8361TIP3    H146574   4.635   0.827  13.954  1.2431 -0.3966 -0.7810
 8361TIP3    H246575   4.755   0.739  13.980  0.6329 -0.8158  0.7069
 8362TIP3   OH246576   1.332   3.771  16.151  0.5499 -0.5476  0.1761
 8362TIP3    H146577   1.263   3.825  16.113 -1.6560 -0.1733  4.1933
 8362TIP3    H246578   1.334   3.692  16.096 -1.3107  0.4694 -1.4871
 8363TIP3   OH246579   2.302   5.629   1.522  0.4483 -0.0166  0.4378
 8363TIP3    H146580   2.273   5.714   1.487  1.1688 -0.1539 -0.5206
 8363TIP3    H246581   2.332   5.649   1.611  1.6403  0.9401 -0.1670
 8364TIP3   OH246582   1.501   0.785   4.282 -0.7244 -0.0577 -0.5114
 8364TIP3    H146583   1.595   0.783   4.266 -0.6174  0.5317  0.0074
 8364TIP3    H246584   1.490   0.746   4.368 -0.8123  1.0164 -0.0129
 8365TIP3   OH246585   5.992   4.019   5.135 -0.1937 -0.6255  0.5944
 8365TIP3    H146586   5.916   3.987   5.087  0.3612 -1.0607 -0.0195
 8365TIP3    H246587   6.046   4.062   5.069  1.0693 -2.1187  0.5780
 8366TIP3   OH246588   6.186   4.206   4.153 -0.4056  0.3048 -0.0718
 8366TIP3    H146589   6.195   4.299   4.132 -0.4817  0.4397  0.4690
 8366TIP3    H246590   6.092   4.189   4.147 -0.2880 -0.0051 -1.2401
 8367TIP3   OH246591   5.982   6.142   0.225  0.0699  0.4657  0.2114
 8367TIP3    H146592   5.914   6.183   0.278 -0.9492 -0.4469 -0.3531
 8367TIP3    H246593   6.022   6.215   0.177  0.7678  1.2590  1.9164
 8368TIP3   OH246594   4.917   6.486   5.966 -0.1646  0.5722  0.1535
 8368TIP3    H146595   4.898   6.392   5.960 -3.0814  1.1417 -1.0949
 8368TIP3    H246596   4.880   6.513   6.049 -0.0479  0.7630  0.1442
 8369TIP3   OH246597   5.519   2.814  12.083 -0.1749 -0.3166  0.2125
 8369TIP3    H146598   5.536   2.885  12.145  0.4436 -1.9600  2.0390
 8369TIP3    H246599   5.437   2.774  12.113  0.0856 -1.0889 -0.0707
 8370TIP3   OH246600   5.468   0.790   2.039  0.8356  0.0052  0.4543
 8370TIP3    H146601   5.514   0.854   1.985  3.7759 -0.5621  2.0542
 8370TIP3    H246602   5.452   0.835   2.122  0.7683 -0.5799  0.7684
 8371TIP3   OH246603   3.083   0.553  13.154 -1.0097  0.1663 -0.8550
 8371TIP3    H146604   3.037   0.532  13.235  0.7125  0.7195  0.3166
 8371TIP3    H246605   3.018   0.598  13.100 -1.9905  0.4524  0.5183
 8372TIP3   OH246606   0.627   6.815  16.299 -0.0945  0.2482 -0.2130
 8372TIP3    H146607   0.706   6.862  16.272  0.3421 -0.4884 -0.2509
 8372TIP3    H246608   0.556   6.878  16.287  0.5663  1.1390  0.4620
 8373TIP3   OH246609   4.386   5.800  16.273  0.1747  0.3376 -0.2093
 8373TIP3    H146610   4.427   5.838  16.351  0.6946 -1.4041  0.3974
 8373TIP3    H246611   4.363   5.876  16.219  0.1266  1.5677  1.4665
 8374TIP3   OH246612   3.207   6.683   2.469 -0.2469 -0.0275  0.4852
 8374TIP3    H146613   3.129   6.725   2.433 -1.2942 -1.1632  1.3199
 8374TIP3    H246614   3.262   6.755   2.501 -1.6884  0.7375  1.3176
 8375TIP3   OH246615   4.868   3.548  15.647 -0.3792 -0.8173  0.8029
 8375TIP3    H146616   4.792   3.522  15.595  1.0403 -1.9633 -0.7762
 8375TIP3    H246617   4.831   3.604  15.716 -2.7132 -1.7930  0.4456
 8376TIP3   OH246618   5.764   6.329  11.411 -0.0343  0.5484 -0.4618
 8376TIP3    H146619   5.787   6.413  11.451 -0.5588 -0.0807  1.2780
 8376TIP3    H246620   5.751   6.349  11.318  1.5352  2.0387 -0.4195
 8377TIP3   OH246621   5.251   5.903  16.585 -0.3550  0.4138 -0.1981
 8377TIP3    H146622   5.284   5.989  16.558  1.3397 -0.6152 -1.6673
 8377TIP3    H246623   5.315   5.871  16.648 -0.3316 -0.2271 -0.5304
 8378TIP3   OH246624   3.485   4.526   5.180  0.0335  0.1480  0.4374
 8378TIP3    H146625   3.520   4.587   5.245  0.9337  0.9538 -0.7649
 8378TIP3    H246626   3.416   4.575   5.135  1.4951  0.7361 -1.2767
 8379TIP3   OH246627   2.125   1.484   1.340 -0.1664  0.2051 -0.5261
 8379TIP3    H146628   2.096   1.393   1.343  0.7674 -0.1085 -0.6864
 8379TIP3    H246629   2.048   1.535   1.365 -0.6678 -0.6331 -0.3425
 8380TIP3   OH246630   0.418   3.197  13.527 -0.0992 -0.0029  0.2421
 8380TIP3    H146631   0.496   3.147  13.550 -1.9963 -2.2312  2.4113
 8380TIP3    H246632   0.395   3.243  13.608 -1.2085  0.3778 -0.2669
 8381TIP3   OH246633   3.967   4.427  15.770 -0.3141  0.2775  0.5039
 8381TIP3    H146634   3.991   4.338  15.795  0.9920 -0.3762 -2.6101
 8381TIP3    H246635   4.001   4.481  15.841  0.1446 -1.5952  1.7880
 8382TIP3   OH246636   6.622   3.113   0.117  0.1125 -0.0622 -0.2514
 8382TIP3    H146637   6.546   3.055   0.104  1.1474 -1.1282 -1.9065
 8382TIP3    H246638   6.682   3.061   0.170  0.4770  0.0369 -0.5701
 8383TIP3   OH246639   0.712   0.925  15.611 -0.1303  0.4515  0.0642
 8383TIP3    H146640   0.696   0.833  15.590 -0.5476  0.2387  1.2221
 8383TIP3    H246641   0.708   0.970  15.527 -3.3857 -0.0931 -0.2069
 8384TIP3   OH246642   4.532   5.708  12.403 -0.0101  0.5150  0.4966
 8384TIP3    H146643   4.471   5.691  12.475 -0.0117 -0.6026  0.2447
 8384TIP3    H246644   4.590   5.632  12.401  1.2533  1.4267  0.5593
 8385TIP3   OH246645   4.147   0.452  14.171  0.1631  0.0880 -0.0703
 8385TIP3    H146646   4.106   0.392  14.234 -1.9585  2.9586  1.5165
 8385TIP3    H246647   4.219   0.493  14.219 -0.7226  1.4222  0.1827
 8386TIP3   OH246648   0.778   6.740   1.749 -0.3118 -0.7111  0.1755
 8386TIP3    H146649   0.849   6.804   1.749 -1.0726  0.1593  0.7854
 8386TIP3    H246650   0.764   6.721   1.656 -0.4319  0.4326 -0.0575
 8387TIP3   OH246651   2.362   4.946   5.274  0.1527  0.1390 -0.4534
 8387TIP3    H146652   2.315   4.967   5.355  1.6635  0.3494  0.3922
 8387TIP3    H246653   2.321   4.864   5.244 -1.0839  0.5717 -0.0322
 8388TIP3   OH246654   5.632   0.079  15.589 -0.0769 -0.3595  0.3360
 8388TIP3    H146655   5.702   0.100  15.527  0.9532 -1.6170  1.0289
 8388TIP3    H246656   5.570   0.026  15.539  0.7969 -1.4503  0.3841
 8389TIP3   OH246657   4.204   1.873  15.595 -0.6713 -0.1784 -0.3196
 8389TIP3    H146658   4.256   1.893  15.517 -1.9698  1.0526 -0.9066
 8389TIP3    H246659   4.246   1.924  15.665 -0.1094 -0.5050 -0.4077
 8390TIP3   OH246660   0.491   2.820  14.730  0.1126 -0.3252  0.7304
 8390TIP3    H146661   0.427   2.842  14.662 -0.2849  1.6001  1.6751
 8390TIP3    H246662   0.575   2.849  14.695  0.2664 -1.4403  0.1350
 8391TIP3   OH246663   1.147   2.350  12.597 -0.8408 -0.3582  0.1625
 8391TIP3    H146664   1.208   2.337  12.669 -0.9919  1.1514  0.6134
 8391TIP3    H246665   1.101   2.431  12.619  0.9958  1.7403 -2.9222
 8392TIP3   OH246666   3.444   0.482   1.684 -0.0426 -0.4142  0.3271
 8392TIP3    H146667   3.463   0.389   1.666  0.9723 -0.5046  1.6608
 8392TIP3    H246668   3.467   0.493   1.776 -0.5930  1.0721  0.3099
 8393TIP3   OH246669   5.632   4.493  15.269  0.7068 -0.3399  0.6040
 8393TIP3    H146670   5.664   4.496  15.359  3.9552 -0.4596 -0.4049
 8393TIP3    H246671   5.689   4.553  15.221 -0.9008 -0.2938 -1.4047
 8394TIP3   OH246672   1.013   4.294  13.460 -0.2236 -0.1566 -0.1342
 8394TIP3    H146673   0.919   4.302  13.475 -0.2656 -1.9047  0.8108
 8394TIP3    H246674   1.038   4.215  13.507  1.4785 -0.5342 -1.5678
 8395TIP3   OH246675   0.662   0.352   2.806 -0.0553 -0.3527  0.3985
 8395TIP3    H146676   0.585   0.315   2.764 -0.9061  0.9489  0.7466
 8395TIP3    H246677   0.675   0.437   2.763  0.4283 -0.0128  1.1903
 8396TIP3   OH246678   1.406   5.183  11.551 -0.3939  0.2397  0.4981
 8396TIP3    H146679   1.447   5.247  11.609 -0.5936 -0.0587  0.9855
 8396TIP3    H246680   1.365   5.235  11.482 -0.1807  0.6061  0.6440
 8397TIP3   OH246681   6.540   3.729   2.559  0.0857 -0.4024 -0.0267
 8397TIP3    H146682   6.454   3.770   2.563  0.0432 -0.5987  1.3849
 8397TIP3    H246683   6.591   3.786   2.500 -1.1579 -0.6286 -1.3878
 8398TIP3   OH246684   1.456   0.059   4.560 -0.5622  0.0876  0.4383
 8398TIP3    H146685   1.490  -0.026   4.589 -1.9377 -0.8448 -0.5257
 8398TIP3    H246686   1.532   0.117   4.559  0.6825 -1.4922 -0.1584
 8399TIP3   OH246687   5.523   2.748   1.556 -0.2779 -0.1685  0.9075
 8399TIP3    H146688   5.547   2.656   1.567 -0.0270  0.0914  2.9924
 8399TIP3    H246689   5.456   2.748   1.488  1.3827 -1.6044 -0.8358
 8400TIP3   OH246690   0.909   3.358   1.408 -0.1238 -0.1173 -0.3811
 8400TIP3    H146691   0.860   3.411   1.470 -0.1174 -1.8835  1.2120
 8400TIP3    H246692   1.001   3.376   1.428 -0.0380 -2.5701  2.0148
 8401TIP3   OH246693   4.598   6.806  13.958  0.1988  0.2503  0.0727
 8401TIP3    H146694   4.548   6.725  13.972  0.1178  0.1913 -0.5617
 8401TIP3    H246695   4.535   6.876  13.975 -0.1785  0.1759 -0.9656
 8402TIP3   OH246696   5.295   1.726   2.813 -0.4033  0.3199  0.3734
 8402TIP3    H146697   5.251   1.804   2.848 -1.0674  0.5621 -0.9480
 8402TIP3    H246698   5.324   1.752   2.726  0.5262 -0.5151  0.4207
 8403TIP3   OH246699   6.784   3.771  15.435 -0.3044  0.0434  0.3058
 8403TIP3    H146700   6.818   3.770  15.524 -0.5972 -1.4579  0.4332
 8403TIP3    H246701   6.861   3.779  15.379  0.3172 -2.7643  0.6079
 8404TIP3   OH246702   3.142   6.020   5.970  0.3507 -0.2877 -0.1230
 8404TIP3    H146703   3.145   6.115   5.979  0.0363  0.0020 -2.3782
 8404TIP3    H246704   3.054   5.995   5.999  0.8507 -0.0889  1.6640
 8405TIP3   OH246705   1.513   2.171  12.625  0.4864 -0.0949 -0.2799
 8405TIP3    H146706   1.566   2.151  12.547  0.2243 -0.2162 -0.4303
 8405TIP3    H246707   1.454   2.096  12.634  0.2790  0.0774 -0.1684
 8406TIP3   OH246708   4.928   1.926  14.050  0.0318 -0.4692  0.3081
 8406TIP3    H146709   4.856   1.971  14.093 -0.7159 -0.4244 -0.9543
 8406TIP3    H246710   4.932   1.841  14.094 -0.9051 -0.5323  0.2955
 8407TIP3   OH246711   2.435   1.692   4.071  0.5708 -0.5623  0.1219
 8407TIP3    H146712   2.397   1.780   4.074 -1.7158 -1.4722 -0.1504
 8407TIP3    H246713   2.423   1.664   3.980  1.6249 -1.0394  0.1127
 8408TIP3   OH246714   0.146   0.884  12.436 -0.5513  0.2254 -0.6233
 8408TIP3    H146715   0.096   0.951  12.484 -2.6539 -0.5010 -1.6719
 8408TIP3    H246716   0.223   0.868  12.491 -1.7296  1.0333  1.3988
 8409TIP3   OH246717   1.488   1.077   2.140  0.4188  0.3306 -0.7118
 8409TIP3    H146718   1.493   1.030   2.057  0.4620 -0.9846  0.0064
 8409TIP3    H246719   1.409   1.130   2.134  0.3686  0.1656 -1.5518
 8410TIP3   OH246720   1.203   0.941  12.662  0.4392  0.5671  0.0102
 8410TIP3    H146721   1.215   0.850  12.634 -0.5416  0.6618 -0.7618
 8410TIP3    H246722   1.253   0.992  12.598  0.5156  0.6104  0.1041
 8411TIP3   OH246723   1.928   2.798  17.052 -0.0895  0.0006  0.1493
 8411TIP3    H146724   1.977   2.870  17.093  0.1493 -1.4244  2.5041
 8411TIP3    H246725   1.857   2.842  17.006 -1.6230  1.7370  3.7669
 8412TIP3   OH246726   1.094   6.752  14.453 -0.4324  0.1965  0.5192
 8412TIP3    H146727   1.020   6.718  14.503 -0.0828 -1.1282  0.1899
 8412TIP3    H246728   1.108   6.687  14.384 -0.6879  1.7805 -1.1185
 8413TIP3   OH246729   4.381   0.636   0.039 -0.1977  0.0333 -0.2994
 8413TIP3    H146730   4.395   0.580   0.115  0.7737 -0.4192 -0.7852
 8413TIP3    H246731   4.376   0.724   0.076  4.5849  0.4263  0.1048
 8414TIP3   OH246732   1.626   6.653   4.641 -0.0225  0.2827  0.0647
 8414TIP3    H146733   1.620   6.645   4.736  1.2764  0.2843  0.1596
 8414TIP3    H246734   1.645   6.565   4.610 -0.3932  0.2913 -0.1958
 8415TIP3   OH246735   3.915   6.281  15.417 -0.1621 -0.6983 -0.4613
 8415TIP3    H146736   3.972   6.216  15.376 -0.1200 -0.6901 -0.4154
 8415TIP3    H246737   3.926   6.268  15.511  2.0537  1.2473 -0.3473
 8416TIP3   OH246738   1.578   3.231   0.378  0.4442 -0.5112 -0.0589
 8416TIP3    H146739   1.660   3.201   0.418  1.1411  0.8032 -0.4694
 8416TIP3    H246740   1.600   3.313   0.334 -1.4151  0.7394  1.1732
 8417TIP3   OH246741   5.044   4.886  15.371 -0.4500 -0.2214  0.1270
 8417TIP3    H146742   5.031   4.872  15.277  0.4503  0.7790 -0.1787
 8417TIP3    H246743   5.019   4.978  15.385 -3.0428 -1.0338  1.3947
 8418TIP3   OH246744   5.349   6.319  14.295  0.6266  0.8442 -0.2643
 8418TIP3    H146745   5.363   6.269  14.376 -0.0731  2.4891  0.9512
 8418TIP3    H246746   5.423   6.379  14.290  0.7965  0.5840 -1.0034
 8419TIP3   OH246747   3.539   5.131   0.496 -0.2400 -0.4400  0.3324
 8419TIP3    H146748   3.571   5.221   0.491 -0.4442 -0.3970 -0.3177
 8419TIP3    H246749   3.525   5.116   0.589  1.6421 -0.4570  0.6388
 8420TIP3   OH246750   5.872   0.387  14.928 -0.0270 -0.6432  0.0095
 8420TIP3    H146751   5.921   0.420  14.853 -0.3683 -1.0863 -0.4167
 8420TIP3    H246752   5.807   0.455  14.946  1.0050  0.1514  0.8551
 8421TIP3   OH246753   2.033   5.057  15.829  0.3376  0.0062 -0.1394
 8421TIP3    H146754   1.950   5.066  15.782  0.9046  0.9481 -1.0159
 8421TIP3    H246755   2.018   5.099  15.913  0.8086  3.1234 -1.4891
 8422TIP3   OH246756   1.462   0.826  13.116 -0.0206 -0.4093  0.0459
 8422TIP3    H146757   1.434   0.761  13.181  1.2704 -1.7618 -0.6704
 8422TIP3    H246758   1.384   0.842  13.063 -0.1589 -2.0807 -0.3037
 8423TIP3   OH246759   2.623   4.267   5.614 -0.0754  0.4323  0.2201
 8423TIP3    H146760   2.569   4.188   5.612 -0.0351  0.3973  0.5233
 8423TIP3    H246761   2.611   4.302   5.702 -0.5816  1.1047 -0.1088
 8424TIP3   OH246762   0.560   2.721   6.044 -0.2634 -0.0005 -0.1716
 8424TIP3    H146763   0.523   2.661   5.980  1.5551  0.7940 -2.1042
 8424TIP3    H246764   0.579   2.667   6.121 -2.7174 -0.9234 -0.1408
 8425TIP3   OH246765   2.972   4.259  14.136  0.7679  0.0811  0.4598
 8425TIP3    H146766   3.053   4.284  14.093  0.4956  1.4597  0.6765
 8425TIP3    H246767   2.903   4.280  14.073  0.5245 -0.1773  0.6345
 8426TIP3   OH246768   1.491   0.359  13.584  0.4403  0.3192  0.3864
 8426TIP3    H146769   1.505   0.441  13.537  0.8366 -0.0282 -0.1088
 8426TIP3    H246770   1.396   0.354  13.597  0.2519  0.1534 -0.8855
 8427TIP3   OH246771   2.201   6.064   2.367 -0.2435 -0.0877 -0.3051
 8427TIP3    H146772   2.268   6.097   2.307 -1.1270 -0.5663 -1.6156
 8427TIP3    H246773   2.226   5.974   2.385  0.4704  0.3052  0.7397
 8428TIP3   OH246774   4.973   1.741   3.528 -0.4560  0.6178  0.2818
 8428TIP3    H146775   5.009   1.818   3.485 -0.7880 -0.3563 -1.8509
 8428TIP3    H246776   4.985   1.670   3.465 -2.1106 -0.6360  1.2959
 8429TIP3   OH246777   1.708   0.927   2.238  0.0554  0.2281 -0.3537
 8429TIP3    H146778   1.625   0.954   2.198  0.2073  3.2008  1.0658
 8429TIP3    H246779   1.773   0.981   2.194  0.7212  0.6568  1.1034
 8430TIP3   OH246780   4.355   3.088  14.605 -0.4084 -0.0455  0.3564
 8430TIP3    H146781   4.437   3.041  14.621 -0.5886 -0.1617  0.9567
 8430TIP3    H246782   4.301   3.070  14.682 -1.2173 -0.4293 -0.2866
 8431TIP3   OH246783   1.701   0.837   1.332 -0.2240 -0.1330 -0.1832
 8431TIP3    H146784   1.630   0.774   1.344  0.1505 -0.5804 -0.2850
 8431TIP3    H246785   1.778   0.783   1.317  0.5115  0.2901  1.7938
 8432TIP3   OH246786   5.363   5.258   2.310 -0.0962 -0.2190  0.1679
 8432TIP3    H146787   5.382   5.313   2.387 -0.3670 -1.6804  1.3284
 8432TIP3    H246788   5.273   5.280   2.287  0.0873  0.4499  0.0676
 8433TIP3   OH246789   2.828   3.113   3.863 -0.2957 -0.1792 -0.4846
 8433TIP3    H146790   2.798   3.024   3.848 -1.7247  0.2725 -0.4398
 8433TIP3    H246791   2.851   3.116   3.956  2.6910 -1.2910 -1.0750
 8434TIP3   OH246792   2.806   1.008  12.153  0.4668  0.3808 -0.1662
 8434TIP3    H146793   2.761   1.011  12.069 -0.5629  1.0769  0.3922
 8434TIP3    H246794   2.774   0.928  12.195 -0.2161  0.8454  0.2066
 8435TIP3   OH246795   5.461   3.647  12.022  0.5115  0.3668  0.9446
 8435TIP3    H146796   5.519   3.717  12.050 -0.1565  0.9847  0.8239
 8435TIP3    H246797   5.388   3.692  11.980  1.2865 -0.4786 -1.4915
 8436TIP3   OH246798   3.502   1.661  14.324  0.1635 -0.1755 -0.1624
 8436TIP3    H146799   3.452   1.612  14.260 -0.0029  2.5695 -2.3457
 8436TIP3    H246800   3.436   1.703  14.380  0.2095 -0.4084  0.0678
 8437TIP3   OH246801   3.489   2.992   5.118  0.2689 -0.0268 -0.8168
 8437TIP3    H146802   3.444   3.069   5.154  0.4260 -0.7083  0.9635
 8437TIP3    H246803   3.581   3.019   5.113  0.2866 -0.0070 -0.4248
 8438TIP3   OH246804   1.344   3.099   2.923  0.1913  0.4017  0.3284
 8438TIP3    H146805   1.253   3.104   2.952  0.6242  0.1505  1.7854
 8438TIP3    H246806   1.394   3.083   3.002  1.2437 -2.3926 -0.7560
 8439TIP3   OH246807   2.795   4.787  13.779  0.2471  0.0937  0.5998
 8439TIP3    H146808   2.850   4.733  13.836  0.3275  1.4367  1.8642
 8439TIP3    H246809   2.820   4.762  13.690  3.2089  0.9083  1.0964
 8440TIP3   OH246810   3.500   5.650  16.526 -0.3949  0.1961 -0.7342
 8440TIP3    H146811   3.485   5.597  16.447  2.0045 -3.0547  0.7304
 8440TIP3    H246812   3.594   5.642  16.542 -0.1962  3.5889  0.6846
 8441TIP3   OH246813   6.783   3.861   2.805  0.3446 -0.2627  0.3778
 8441TIP3    H146814   6.716   3.820   2.860  0.0064  0.5431  0.5758
 8441TIP3    H246815   6.748   3.855   2.716  1.4959 -2.8062  0.0007
 8442TIP3   OH246816   1.324   6.023  16.651  0.6455  0.0334 -1.1849
 8442TIP3    H146817   1.353   5.932  16.648 -0.6001 -0.4248 -0.2528
 8442TIP3    H246818   1.358   6.055  16.735 -0.0382  0.0200 -0.9006
 8443TIP3   OH246819   1.582   6.375  11.987  0.4645 -0.6587  0.3982
 8443TIP3    H146820   1.505   6.345  12.035 -0.0067 -0.7198 -0.3753
 8443TIP3    H246821   1.554   6.374  11.895  0.5157  1.7911  0.2854
 8444TIP3   OH246822   0.198   2.488  17.127  0.0923  0.4147  0.1733
 8444TIP3    H146823   0.174   2.532  17.208  0.1165  1.1649 -0.2198
 8444TIP3    H246824   0.293   2.477  17.132  0.0678  0.2824  0.3354
 8445TIP3   OH246825   1.869   5.739   0.925  0.0109 -0.1178  0.8095
 8445TIP3    H146826   1.915   5.787   0.995 -0.3052 -0.2307  1.0976
 8445TIP3    H246827   1.777   5.746   0.949 -0.1878  0.6584 -0.1116
 8446TIP3   OH246828   1.493   1.648   3.712  0.1114 -0.8437  0.0375
 8446TIP3    H146829   1.437   1.605   3.777  0.2917 -1.3478 -0.1387
 8446TIP3    H246830   1.463   1.739   3.713  0.4134 -0.7323  1.1521
 8447TIP3   OH246831   4.754   6.100   1.009 -0.6790 -0.5170  0.5156
 8447TIP3    H146832   4.766   6.013   0.971 -1.8802 -0.8522  0.8543
 8447TIP3    H246833   4.668   6.095   1.052 -0.5563  0.6959  0.9220
 8448TIP3   OH246834   2.166   5.232   0.547  1.1153 -0.0775 -0.7743
 8448TIP3    H146835   2.149   5.308   0.492 -1.0432  1.0308  1.2295
 8448TIP3    H246836   2.100   5.238   0.617  1.8669 -2.9510  0.3219
 8449TIP3   OH246837   0.717   1.581   1.816  0.2013 -0.1480 -0.2243
 8449TIP3    H146838   0.779   1.573   1.744  2.8370  0.1763  1.8370
 8449TIP3    H246839   0.685   1.671   1.810  0.8407  0.0563 -0.6447
 8450TIP3   OH246840   3.965   4.024  15.394 -0.2482  0.0714  0.3916
 8450TIP3    H146841   3.931   4.085  15.329  0.1966  0.0302  0.1204
 8450TIP3    H246842   3.994   4.080  15.466 -1.5122  0.0714  0.9267
 8451TIP3   OH246843   3.422   2.729  11.839 -0.0111  0.1439 -0.2824
 8451TIP3    H146844   3.405   2.782  11.761  1.5294  0.5548 -0.3770
 8451TIP3    H246845   3.393   2.783  11.912  2.3711  1.6082 -0.3060
 8452TIP3   OH246846   5.609   4.869  13.138  0.3011 -0.5541  0.8445
 8452TIP3    H146847   5.684   4.926  13.154  1.3401 -2.0511  1.6189
 8452TIP3    H246848   5.616   4.801  13.205 -0.8289 -1.6470 -0.0918
 8453TIP3   OH246849   0.835   4.965  15.254 -0.2538  0.2328  0.0445
 8453TIP3    H146850   0.746   5.002  15.258 -0.4992 -0.4137  1.2930
 8453TIP3    H246851   0.863   4.962  15.346  1.6867  1.8285 -0.4094
 8454TIP3   OH246852   1.480   6.627  10.864  0.1923  0.3552 -0.2604
 8454TIP3    H146853   1.544   6.698  10.857  0.3777  0.0755 -1.6862
 8454TIP3    H246854   1.399   6.664  10.828  0.2375 -0.0893 -0.8254
 8455TIP3   OH246855   1.891   5.373  10.627  0.2330 -0.1765  0.3558
 8455TIP3    H146856   1.901   5.349  10.719 -0.4559 -0.7389  0.2950
 8455TIP3    H246857   1.838   5.453  10.629 -0.3333 -0.5444  0.4339
 8456TIP3   OH246858   1.356   5.044   0.763  0.0720  0.5521  0.5913
 8456TIP3    H146859   1.321   5.132   0.778  2.4528  1.5891  0.5257
 8456TIP3    H246860   1.371   5.040   0.669  1.7578  0.8404  0.8240
 8457TIP3   OH246861   2.342   3.323   5.336  0.5334 -0.2074 -0.2227
 8457TIP3    H146862   2.417   3.272   5.307  0.2373 -0.1441 -1.1338
 8457TIP3    H246863   2.295   3.345   5.255 -1.0836 -1.2060  0.3888
 8458TIP3   OH246864   2.848   0.364   3.270  0.4931 -0.1395 -0.7982
 8458TIP3    H146865   2.834   0.383   3.177 -2.7468 -0.4271 -0.4737
 8458TIP3    H246866   2.805   0.280   3.284 -0.7576  0.7711  1.3107
 8459TIP3   OH246867   2.899   6.049  14.377 -0.4112  0.0067  0.3963
 8459TIP3    H146868   2.912   6.135  14.417  0.5851 -0.1578  0.4465
 8459TIP3    H246869   2.852   5.998  14.443 -1.1674  0.5508  0.2996
 8460TIP3   OH246870   6.296   1.500   0.835 -0.6137  0.2559 -0.1583
 8460TIP3    H146871   6.329   1.527   0.750 -1.7657  0.6851 -0.4891
 8460TIP3    H246872   6.260   1.580   0.874 -2.1291 -0.3471 -0.2448
 8461TIP3   OH246873   3.401   0.563   5.143 -0.1483 -0.0507 -0.0468
 8461TIP3    H146874   3.408   0.469   5.157 -1.9346 -0.3763 -1.0560
 8461TIP3    H246875   3.479   0.599   5.184 -0.9979 -1.6463  3.3313
 8462TIP3   OH246876   5.596   3.832  14.049  0.1246 -0.0406 -0.0116
 8462TIP3    H146877   5.643   3.797  13.973 -1.5627  1.9520 -2.0993
 8462TIP3    H246878   5.663   3.842  14.117  3.0890  3.5650 -3.0847
 8463TIP3   OH246879   2.457   6.516  14.660  0.2372 -0.7318  0.7131
 8463TIP3    H146880   2.498   6.447  14.712 -0.5842 -0.8693  1.2019
 8463TIP3    H246881   2.467   6.487  14.569  1.2757 -0.7150  0.8133
 8464TIP3   OH246882   0.410   6.456   0.157 -0.5091  0.2537 -0.3560
 8464TIP3    H146883   0.333   6.492   0.200 -0.6456 -0.4114 -0.0450
 8464TIP3    H246884   0.376   6.412   0.080 -0.7607 -2.2441  1.0896
 8465TIP3   OH246885   0.391   4.829  12.950  0.5722  0.7285 -0.3162
 8465TIP3    H146886   0.338   4.835  12.871 -0.9336  0.8768  0.6598
 8465TIP3    H246887   0.442   4.910  12.951  0.9871  0.4870 -1.3803
 8466TIP3   OH246888   1.839   5.025  11.135 -0.1553  0.2901  0.4109
 8466TIP3    H146889   1.929   5.053  11.151  0.2079 -1.7490  2.4111
 8466TIP3    H246890   1.843   4.976  11.053  0.0233  2.1915 -0.7820
 8467TIP3   OH246891   1.755   2.779   3.010  0.0897 -0.1620 -0.2876
 8467TIP3    H146892   1.849   2.774   3.025  0.4059  0.1751 -1.9324
 8467TIP3    H246893   1.737   2.871   2.993 -0.7113 -0.0754  0.9437
 8468TIP3   OH246894   6.463   4.259  11.890 -0.8395 -0.0841  0.1021
 8468TIP3    H146895   6.497   4.335  11.937 -1.1352  0.0901  0.0355
 8468TIP3    H246896   6.470   4.187  11.952  1.9576 -0.6118 -0.6723
 8469TIP3   OH246897   6.598   0.211  12.225 -0.5437 -0.6564  0.0443
 8469TIP3    H146898   6.589   0.121  12.255  1.4163 -0.4168  1.5822
 8469TIP3    H246899   6.649   0.254  12.294 -2.7625  2.0712  0.1756
 8470TIP3   OH246900   4.015   5.152   3.379  0.2589  0.4656  0.1916
 8470TIP3    H146901   4.109   5.164   3.394  0.5259 -1.3660  0.1879
 8470TIP3    H246902   3.980   5.241   3.376  2.4717  1.4133 -2.8825
 8471TIP3   OH246903   4.722   1.902  14.485 -0.0370 -0.1406  0.4127
 8471TIP3    H146904   4.650   1.842  14.503  1.6228 -2.9830 -1.6486
 8471TIP3    H246905   4.774   1.901  14.566 -0.9951  0.0064  1.0450
 8472TIP3   OH246906   6.704   4.722  13.378 -0.5578 -0.4018 -0.6245
 8472TIP3    H146907   6.638   4.658  13.354  0.8947 -2.2529  0.0742
 8472TIP3    H246908   6.706   4.722  13.473 -0.8597  1.0741 -0.5895
 8473TIP3   OH246909   3.380   2.367  14.901  0.0369  0.8904  0.7870
 8473TIP3    H146910   3.408   2.448  14.943  1.2510 -0.4795  2.8030
 8473TIP3    H246911   3.461   2.317  14.889 -0.8285 -0.6821  1.1351
 8474TIP3   OH246912   6.543   3.061   4.784 -0.7579 -0.2755  0.2080
 8474TIP3    H146913   6.520   3.071   4.691  1.6865 -2.4705 -0.7683
 8474TIP3    H246914   6.509   2.975   4.807 -0.6554 -0.0682  1.1456
 8475TIP3   OH246915   1.970   3.354   6.774 -0.3707 -0.1063  0.4992
 8475TIP3    H146916   2.020   3.425   6.733 -1.6753 -0.1798 -1.3384
 8475TIP3    H246917   1.897   3.397   6.817 -0.4699 -0.2406  0.4669
 8476TIP3   OH246918   6.000   4.016  13.550  0.3585  0.4307 -0.1510
 8476TIP3    H146919   5.921   4.037  13.600  0.9048  0.6752  0.6211
 8476TIP3    H246920   6.070   4.016  13.615  0.4959 -3.6382 -0.0240
 8477TIP3   OH246921   2.940   5.498   3.978 -0.0778  0.1968 -0.1888
 8477TIP3    H146922   2.893   5.503   3.895 -2.3298 -2.7985  0.7364
 8477TIP3    H246923   2.877   5.527   4.044 -0.1729 -2.3028  0.9228
 8478TIP3   OH246924   2.054   1.161   2.723 -0.1369  0.5716  0.1639
 8478TIP3    H146925   2.048   1.200   2.811  1.4018 -0.0325  0.5739
 8478TIP3    H246926   2.057   1.067   2.738 -0.8315  0.4198 -0.6118
 8479TIP3   OH246927   6.085   0.524   0.073  0.5052 -0.0746  0.7120
 8479TIP3    H146928   6.052   0.450   0.124 -0.3324 -0.7297 -0.7392
 8479TIP3    H246929   6.179   0.506   0.062  0.1285 -1.4888 -0.4886
 8480TIP3   OH246930   3.941   4.490   1.562 -0.0067 -0.4705  0.7223
 8480TIP3    H146931   3.873   4.495   1.629 -2.1193  0.2929 -1.3431
 8480TIP3    H246932   3.941   4.577   1.522  0.1823 -1.3087 -1.1872
 8481TIP3   OH246933   3.472   3.081   2.287 -0.1367 -0.6621  0.3304
 8481TIP3    H146934   3.377   3.069   2.283  0.0514 -2.3207 -3.6284
 8481TIP3    H246935   3.490   3.152   2.225  1.3148 -1.8679 -0.6982
 8482TIP3   OH246936   1.678   3.903  13.759  0.7722 -0.0157 -0.4071
 8482TIP3    H146937   1.668   3.950  13.676 -0.2684 -1.4255 -1.1442
 8482TIP3    H246938   1.715   3.967  13.819 -1.4168  2.0492 -1.0719
 8483TIP3   OH246939   1.939   5.134   0.200  0.4435  0.7788 -0.1459
 8483TIP3    H146940   2.020   5.112   0.246  0.4032 -0.2226 -0.5400
 8483TIP3    H246941   1.918   5.223   0.230  0.1060 -0.0308  2.2000
 8484TIP3   OH246942   1.219   4.112   0.803 -0.6750 -0.2792 -0.8174
 8484TIP3    H146943   1.273   4.085   0.877  1.7796 -0.3165 -2.5299
 8484TIP3    H246944   1.133   4.128   0.842  0.8815  1.3891  2.3767
 8485TIP3   OH246945   5.828   5.866  14.285  0.7619  0.5348  0.5447
 8485TIP3    H146946   5.868   5.786  14.250  2.4957  1.1722  0.9597
 8485TIP3    H246947   5.750   5.879  14.232  1.1550 -0.7253 -0.3937
 8486TIP3   OH246948   3.116   0.054   1.144 -0.3132 -0.3285  0.0479
 8486TIP3    H146949   3.149   0.137   1.179  0.2742 -0.4470 -0.2059
 8486TIP3    H246950   3.053   0.024   1.209 -0.5429  0.3242  0.1347
 8487TIP3   OH246951   6.676   5.941  13.378  0.1272 -0.0878  0.3201
 8487TIP3    H146952   6.691   5.862  13.326  2.3683  0.6808 -0.3513
 8487TIP3    H246953   6.733   5.930  13.455 -0.7897  0.1732  1.0611
 8488TIP3   OH246954   5.508   4.745   1.169 -0.6302 -0.1515  0.3896
 8488TIP3    H146955   5.523   4.826   1.121 -1.7352 -0.6137 -0.8134
 8488TIP3    H246956   5.586   4.734   1.223  0.0893  1.0680 -0.3546
 8489TIP3   OH246957   6.714   5.298  15.751  0.1154  0.6225  0.4855
 8489TIP3    H146958   6.671   5.383  15.760 -1.6150 -0.0240 -1.1079
 8489TIP3    H246959   6.742   5.295  15.659  2.6937  0.5649  1.1870
 8490TIP3   OH246960   2.744   5.204  15.283 -0.5606 -0.0253  0.0179
 8490TIP3    H146961   2.804   5.215  15.209 -2.3717 -0.1881 -1.5232
 8490TIP3    H246962   2.740   5.110  15.297 -0.8120 -0.0471 -0.1930
 8491TIP3   OH246963   6.082   4.965   1.961  0.1898  0.4379  0.1460
 8491TIP3    H146964   6.163   5.006   1.989 -1.1919  2.7261  1.0924
 8491TIP3    H246965   6.087   4.965   1.865  1.6439 -0.2791  0.1983
 8492TIP3   OH246966   4.298   5.995  12.018  1.1899  0.3210 -0.1140
 8492TIP3    H146967   4.208   6.030  12.015  0.8098 -0.6410 -0.1203
 8492TIP3    H246968   4.320   5.994  12.111 -0.0358 -2.4482  0.2343
 8493TIP3   OH246969   4.498   5.466  15.272 -0.0898 -0.0028 -0.0917
 8493TIP3    H146970   4.469   5.392  15.218 -0.2275  0.7120 -1.0242
 8493TIP3    H246971   4.561   5.512  15.217  0.7917 -0.0065  0.8869
 8494TIP3   OH246972   5.118   6.741  10.521 -0.4265  0.4242 -0.1251
 8494TIP3    H146973   5.103   6.649  10.502  0.0947  0.2059  0.4777
 8494TIP3    H246974   5.209   6.756  10.495  0.0446  0.3175  1.3945
 8495TIP3   OH246975   5.783   3.851  10.892 -0.1789  0.1166  0.3124
 8495TIP3    H146976   5.757   3.771  10.847 -0.9762  1.1614 -1.1312
 8495TIP3    H246977   5.860   3.882  10.845 -0.4926  0.7546  0.2124
 8496TIP3   OH246978   0.473   3.917   0.257 -0.4806 -0.3446 -0.0049
 8496TIP3    H146979   0.559   3.896   0.221  0.4987  0.6047  1.6614
 8496TIP3    H246980   0.413   3.907   0.183  1.5103  2.2620 -2.1789
 8497TIP3   OH246981   6.806   1.911  14.711 -0.0151 -0.5127  0.0498
 8497TIP3    H146982   6.777   2.002  14.718  0.3951 -0.4281  0.6893
 8497TIP3    H246983   6.770   1.881  14.627 -3.2058 -0.8537  1.4098
 8498TIP3   OH246984   1.583   1.889  13.027  0.3926  0.0411 -0.2740
 8498TIP3    H146985   1.520   1.840  13.080 -1.1270  1.8437 -0.2995
 8498TIP3    H246986   1.572   1.853  12.938 -0.5577  0.2619 -0.2572
 8499TIP3   OH246987   2.686   5.384  10.421  0.2445  0.0634 -0.5414
 8499TIP3    H146988   2.615   5.368  10.358  1.3137  0.8372 -2.0238
 8499TIP3    H246989   2.661   5.336  10.499 -2.3908  1.0741 -0.6750
 8500TIP3   OH246990   5.559   0.034  11.608 -0.0895  0.5724  0.4334
 8500TIP3    H146991   5.619   0.070  11.674  0.9922 -1.1904  0.4787
 8500TIP3    H246992   5.614   0.016  11.532 -0.8326  0.2032 -0.0280
 8501TIP3   OH246993   2.846   1.815   1.171  0.3928 -0.1465 -0.0153
 8501TIP3    H146994   2.907   1.821   1.245 -0.2129 -0.5177  0.5348
 8501TIP3    H246995   2.786   1.889   1.183  2.2746  1.8774 -2.0625
 8502TIP3   OH246996   4.549   5.952  14.555 -0.4865  0.8315 -0.1378
 8502TIP3    H146997   4.596   5.911  14.628 -1.5912 -0.8595 -0.3239
 8502TIP3    H246998   4.472   5.991  14.595 -0.5172  0.8941 -0.2556
 8503TIP3   OH246999   4.857   1.052   2.213  0.2291  0.1734  0.0745
 8503TIP3    H147000   4.807   1.112   2.268 -1.1539  0.0866 -1.0458
 8503TIP3    H247001   4.870   1.099   2.131  0.0481 -0.6495 -0.4411
 8504TIP3   OH247002   2.541   5.846  13.558 -0.1686 -0.1356 -0.0843
 8504TIP3    H147003   2.484   5.809  13.625  0.2845  1.5778  1.3034
 8504TIP3    H247004   2.629   5.835  13.592  0.1753 -0.4085 -1.0189
 8505TIP3   OH247005   5.292   5.800   1.440  0.4591  0.4415  0.4564
 8505TIP3    H147006   5.272   5.775   1.530 -0.8463  0.2707  0.1469
 8505TIP3    H247007   5.371   5.853   1.446 -0.7573  2.2148  1.9804
 8506TIP3   OH247008   4.016   6.396   5.565  0.2547  0.3901  0.0408
 8506TIP3    H147009   3.952   6.429   5.502  1.0956  0.2027 -0.9466
 8506TIP3    H247010   4.017   6.462   5.635 -0.7491  0.5669 -0.0906
 8507TIP3   OH247011   6.287   5.556   5.883 -0.4020  0.5388 -0.1066
 8507TIP3    H147012   6.367   5.603   5.905  1.2384 -1.1916 -1.8867
 8507TIP3    H247013   6.276   5.493   5.954 -0.7000  1.3588  0.5852
 8508TIP3   OH247014   6.782   5.494   3.705 -0.3375 -0.2069 -0.1159
 8508TIP3    H147015   6.861   5.454   3.669 -0.6923  0.1007 -1.2728
 8508TIP3    H247016   6.717   5.485   3.636 -1.5144 -1.0166  1.0582
 8509TIP3   OH247017   1.408   3.681  10.308  0.0705  0.2550 -0.3969
 8509TIP3    H147018   1.345   3.629  10.258 -0.9496  1.5072 -0.4282
 8509TIP3    H247019   1.391   3.658  10.399 -0.5612  0.7369 -0.3932
 8510TIP3   OH247020   2.395   6.455  12.144 -0.0743  0.0012  0.0101
 8510TIP3    H147021   2.327   6.517  12.119  0.6791  0.5591 -0.7005
 8510TIP3    H247022   2.462   6.464  12.077  2.0233  1.5541  2.1268
 8511TIP3   OH247023   2.851   3.964   5.620 -0.6928 -0.0149 -0.3283
 8511TIP3    H147024   2.863   4.005   5.706 -0.0765 -2.5314  0.8865
 8511TIP3    H247025   2.931   3.987   5.571 -0.9902  1.3316 -0.2135
 8512TIP3   OH247026   0.607   3.436   5.884 -0.7073  0.0947  0.1274
 8512TIP3    H147027   0.631   3.471   5.970  0.2117 -1.5964  0.6197
 8512TIP3    H247028   0.577   3.512   5.834 -0.8731  1.1847  1.8020
 8513TIP3   OH247029   6.473   3.899  10.904 -0.1303  0.3691 -0.0793
 8513TIP3    H147030   6.549   3.888  10.961 -0.6017 -1.4026  0.2921
 8513TIP3    H247031   6.475   3.991  10.878 -0.0503  1.3475  3.0009
 8514TIP3   OH247032   3.321   3.804   3.885  0.6116 -0.5615 -0.1096
 8514TIP3    H147033   3.404   3.800   3.934 -0.9075 -0.1111  2.7174
 8514TIP3    H247034   3.254   3.803   3.953 -1.7174 -0.2706 -2.2903
 8515TIP3   OH247035   3.690   5.211   4.564  0.2824 -0.3849  0.5768
 8515TIP3    H147036   3.719   5.293   4.525 -0.6633 -0.7474 -0.9729
 8515TIP3    H247037   3.751   5.196   4.637  1.0550  1.1831  0.2927
 8516TIP3   OH247038   5.323   4.478   2.441  0.3432 -0.4865  0.2045
 8516TIP3    H147039   5.280   4.512   2.363 -0.4383  0.8818  1.1989
 8516TIP3    H247040   5.299   4.539   2.511  0.1022 -2.2602  1.7606
 8517TIP3   OH247041   5.090   5.965  12.281 -0.5897  1.3202  0.4072
 8517TIP3    H147042   5.061   5.955  12.371 -0.5891  1.0986  0.3845
 8517TIP3    H247043   5.091   6.059  12.266 -1.5568  1.3250  0.3199
 8518TIP3   OH247044   2.884   4.437   4.816  0.5050 -0.2365  0.5442
 8518TIP3    H147045   2.794   4.441   4.848 -0.2891  1.5056 -1.6657
 8518TIP3    H247046   2.888   4.356   4.766 -0.9386  1.2079 -2.1039
 8519TIP3   OH247047   6.265   1.814   4.701  0.3458 -0.2238  0.6009
 8519TIP3    H147048   6.310   1.891   4.736  0.2204 -0.0403  0.3627
 8519TIP3    H247049   6.219   1.776   4.776 -0.2260  0.3814  0.5631
 8520TIP3   OH247050   3.236   5.970   4.551 -0.3821  0.1807 -0.3246
 8520TIP3    H147051   3.294   5.896   4.536  1.8002  1.5551  0.7901
 8520TIP3    H247052   3.257   6.000   4.639 -2.5015  1.0358 -0.0471
 8521TIP3   OH247053   1.980   3.315   0.838 -0.1939  0.6179 -0.0030
 8521TIP3    H147054   2.036   3.285   0.765 -0.0001  1.5083 -0.2250
 8521TIP3    H247055   2.041   3.335   0.908 -0.4616 -1.7389  1.0069
 8522TIP3   OH247056   2.998   2.378   3.126 -0.5745  0.7129 -0.1071
 8522TIP3    H147057   2.909   2.374   3.160 -1.1963  1.5504 -1.5505
 8522TIP3    H247058   2.990   2.424   3.043  0.7742 -1.7269 -1.7066
 8523TIP3   OH247059   2.472   1.209  16.408 -0.7026  0.0320  0.5957
 8523TIP3    H147060   2.425   1.291  16.426  0.9711  0.8783  1.4287
 8523TIP3    H247061   2.554   1.238  16.369  0.1469 -1.2123  1.4027
 8524TIP3   OH247062   3.458   4.072  14.614 -0.0927 -0.0394  0.0456
 8524TIP3    H147063   3.543   4.083  14.572  0.7325 -0.5447  1.5248
 8524TIP3    H247064   3.447   3.977  14.622 -0.4628  0.0372  0.5050
 8525TIP3   OH247065   0.233   1.719  11.319  0.4133  0.3882 -0.2674
 8525TIP3    H147066   0.297   1.688  11.383  0.1675 -1.1134 -0.7051
 8525TIP3    H247067   0.285   1.746  11.243  0.6106  0.7938  0.0047
 8526TIP3   OH247068   0.484   5.890  12.866 -0.6259 -0.2564 -0.1951
 8526TIP3    H147069   0.471   5.832  12.941 -1.3084  1.1331  0.8204
 8526TIP3    H247070   0.579   5.899  12.858 -0.5473  0.1096  0.9703
 8527TIP3   OH247071   2.228   5.406  12.099  0.4424 -0.3037  0.6219
 8527TIP3    H147072   2.138   5.375  12.105 -0.4024  2.0301  0.8361
 8527TIP3    H247073   2.224   5.482  12.041  2.0519  0.6243  1.6451
 8528TIP3   OH247074   2.878   4.930   0.751  0.1171 -0.5179 -0.4116
 8528TIP3    H147075   2.935   5.006   0.755  1.3213 -1.3517 -0.9337
 8528TIP3    H247076   2.806   4.949   0.812  0.2473  1.1214 -0.7449
 8529TIP3   OH247077   2.463   4.059   5.553  0.1652 -0.7106  0.0368
 8529TIP3    H147078   2.488   3.970   5.528 -0.3592 -1.6137  2.4231
 8529TIP3    H247079   2.371   4.067   5.529  0.0566 -1.0351  0.3436
 8530TIP3   OH247080   1.151   1.656   2.922 -0.1655 -0.3170  0.5043
 8530TIP3    H147081   1.057   1.644   2.934  0.0459  0.2970  3.6506
 8530TIP3    H247082   1.184   1.678   3.009  3.3660 -3.3548  0.1881
 8531TIP3   OH247083   6.616   4.018   4.941 -0.2655 -0.1599  0.3957
 8531TIP3    H147084   6.695   4.011   4.995  0.4481 -0.4028 -0.6443
 8531TIP3    H247085   6.550   3.967   4.988  0.5979 -1.1459  0.5839
 8532TIP3   OH247086   3.668   4.635  14.356  1.0544 -0.6417 -0.3555
 8532TIP3    H147087   3.715   4.693  14.417  1.7556 -1.8948  0.3389
 8532TIP3    H247088   3.602   4.591  14.410  0.0829 -0.0309 -1.0131
 8533TIP3   OH247089   2.608   4.094  16.133  0.0711 -0.6606 -0.2719
 8533TIP3    H147090   2.560   4.012  16.139  0.1865 -0.6443  1.1903
 8533TIP3    H247091   2.607   4.130  16.222  2.9906 -0.7776 -0.0771
 8534TIP3   OH247092   2.664   3.290   0.612  0.4543 -0.5630  0.2642
 8534TIP3    H147093   2.705   3.290   0.526  0.1352  1.8690  0.0385
 8534TIP3    H247094   2.570   3.301   0.594  0.3796 -0.0759  0.9115
 8535TIP3   OH247095   0.453   4.358  14.946  0.4266  0.5481  0.2528
 8535TIP3    H147096   0.532   4.315  14.912 -0.1549 -0.6906  0.3955
 8535TIP3    H247097   0.479   4.391  15.032  1.7470  3.1925 -1.0192
 8536TIP3   OH247098   6.232   6.637  12.534 -0.0245  0.2331  0.0680
 8536TIP3    H147099   6.246   6.732  12.544 -0.4873  0.1885  1.4102
 8536TIP3    H247100   6.138   6.629  12.514  0.4939  0.1758 -2.6605
 8537TIP3   OH247101   1.355   2.972  13.602  0.4815  0.0834 -0.0220
 8537TIP3    H147102   1.274   3.022  13.593  0.8683  0.6796 -0.2195
 8537TIP3    H247103   1.376   2.943  13.513  0.6749  0.2263 -0.0239
 8538TIP3   OH247104   5.303   0.090   5.599 -0.5446 -0.0310 -0.3632
 8538TIP3    H147105   5.306   0.043   5.682  0.6860 -1.2124 -1.0433
 8538TIP3    H247106   5.253   0.033   5.541 -1.8633  1.0316 -0.3200
 8539TIP3   OH247107   0.035   0.363   0.290  0.2884  0.5470  0.5146
 8539TIP3    H147108   0.014   0.370   0.383  0.6228  0.2866  0.6133
 8539TIP3    H247109   0.108   0.423   0.277  0.8083 -0.0536  0.6064
 8540TIP3   OH247110   0.362   3.908  11.081  0.1475  0.4345  0.4500
 8540TIP3    H147111   0.397   3.836  11.028  0.6504  1.1574 -0.2189
 8540TIP3    H247112   0.301   3.953  11.023 -0.5766  0.2408  1.0416
 8541TIP3   OH247113   5.774   1.637  13.894  0.1127 -0.1141 -0.1079
 8541TIP3    H147114   5.755   1.548  13.864  0.8053  0.1441 -1.3622
 8541TIP3    H247115   5.789   1.687  13.814  0.6499  0.9208  0.6171
 8542TIP3   OH247116   3.334   1.269  14.832  0.0771 -0.6914 -0.6045
 8542TIP3    H147117   3.332   1.256  14.737 -1.9333 -1.8144 -0.4581
 8542TIP3    H247118   3.342   1.180  14.868  2.9301 -0.1660  0.3193
 8543TIP3   OH247119   1.486   1.464   1.996 -0.0178  0.2282 -0.6752
 8543TIP3    H147120   1.542   1.530   1.955 -0.3464 -0.5990 -2.5749
 8543TIP3    H247121   1.441   1.422   1.923 -2.2334  0.0345  0.7026
 8544TIP3   OH247122   5.266   2.452   6.303 -0.2786 -0.8528 -0.2562
 8544TIP3    H147123   5.344   2.460   6.249  0.3541 -0.0002  0.7530
 8544TIP3    H247124   5.279   2.371   6.353  1.2792  0.6331  1.8953
 8545TIP3   OH247125   5.998   2.952   2.906 -0.5841  0.2802 -0.2993
 8545TIP3    H147126   5.991   2.897   2.828  1.4933 -0.0168 -0.3322
 8545TIP3    H247127   5.969   3.038   2.877 -3.3487 -0.5708 -0.3934
 8546TIP3   OH247128   1.524   0.604   3.441 -0.0674  0.6566 -0.1676
 8546TIP3    H147129   1.574   0.683   3.417  0.6230  0.3687  0.2867
 8546TIP3    H247130   1.554   0.583   3.530 -0.2153 -0.1376 -0.2981
 8547TIP3   OH247131   1.543   4.756   2.332  0.1807  0.1655  0.0317
 8547TIP3    H147132   1.465   4.752   2.388  0.5601  0.7023  0.6029
 8547TIP3    H247133   1.615   4.773   2.393  0.4920  1.5988 -0.7118
 8548TIP3   OH247134   0.977   6.433  13.826  0.0195  0.0832 -0.1335
 8548TIP3    H147135   0.967   6.372  13.899 -0.5098  1.1259  0.6942
 8548TIP3    H247136   0.890   6.470  13.813  0.6340  1.8698  0.4900
 8549TIP3   OH247137   3.398   1.908  14.924  0.2057 -0.0996 -0.0809
 8549TIP3    H147138   3.375   1.940  15.012 -0.5071 -1.9343  0.4656
 8549TIP3    H247139   3.437   1.822  14.940 -1.2300 -1.1113 -1.6064
 8550TIP3   OH247140   6.743   5.537   1.989  0.6083 -0.4767  0.5934
 8550TIP3    H147141   6.735   5.505   2.078  1.5661 -2.1580  0.1103
 8550TIP3    H247142   6.706   5.625   1.992  1.9508  0.0964  2.9720
 8551TIP3   OH247143   4.369   5.293   4.648  0.5258 -0.1950 -0.2886
 8551TIP3    H147144   4.399   5.356   4.714  0.0146  2.1269 -2.1346
 8551TIP3    H247145   4.448   5.268   4.601  0.3881  1.5797 -1.5563
 8552TIP3   OH247146   6.713   1.129   5.507  0.5716  0.2409  0.5368
 8552TIP3    H147147   6.624   1.123   5.541  0.7196 -2.0997  0.6826
 8552TIP3    H247148   6.753   1.200   5.557 -1.0077  0.8989  0.9246
 8553TIP3   OH247149   2.946   4.045  11.422 -0.4791  0.4082 -0.4293
 8553TIP3    H147150   2.972   4.128  11.461 -1.9199  1.7872 -2.2507
 8553TIP3    H247151   3.021   4.019  11.368  0.4432 -0.1370  1.0526
 8554TIP3   OH247152   0.072   0.522  16.530  0.0390 -0.1448  0.3095
 8554TIP3    H147153   0.125   0.446  16.507  0.5444  0.7086 -1.5665
 8554TIP3    H247154   0.135   0.594  16.534 -0.6434  0.4516  0.5473
 8555TIP3   OH247155   6.449   1.976   4.277 -0.0166  1.2723 -0.2696
 8555TIP3    H147156   6.442   2.020   4.193  0.6308  0.7917 -0.5789
 8555TIP3    H247157   6.502   2.034   4.331  0.3956  1.1155 -0.5085
 8556TIP3   OH247158   5.002   2.627  14.224  0.9139 -0.1388  0.0795
 8556TIP3    H147159   5.003   2.722  14.207 -1.6901 -0.0218  0.2625
 8556TIP3    H247160   4.933   2.615  14.290  0.7414 -2.2419 -0.4175
 8557TIP3   OH247161   5.475   1.708  12.972  0.3973  0.4007  0.2171
 8557TIP3    H147162   5.448   1.736  12.884  2.8634  0.9384 -0.4498
 8557TIP3    H247163   5.552   1.762  12.991  0.3777 -0.2605  2.4095
 8558TIP3   OH247164   4.081   0.780  16.030  0.2972  0.3342 -0.5907
 8558TIP3    H147165   3.996   0.810  15.997 -0.9388 -1.2465  0.9284
 8558TIP3    H247166   4.076   0.794  16.124  0.9379 -1.5169 -0.2427
 8559TIP3   OH247167   3.832   0.116  15.970 -0.6151 -0.0011 -0.1223
 8559TIP3    H147168   3.921   0.089  15.992 -1.0606 -1.2586  0.1853
 8559TIP3    H247169   3.833   0.124  15.875 -0.1726  0.0403 -0.1199
 8560TIP3   OH247170   0.556   6.465  16.448  0.0298 -0.3126 -0.7793
 8560TIP3    H147171   0.530   6.542  16.396  1.2204  0.7954  0.2069
 8560TIP3    H247172   0.511   6.392  16.405 -0.5713  0.8180 -2.1903
 8561TIP3   OH247173   6.047   2.278  11.424 -0.0322 -0.5376  0.2966
 8561TIP3    H147174   6.095   2.327  11.357 -1.7923 -0.0327 -0.6732
 8561TIP3    H247175   6.089   2.303  11.507  2.2417 -1.2400 -0.5751
 8562TIP3   OH247176   5.498   0.384  16.486 -0.6824 -0.2198  0.1921
 8562TIP3    H147177   5.556   0.446  16.441  0.2375  0.7658  2.5780
 8562TIP3    H247178   5.540   0.370  16.571 -2.9646 -1.0046  1.2592
 8563TIP3   OH247179   4.220   4.654  11.426 -0.1939  0.4705  0.4458
 8563TIP3    H147180   4.218   4.750  11.431 -0.8972  0.5595 -0.8923
 8563TIP3    H247181   4.156   4.633  11.358  0.3467 -0.9293  0.3409
 8564TIP3   OH247182   5.400   3.760   6.331 -0.1170 -0.4539 -0.3071
 8564TIP3    H147183   5.370   3.841   6.373 -0.5949  0.1706 -1.7422
 8564TIP3    H247184   5.393   3.693   6.398  0.4358  0.7269  0.9666
 8565TIP3   OH247185   1.445   5.876   4.826  0.0943  0.1575  0.3272
 8565TIP3    H147186   1.432   5.884   4.732 -0.6454  1.9770  0.5408
 8565TIP3    H247187   1.540   5.875   4.838  0.2001  0.8480 -0.3913
 8566TIP3   OH247188   5.036   2.647   0.872  0.0762  0.5194 -0.4065
 8566TIP3    H147189   5.030   2.673   0.964 -1.5531  2.4425 -0.9890
 8566TIP3    H247190   4.949   2.613   0.852  0.7676 -0.9863 -0.9670
 8567TIP3   OH247191   5.347   1.990  13.407 -0.2732 -0.2248 -0.3582
 8567TIP3    H147192   5.255   1.966  13.415 -0.0079 -1.0412  0.4377
 8567TIP3    H247193   5.369   1.970  13.316 -0.4023 -1.8714 -0.0659
 8568TIP3   OH247194   4.975   6.015  13.147 -0.0578  1.1186  0.3507
 8568TIP3    H147195   5.023   5.956  13.206  2.0275  2.3079 -0.0479
 8568TIP3    H247196   4.885   6.014  13.180 -0.2292 -2.5056  0.1388
 8569TIP3   OH247197   4.311   2.816   4.460 -0.3506  0.0779 -0.6832
 8569TIP3    H147198   4.315   2.901   4.504  0.6738  0.6860 -1.9186
 8569TIP3    H247199   4.218   2.794   4.458 -0.7170  1.6085 -1.1763
 8570TIP3   OH247200   6.126   4.465   0.268  0.2502  0.1564 -0.2945
 8570TIP3    H147201   6.130   4.468   0.363  2.4077  1.7950 -0.3617
 8570TIP3    H247202   6.051   4.520   0.245  0.4468  0.7421  0.4375
 8571TIP3   OH247203   5.302   0.926   4.594 -0.1769  0.2733  0.5773
 8571TIP3    H147204   5.394   0.936   4.619  0.3647  1.1348 -1.5464
 8571TIP3    H247205   5.254   0.979   4.657  0.9379  1.0526  0.8012
 8572TIP3   OH247206   5.315   5.592  15.137 -0.3057 -0.2210 -0.0890
 8572TIP3    H147207   5.263   5.658  15.183  0.2973 -0.3576  0.8342
 8572TIP3    H247208   5.253   5.522  15.116 -0.8525  0.4356 -0.6681
 8573TIP3   OH247209   2.564   3.257   1.681  0.0844  0.2924 -0.1442
 8573TIP3    H147210   2.619   3.333   1.696 -1.4133  1.5059 -0.5671
 8573TIP3    H247211   2.626   3.185   1.669  1.5838  1.6530 -1.0111
 8574TIP3   OH247212   2.808   3.645   1.009 -0.1627  0.3986  0.1374
 8574TIP3    H147213   2.838   3.723   1.057  0.7677 -0.5448  1.1482
 8574TIP3    H247214   2.853   3.572   1.052 -1.1756 -0.7252 -0.6529
 8575TIP3   OH247215   1.547   6.332   2.929 -0.0918  0.6999  0.4268
 8575TIP3    H147216   1.479   6.322   2.996  0.7957  0.3261  1.3027
 8575TIP3    H247217   1.601   6.404   2.962 -0.4241  1.4319 -0.5919
 8576TIP3   OH247218   5.785   3.492  14.600  0.1326  0.2673 -0.4898
 8576TIP3    H147219   5.788   3.427  14.670 -1.2290  0.4194 -0.2743
 8576TIP3    H247220   5.727   3.560  14.632 -1.0090  0.0566 -1.9840
 8577TIP3   OH247221   5.647   1.249  15.238 -0.3319 -0.1808 -0.4846
 8577TIP3    H147222   5.681   1.224  15.324 -1.5117  0.4855  0.2007
 8577TIP3    H247223   5.616   1.166  15.201  1.4489 -0.7184 -0.9070
 8578TIP3   OH247224   1.171   3.063  12.707 -0.7480  0.2130  0.2450
 8578TIP3    H147225   1.241   3.096  12.650 -0.5126  1.7582  1.3612
 8578TIP3    H247226   1.142   2.982  12.665  1.3858 -0.2311 -0.5111
 8579TIP3   OH247227   2.145   4.794  13.908 -0.0643  0.3262  0.2752
 8579TIP3    H147228   2.063   4.830  13.875  0.8261  3.4654  1.1439
 8579TIP3    H247229   2.207   4.805  13.836  0.2982  0.9147  0.6663
 8580TIP3   OH247230   6.447   5.430  16.057  0.0086 -1.0955  0.0521
 8580TIP3    H147231   6.382   5.384  16.111 -0.7011  0.1812  0.3278
 8580TIP3    H247232   6.397   5.501  16.016  1.2012 -0.2016  0.1190
 8581TIP3   OH247233   5.564   3.673  13.023 -0.5224  0.3619  0.1904
 8581TIP3    H147234   5.638   3.711  13.070 -1.4236  2.0047  0.3537
 8581TIP3    H247235   5.488   3.719  13.056 -1.3503  0.5892 -1.8586
 8582TIP3   OH247236   6.466   1.601  17.055  0.0379  0.4291 -0.3689
 8582TIP3    H147237   6.527   1.595  17.128  0.5760 -0.3812 -0.8646
 8582TIP3    H247238   6.383   1.625  17.095  0.4017  0.3266  0.4675
 8583TIP3   OH247239   1.255   6.295   1.494 -0.0409  0.2937  0.2003
 8583TIP3    H147240   1.253   6.201   1.478 -0.1279  0.4423 -0.6905
 8583TIP3    H247241   1.278   6.303   1.587  0.0907 -0.5993  0.2498
 8584TIP3   OH247242   5.155   5.218  13.288  0.1586  0.4003 -0.4868
 8584TIP3    H147243   5.141   5.303  13.247  0.7938  1.0032  0.5102
 8584TIP3    H247244   5.216   5.235  13.360 -1.4313 -0.4707  1.1574
 8585TIP3   OH247245   4.193   4.668   5.773  0.3894 -0.0270  0.2808
 8585TIP3    H147246   4.275   4.623   5.794  0.1807 -0.4089  0.2920
 8585TIP3    H247247   4.132   4.638   5.840  0.1783  0.0780  0.1367
 8586TIP3   OH247248   6.622   4.434  10.202  0.1719  0.1635 -0.1645
 8586TIP3    H147249   6.621   4.465  10.293  0.6407 -0.2283 -0.0180
 8586TIP3    H247250   6.656   4.508  10.152  1.6121 -0.1897  0.2313
 8587TIP3   OH247251   2.739   1.032   5.252 -0.1690 -0.6983 -0.1050
 8587TIP3    H147252   2.693   1.075   5.179 -0.4817 -0.8111  0.0212
 8587TIP3    H247253   2.695   1.066   5.330 -0.1413 -0.9308  0.0118
 8588TIP3   OH247254   2.545   1.932  13.593  0.1754  0.5803  0.0350
 8588TIP3    H147255   2.625   1.880  13.595 -1.4589 -2.1541  1.5886
 8588TIP3    H247256   2.569   2.015  13.635  2.0646 -0.3982  1.0402
 8589TIP3   OH247257   2.023   1.947   4.256 -0.2457  0.2522 -0.6371
 8589TIP3    H147258   2.088   1.949   4.326 -0.6836  1.1758 -0.2468
 8589TIP3    H247259   1.981   1.861   4.265  0.8029 -0.2981 -0.8069
 8590TIP3   OH247260   0.485   5.685   2.724  0.6680  0.2024  0.2853
 8590TIP3    H147261   0.404   5.734   2.739 -0.1023 -0.1557 -2.2484
 8590TIP3    H247262   0.555   5.748   2.743 -0.2808  1.6754 -0.9009
 8591TIP3   OH247263   1.809   1.658   0.441  0.2985 -0.5646  0.3301
 8591TIP3    H147264   1.791   1.727   0.505  1.2056  0.2927 -0.3123
 8591TIP3    H247265   1.853   1.590   0.491  1.0083  0.1006  0.6355
 8592TIP3   OH247266   4.596   5.695  11.067  0.5111 -0.2388 -0.2971
 8592TIP3    H147267   4.535   5.708  10.995 -1.7460 -1.6706  1.1985
 8592TIP3    H247268   4.660   5.766  11.059 -0.9441  0.9296 -2.3745
 8593TIP3   OH247269   3.470   3.235  15.731  0.4033 -0.4431  0.2407
 8593TIP3    H147270   3.519   3.186  15.664 -0.7101 -2.2031  0.6369
 8593TIP3    H247271   3.448   3.169  15.797 -1.1813  0.5900  0.8054
 8594TIP3   OH247272   6.320   5.528   3.339 -0.0416 -0.2913  0.9315
 8594TIP3    H147273   6.299   5.593   3.272 -0.9300 -0.3127  1.1693
 8594TIP3    H247274   6.290   5.445   3.301  0.6680 -0.5004  0.8178
 8595TIP3   OH247275   1.136   3.184   5.116  0.1689  0.0086  0.2202
 8595TIP3    H147276   1.204   3.127   5.150  0.7793  0.8682  0.4562
 8595TIP3    H247277   1.165   3.206   5.027 -0.5878 -0.8759 -0.2681
 8596TIP3   OH247278   0.013   2.576  11.779  0.4984 -0.0851 -0.0833
 8596TIP3    H147279   0.102   2.563  11.746 -0.2686  1.2704 -2.9461
 8596TIP3    H247280   0.018   2.655  11.832  1.1699 -0.6126  0.6686
 8597TIP3   OH247281   5.087   5.750  16.739  0.2197  0.0100  0.4653
 8597TIP3    H147282   5.009   5.803  16.720 -0.7097 -0.6224  2.2274
 8597TIP3    H247283   5.155   5.785  16.681 -1.6428 -0.1978 -2.0363
 8598TIP3   OH247284   1.975   4.450   4.895  0.1879  0.1126  0.4077
 8598TIP3    H147285   1.946   4.495   4.975 -0.2368  1.0733 -0.2694
 8598TIP3    H247286   1.897   4.447   4.840 -0.4660 -3.4629  1.2470
 8599TIP3   OH247287   6.420   3.468   3.936 -0.2722  0.2782  0.1588
 8599TIP3    H147288   6.426   3.548   3.986 -2.7773  1.1037 -0.7168
 8599TIP3    H247289   6.433   3.398   4.000 -2.4991  1.3036  1.8893
 8600TIP3   OH247290   0.959   1.167   0.120 -0.1774 -0.4153  0.1265
 8600TIP3    H147291   0.891   1.113   0.160  0.8156 -0.6488  1.6147
 8600TIP3    H247292   0.944   1.255   0.155  1.1419 -0.7658  1.7295
 8601TIP3   OH247293   2.006   3.246   4.728  0.0259 -0.2303 -0.2455
 8601TIP3    H147294   1.965   3.297   4.799 -3.8912  0.4391 -2.6642
 8601TIP3    H247295   1.978   3.156   4.745 -1.1470 -0.0273 -1.0236
 8602TIP3   OH247296   3.172   5.010   6.529  0.6690 -0.1366  0.6702
 8602TIP3    H147297   3.170   4.947   6.457  0.4396  0.4102  0.1809
 8602TIP3    H247298   3.193   5.093   6.486  2.2585 -0.0982  1.4687
 8603TIP3   OH247299   2.900   1.424  13.959  0.3097 -0.0258 -0.0212
 8603TIP3    H147300   2.828   1.434  14.021 -0.3867  0.7504 -0.9437
 8603TIP3    H247301   2.979   1.432  14.014 -0.2491 -2.0857  1.1857
 8604TIP3   OH247302   3.193   0.596   5.986 -0.3869  0.1752 -0.1246
 8604TIP3    H147303   3.222   0.523   6.040 -0.3406  0.4001  0.1587
 8604TIP3    H247304   3.173   0.666   6.049 -1.0463  0.1977 -0.3470
 8605TIP3   OH247305   1.650   3.326  10.929 -0.1965  0.5085  0.0302
 8605TIP3    H147306   1.689   3.313  10.842 -0.2060 -0.0718  0.1115
 8605TIP3    H247307   1.707   3.278  10.988 -0.2864  0.7671  0.3282
 8606TIP3   OH247308   5.378   1.372   0.680 -0.5683 -0.5631  0.4919
 8606TIP3    H147309   5.337   1.452   0.713 -1.2339 -0.3412 -0.7924
 8606TIP3    H247310   5.305   1.313   0.663 -0.1609 -1.0437  0.3967
 8607TIP3   OH247311   3.237   2.649   1.462  0.4289 -0.1418  0.3449
 8607TIP3    H147312   3.282   2.696   1.533 -0.7194 -1.5823  2.1405
 8607TIP3    H247313   3.258   2.557   1.478 -0.3682 -0.5486 -0.8371
 8608TIP3   OH247314   6.651   5.206   3.976  0.3249  0.4008  0.0684
 8608TIP3    H147315   6.705   5.261   4.032 -1.5452  0.8637  1.5458
 8608TIP3    H247316   6.615   5.267   3.911  0.4850  0.3678 -0.0508
 8609TIP3   OH247317   5.641   1.574  11.533  0.7211  0.7055 -0.0519
 8609TIP3    H147318   5.661   1.536  11.619 -1.1939  1.3647  0.7358
 8609TIP3    H247319   5.695   1.652  11.527 -0.0707  1.3745  1.1566
 8610TIP3   OH247320   6.605   0.690   2.881  0.2790 -0.1253  0.1356
 8610TIP3    H147321   6.601   0.648   2.796  0.1113 -1.0115  0.5658
 8610TIP3    H247322   6.524   0.741   2.886 -0.8840 -1.9397  0.6820
 8611TIP3   OH247323   5.085   6.136  16.193  0.5258  0.0649 -0.2525
 8611TIP3    H147324   5.038   6.106  16.271 -0.8039 -0.0972 -1.0958
 8611TIP3    H247325   5.167   6.086  16.194  0.2974 -0.3213  0.7473
 8612TIP3   OH247326   3.829   2.022   3.166 -0.2856 -0.0327  0.2044
 8612TIP3    H147327   3.794   2.108   3.189 -0.4734  0.1177 -0.6062
 8612TIP3    H247328   3.846   1.979   3.250 -0.7267  0.5790  0.6112
 8613TIP3   OH247329   2.038   2.590   1.915 -0.1348  0.5594  0.4458
 8613TIP3    H147330   1.997   2.553   1.994  0.7129  1.2193  1.2207
 8613TIP3    H247331   2.021   2.684   1.921  1.0522  0.7787  0.5255
 8614TIP3   OH247332   3.597   3.191  11.880  0.1673  0.5151  0.7017
 8614TIP3    H147333   3.689   3.214  11.893  0.6938  0.9222 -2.8128
 8614TIP3    H247334   3.552   3.274  11.868 -0.2207  0.2361  0.1676
 8615TIP3   OH247335   0.480   1.553   2.754 -0.2957 -0.0769  0.5212
 8615TIP3    H147336   0.504   1.465   2.726 -2.6526 -0.6419  0.1034
 8615TIP3    H247337   0.451   1.543   2.844 -2.0615 -0.0666 -0.0096
 8616TIP3   OH247338   6.064   3.121   1.503 -0.3857  0.3333 -0.4734
 8616TIP3    H147339   6.099   3.043   1.459  0.1494  0.8085 -0.9041
 8616TIP3    H247340   6.142   3.171   1.528 -0.7120  0.4311  0.3543
 8617TIP3   OH247341   0.901   6.420   2.588  0.4128 -0.1535 -0.1482
 8617TIP3    H147342   0.923   6.436   2.497 -1.6089 -2.6174 -1.2166
 8617TIP3    H247343   0.957   6.346   2.613 -0.4704 -0.8164 -0.0926
 8618TIP3   OH247344   6.189   6.470   4.368 -0.3728  0.4967  0.1322
 8618TIP3    H147345   6.267   6.446   4.319 -1.1327  1.7207 -1.8258
 8618TIP3    H247346   6.140   6.527   4.308 -3.3974 -1.2237  0.7568
 8619TIP3   OH247347   4.479   2.099  12.401 -0.3162 -0.4741  0.3415
 8619TIP3    H147348   4.553   2.136  12.354 -0.6464  0.0033  0.1931
 8619TIP3    H247349   4.460   2.017  12.355 -0.1736 -0.3680  0.0937
 8620TIP3   OH247350   1.264   2.721   4.559 -0.7250  0.1357  0.2356
 8620TIP3    H147351   1.229   2.810   4.553  0.8261  0.6640 -2.0050
 8620TIP3    H247352   1.242   2.681   4.475  1.9166 -0.2509 -0.3506
 8621TIP3   OH247353   5.838   0.669  12.673  0.3318  0.5192 -0.2736
 8621TIP3    H147354   5.855   0.653  12.580 -3.1362 -0.7710 -0.8421
 8621TIP3    H247355   5.832   0.582  12.711  2.3148  1.0326  1.3952
 8622TIP3   OH247356   3.095   0.238   2.460  0.2056  0.4835  0.3093
 8622TIP3    H147357   3.072   0.325   2.493 -0.1433  0.6420 -0.3186
 8622TIP3    H247358   3.134   0.255   2.374 -0.9282 -0.0475 -0.3259
 8623TIP3   OH247359   6.303   4.002   4.284  0.5092  0.0811 -0.3221
 8623TIP3    H147360   6.271   4.060   4.216 -2.4658  0.2609  1.0646
 8623TIP3    H247361   6.365   4.055   4.334  0.8915  0.7196 -1.4595
 8624TIP3   OH247362   4.635   5.516  12.660  0.0517  0.0540  0.0250
 8624TIP3    H147363   4.695   5.494  12.588 -1.0404  0.3061 -0.9875
 8624TIP3    H247364   4.693   5.542  12.732  1.2520 -1.8011 -0.1765
 8625TIP3   OH247365   5.096   4.247   0.779 -0.1388 -0.1527 -0.2821
 8625TIP3    H147366   5.132   4.336   0.776 -2.1495  0.7925  1.5182
 8625TIP3    H247367   5.016   4.251   0.727 -0.1341 -1.0149 -0.3832
 8626TIP3   OH247368   0.429   0.081  17.037 -0.2861 -0.5535  0.5024
 8626TIP3    H147369   0.501   0.020  17.050 -0.6984 -0.7044  2.2685
 8626TIP3    H247370   0.381   0.046  16.962  1.1867 -0.6957 -0.4218
 8627TIP3   OH247371   6.684   1.451   0.074 -0.9048  0.0529 -0.4553
 8627TIP3    H147372   6.753   1.400   0.116 -1.3982 -0.4870 -0.2930
 8627TIP3    H247373   6.729   1.530   0.043  0.0563 -0.8904 -1.5421
 8628TIP3   OH247374   2.682   1.974   3.910 -0.2206 -0.0561  0.0651
 8628TIP3    H147375   2.720   2.058   3.935  1.0561 -0.4179 -0.5774
 8628TIP3    H247376   2.587   1.988   3.913 -0.0260  1.4335 -0.1800
 8629TIP3   OH247377   6.333   1.202  12.575  0.3841  0.3528 -0.5607
 8629TIP3    H147378   6.243   1.200  12.543  0.3816  2.5757 -0.8113
 8629TIP3    H247379   6.330   1.255  12.654  1.4945  0.5340 -0.6265
 8630TIP3   OH247380   3.044   2.107  15.540 -0.8734 -0.1147  0.1400
 8630TIP3    H147381   3.008   2.162  15.610  0.0640 -1.2737  1.5986
 8630TIP3    H247382   3.043   2.018  15.577  1.6449 -0.4699 -0.4625
 8631TIP3   OH247383   4.062   2.946  10.317  0.6469 -0.6300  0.3310
 8631TIP3    H147384   4.145   2.905  10.342  0.1592 -1.7012  0.2843
 8631TIP3    H247385   4.086   3.011  10.251  1.3773 -1.5767 -0.3855
 8632TIP3   OH247386   0.128   4.262   1.648  0.2619  0.0298  0.6553
 8632TIP3    H147387   0.062   4.240   1.582  1.7416 -2.0338 -0.2547
 8632TIP3    H247388   0.206   4.285   1.598  1.5596 -2.0263  1.6098
 8633TIP3   OH247389   4.658   6.016  14.993  0.0298 -0.1405 -0.2204
 8633TIP3    H147390   4.729   6.076  14.970 -0.6914  1.1397  0.7615
 8633TIP3    H247391   4.688   5.971  15.072 -0.2861  0.5222  0.2918
 8634TIP3   OH247392   0.499   3.859  11.305 -0.4764  0.2043  0.8250
 8634TIP3    H147393   0.533   3.948  11.312  1.0519 -0.1937 -0.9637
 8634TIP3    H247394   0.440   3.862  11.230  1.4840 -0.7860 -0.8378
 8635TIP3   OH247395   4.727   6.693  16.043 -0.1014 -0.0048 -0.1107
 8635TIP3    H147396   4.761   6.608  16.068  2.9316  0.8836 -0.8495
 8635TIP3    H247397   4.764   6.709  15.956 -0.2271  2.2428  0.1951
 8636TIP3   OH247398   0.387   6.696  12.990  0.0348 -0.3281 -0.2945
 8636TIP3    H147399   0.378   6.735  13.077 -1.5411  0.0674 -0.5970
 8636TIP3    H247400   0.343   6.611  12.998  0.4006 -0.5443 -0.5558
 8637TIP3   OH247401   0.248   1.535   2.433  0.1351  0.7093  0.2398
 8637TIP3    H147402   0.178   1.558   2.371  0.3898  0.8266 -0.0051
 8637TIP3    H247403   0.277   1.449   2.405 -0.1191  0.5248  0.5319
 8638TIP3   OH247404   2.178   6.002   1.731 -0.3766  0.0424  0.5570
 8638TIP3    H147405   2.172   6.093   1.759  2.0617  0.1680  0.9259
 8638TIP3    H247406   2.124   5.954   1.793  0.0896  1.0104  1.7647
 8639TIP3   OH247407   2.755   6.130   5.023  0.6908 -0.5070  0.0766
 8639TIP3    H147408   2.834   6.087   4.990 -0.0164 -1.8123  0.0250
 8639TIP3    H247409   2.730   6.079   5.099 -1.5702 -1.7905 -1.4139
 8640TIP3   OH247410   4.193   5.057   5.706  0.0080  0.1027 -0.7324
 8640TIP3    H147411   4.163   5.091   5.791 -0.5365  0.3006 -1.0013
 8640TIP3    H247412   4.188   5.133   5.647 -1.3397 -0.4501 -1.3712
 8641TIP3   OH247413   1.366   1.002  15.875 -0.1921 -0.2175 -0.1163
 8641TIP3    H147414   1.395   0.935  15.813 -0.6734  0.8264 -1.5514
 8641TIP3    H247415   1.314   0.954  15.940 -0.1236 -1.3016 -0.8289
 8642TIP3   OH247416   2.168   0.606   2.095 -0.0121 -0.0834 -0.1130
 8642TIP3    H147417   2.131   0.550   2.164 -0.3193  0.4451  0.1614
 8642TIP3    H247418   2.100   0.609   2.028  0.0302 -0.0910 -0.1562
 8643TIP3   OH247419   3.691   5.938   2.763 -0.4248  0.3356  0.1779
 8643TIP3    H147420   3.671   5.962   2.673 -0.7672 -0.9281 -0.1010
 8643TIP3    H247421   3.626   5.985   2.815  0.4568  1.9447 -0.1128
 8644TIP3   OH247422   5.115   0.813   1.387 -0.1169 -0.6251 -0.4988
 8644TIP3    H147423   5.147   0.797   1.298  1.5390 -2.3683  0.3401
 8644TIP3    H247424   5.159   0.747   1.441 -1.1987  0.2707  1.6091
 8645TIP3   OH247425   4.605   2.079  13.433  0.0616  0.0896 -0.0319
 8645TIP3    H147426   4.567   2.134  13.501 -1.0085 -0.4608 -0.1554
 8645TIP3    H247427   4.653   2.139  13.377  0.8041  0.5826  1.0833
 8646TIP3   OH247428   0.306   3.324  12.952  0.1235 -0.1469 -0.4974
 8646TIP3    H147429   0.342   3.358  12.870  0.7469 -0.8286 -0.5215
 8646TIP3    H247430   0.355   3.369  13.020 -2.0068  2.2419 -0.3694
 8647TIP3   OH247431   0.224   1.831  16.564  0.1787 -0.3317 -0.5294
 8647TIP3    H147432   0.214   1.904  16.504  2.0729 -0.7476 -1.4176
 8647TIP3    H247433   0.144   1.779  16.553 -0.2038  0.4485 -1.4943
 8648TIP3   OH247434   2.869   1.176   2.859  0.0169 -1.1354 -0.5656
 8648TIP3    H147435   2.900   1.213   2.776  1.8970  0.3239  0.7196
 8648TIP3    H247436   2.942   1.122   2.889 -0.3854 -1.1240  0.4514
 8649TIP3   OH247437   2.226   5.676   5.309 -0.2383 -0.0863 -0.2195
 8649TIP3    H147438   2.242   5.632   5.225  0.3918 -0.7365  0.2368
 8649TIP3    H247439   2.273   5.624   5.373  0.6285  1.3252  0.3310
 8650TIP3   OH247440   1.862   3.517   3.053 -0.7128 -0.0584  0.5808
 8650TIP3    H147441   1.860   3.556   3.141 -1.6636  0.2835  0.4209
 8650TIP3    H247442   1.855   3.592   2.994 -0.5281 -0.3216  0.2213
 8651TIP3   OH247443   2.277   0.588  15.695  0.5291  0.2597  0.0880
 8651TIP3    H147444   2.275   0.592  15.791  0.6259  0.3564  0.0859
 8651TIP3    H247445   2.250   0.675  15.666  0.7313  0.3037  0.0296
 8652TIP3   OH247446   4.193   3.293  16.767  0.1446 -0.7323 -0.1877
 8652TIP3    H147447   4.211   3.294  16.861 -3.1268 -1.3703  0.5688
 8652TIP3    H247448   4.130   3.222  16.755  0.3039 -0.5250 -2.8343
 8653TIP3   OH247449   2.105   6.698  10.364  0.3555  0.0631  0.0965
 8653TIP3    H147450   2.122   6.791  10.353  2.4447 -0.5398 -3.1472
 8653TIP3    H247451   2.011   6.692  10.382 -0.4804  2.6715 -2.6627
 8654TIP3   OH247452   6.413   2.946  11.235 -0.0456  0.1205  0.4019
 8654TIP3    H147453   6.459   2.961  11.153  0.6374  0.2127  0.7928
 8654TIP3    H247454   6.407   2.850  11.242 -1.3453  0.1131 -0.4162
 8655TIP3   OH247455   2.142   1.901   1.054 -0.3776 -0.8637 -0.3840
 8655TIP3    H147456   2.152   1.808   1.073  0.3347 -0.6622  0.3239
 8655TIP3    H247457   2.103   1.938   1.133 -1.1717 -0.6485 -0.8734
 8656TIP3   OH247458   5.945   2.382  14.227  0.6718 -0.4975  0.2919
 8656TIP3    H147459   5.904   2.459  14.190  0.9537 -0.5934 -0.2301
 8656TIP3    H247460   5.923   2.385  14.320  1.4058  0.6778  0.4470
 8657TIP3   OH247461   3.399   3.743  16.810 -0.6245  0.0366  0.6899
 8657TIP3    H147462   3.327   3.797  16.843 -0.9955  0.1005 -0.2120
 8657TIP3    H247463   3.395   3.664  16.863 -0.4106  0.6544  1.6646
 8658TIP3   OH247464   1.222   5.190  16.314  0.2985 -0.4082 -0.3218
 8658TIP3    H147465   1.162   5.260  16.286  0.1274 -0.5468 -0.3057
 8658TIP3    H247466   1.189   5.112  16.270 -0.0203 -0.6423  0.3298
 8659TIP3   OH247467   0.297   1.118   2.987 -0.1787 -0.0962 -0.3643
 8659TIP3    H147468   0.323   1.183   2.922 -2.0879 -0.7203 -1.8472
 8659TIP3    H247469   0.253   1.050   2.937 -1.0052 -1.0218  1.5030
 8660TIP3   OH247470   2.463   6.065  11.508  0.1912 -0.5400  0.5945
 8660TIP3    H147471   2.472   6.013  11.428  0.0548  0.0227  0.2068
 8660TIP3    H247472   2.431   6.003  11.574  0.8301 -1.1295  0.3616
 8661TIP3   OH247473   5.278   0.970  13.397  0.7846 -0.4087  0.3602
 8661TIP3    H147474   5.260   0.973  13.302  1.2216  0.6330  0.2900
 8661TIP3    H247475   5.191   0.966  13.437  0.2150  3.4830 -0.0033
 8662TIP3   OH247476   5.905   5.656   1.920 -0.5649 -0.4056  0.7005
 8662TIP3    H147477   5.907   5.560   1.910  1.1592 -0.3782  0.4822
 8662TIP3    H247478   5.987   5.685   1.882 -0.5337  1.0717  1.8359
 8663TIP3   OH247479   4.370   5.120   2.076 -0.5839 -0.1879 -0.2452
 8663TIP3    H147480   4.370   5.187   2.145 -1.7925 -0.8212  0.3987
 8663TIP3    H247481   4.313   5.156   2.008  0.9265  0.6162 -1.1371
 8664TIP3   OH247482   1.237   1.592  16.723  0.2274 -0.9392 -0.0740
 8664TIP3    H147483   1.169   1.555  16.668 -0.3476 -2.4799  1.5435
 8664TIP3    H247484   1.263   1.673  16.680 -0.3102 -1.9476 -2.4525
 8665TIP3   OH247485   2.244   4.017   2.957 -0.2620 -0.4896  0.2341
 8665TIP3    H147486   2.150   4.016   2.939 -0.2980 -2.5222  0.2814
 8665TIP3    H247487   2.255   3.958   3.031  0.9425  0.6482  0.9982
 8666TIP3   OH247488   2.397   2.086   1.752 -0.7268 -0.0842  0.0823
 8666TIP3    H147489   2.421   2.037   1.673  0.3826 -1.6418  1.3084
 8666TIP3    H247490   2.478   2.131   1.778 -1.3859  1.3409 -0.2831
 8667TIP3   OH247491   2.523   5.631   3.218 -0.0732 -0.2759 -0.0985
 8667TIP3    H147492   2.575   5.593   3.289  1.0156  0.1289 -0.6551
 8667TIP3    H247493   2.517   5.561   3.154  2.1915  0.4801 -1.2597
 8668TIP3   OH247494   4.311   6.511  14.491 -0.2652  0.3717  0.3600
 8668TIP3    H147495   4.358   6.540  14.568  1.9434 -0.9106 -0.4288
 8668TIP3    H247496   4.332   6.576  14.424  0.4303 -0.2153 -0.0010
 8669TIP3   OH247497   2.903   4.853   4.633  0.7224  0.0732 -0.4216
 8669TIP3    H147498   2.811   4.837   4.612  0.9220 -1.9487  0.0502
 8669TIP3    H247499   2.901   4.889   4.722  0.4394 -2.4346  0.6865
 8670TIP3   OH247500   2.442   2.784  16.280  0.3774 -0.2490 -0.0554
 8670TIP3    H147501   2.401   2.697  16.278 -0.5574  0.1892 -0.5613
 8670TIP3    H247502   2.496   2.783  16.359  0.5111 -1.3475 -0.1484
 8671TIP3   OH247503   1.252   5.829   3.220 -0.0879  0.3167 -0.2379
 8671TIP3    H147504   1.334   5.780   3.219 -0.1161  0.2008  1.2500
 8671TIP3    H247505   1.202   5.792   3.148 -0.0886 -1.8379  0.7703
 8672TIP3   OH247506   1.195   5.015   2.388  0.1566 -0.1452  0.0442
 8672TIP3    H147507   1.214   4.971   2.471 -0.3044  0.6603  0.5905
 8672TIP3    H247508   1.101   5.034   2.393 -0.4043 -2.1271 -1.6526
 8673TIP3   OH247509   4.801   2.258   0.462  0.2043 -0.3070  0.4696
 8673TIP3    H147510   4.893   2.287   0.458  0.8684 -2.3825 -0.9117
 8673TIP3    H247511   4.782   2.226   0.374 -1.2361 -1.7011  1.2452
 8674TIP3   OH247512   2.573   0.192  10.824 -0.7566 -0.3775  0.1642
 8674TIP3    H147513   2.644   0.133  10.849 -0.2397  0.4308  0.6599
 8674TIP3    H247514   2.610   0.280  10.836 -2.0835  0.0720  1.1726
 8675TIP3   OH247515   6.039   5.843  16.073 -0.2368  0.1282 -0.1660
 8675TIP3    H147516   6.037   5.792  16.154 -0.5257  0.0894 -0.1960
 8675TIP3    H247517   6.128   5.876  16.068  0.0599 -0.6900 -0.3446
 8676TIP3   OH247518   6.012   2.602   4.546  0.3633  0.1140 -0.0938
 8676TIP3    H147519   6.090   2.597   4.491  0.2166  0.9916 -0.3876
 8676TIP3    H247520   5.945   2.642   4.491  0.1504  0.8068  0.6344
 8677TIP3   OH247521   3.964   3.555   2.045 -0.0359  0.1550  0.5398
 8677TIP3    H147522   3.962   3.580   2.137 -1.9016  0.2532  0.4916
 8677TIP3    H247523   3.941   3.635   1.998  0.9950  0.1303 -0.0400
 8678TIP3   OH247524   4.671   5.045   5.145  0.3359  0.1573  0.6081
 8678TIP3    H147525   4.688   4.959   5.105  1.8828  0.6196  0.2186
 8678TIP3    H247526   4.615   5.025   5.220  1.5035 -1.3357  1.1359
 8679TIP3   OH247527   3.499   5.752   2.314  0.3869 -0.2414  0.7229
 8679TIP3    H147528   3.407   5.763   2.288  0.2405 -0.2739  1.2120
 8679TIP3    H247529   3.509   5.658   2.329  1.2694 -0.7005 -2.0913
 8680TIP3   OH247530   2.475   2.699   0.745 -0.5424  0.1989  0.0570
 8680TIP3    H147531   2.443   2.719   0.833 -0.9176 -0.2720  0.0289
 8680TIP3    H247532   2.476   2.783   0.700 -1.8178  0.2159  0.0293
 8681TIP3   OH247533   1.012   6.694  12.159  0.1446 -0.0045  0.1250
 8681TIP3    H147534   0.967   6.629  12.105 -0.6207 -0.3321  1.1192
 8681TIP3    H247535   0.941   6.748  12.195  0.6977  0.6926  0.1775
 8682TIP3   OH247536   6.634   2.561   4.408 -0.0897  0.3293  0.6543
 8682TIP3    H147537   6.600   2.511   4.334  0.3297  2.0289 -0.7780
 8682TIP3    H247538   6.634   2.500   4.481  0.6690 -1.8180 -1.0283
 8683TIP3   OH247539   5.793   3.355  15.642 -0.0668 -0.0703 -0.0024
 8683TIP3    H147540   5.742   3.321  15.716 -0.0946  0.9095  0.4369
 8683TIP3    H247541   5.746   3.433  15.613  0.5588  0.1969 -0.3252
 8684TIP3   OH247542   3.572   0.082  12.972 -0.1666  0.1489 -0.3915
 8684TIP3    H147543   3.532   0.167  12.954 -1.4890 -0.2307  0.6674
 8684TIP3    H247544   3.512   0.018  12.931 -0.0713 -0.3654  0.2614
 8685TIP3   OH247545   1.099   1.660   5.435  0.1699  0.2800  0.6104
 8685TIP3    H147546   1.008   1.632   5.424  0.8371 -2.1886  0.8027
 8685TIP3    H247547   1.149   1.597   5.384  1.7691  2.0116 -0.0714
 8686TIP3   OH247548   5.633   3.060  11.196 -0.3532  0.1278  0.2559
 8686TIP3    H147549   5.690   2.983  11.206 -0.4084  0.0920  0.2920
 8686TIP3    H247550   5.690   3.127  11.158 -0.5686 -0.2622 -0.7751
 8687TIP3   OH247551   4.245   4.481  15.682 -0.2591 -0.4485  0.5286
 8687TIP3    H147552   4.153   4.478  15.707 -0.3279  1.3853  0.6319
 8687TIP3    H247553   4.267   4.574  15.683  1.4921 -0.8226  0.1093
 8688TIP3   OH247554   6.239   5.743  16.402 -0.7319 -0.3130  0.0627
 8688TIP3    H147555   6.270   5.831  16.381  0.0005 -0.6154 -0.1503
 8688TIP3    H247556   6.299   5.713  16.470  0.4931 -1.5234 -1.4789
 8689TIP3   OH247557   2.836   4.121  14.377 -0.1904 -0.6897  0.5813
 8689TIP3    H147558   2.880   4.204  14.400  0.6802 -0.2808 -2.1529
 8689TIP3    H247559   2.908   4.062  14.356 -0.8589 -1.3805  0.2072
 8690TIP3   OH247560   4.564   5.752  10.581 -0.4841 -0.2466  0.5527
 8690TIP3    H147561   4.648   5.768  10.539 -0.8740 -0.1132 -0.1878
 8690TIP3    H247562   4.565   5.658  10.602 -0.2836 -0.3083  0.2656
 8691TIP3   OH247563   2.584   1.264   1.984 -0.0393 -0.5089  0.4163
 8691TIP3    H147564   2.536   1.234   1.907 -0.7614 -0.5659  0.8814
 8691TIP3    H247565   2.671   1.226   1.975 -0.3941 -1.2556  0.0822
 8692TIP3   OH247566   4.416   4.940   2.443 -0.1315 -0.2580 -0.0084
 8692TIP3    H147567   4.370   4.945   2.359 -1.8571 -2.2103  0.7275
 8692TIP3    H247568   4.369   5.000   2.501 -1.4762 -1.7895  0.5697
 8693TIP3   OH247569   2.472   0.465   1.855 -0.7700  0.3446  0.4088
 8693TIP3    H147570   2.539   0.398   1.843  0.7735  1.9001  0.0479
 8693TIP3    H247571   2.464   0.474   1.950  1.0635  1.5644  0.4942
 8694TIP3   OH247572   1.875   0.099  15.424  0.1933 -0.9647 -0.3970
 8694TIP3    H147573   1.925   0.179  15.442 -1.7623  0.6663 -1.8115
 8694TIP3    H247574   1.928   0.051  15.360  1.2262 -0.6717  0.2189
 8695TIP3   OH247575   1.488   3.519  10.838  0.4007  0.2245  0.1111
 8695TIP3    H147576   1.426   3.496  10.907  0.6656 -1.1810 -0.1004
 8695TIP3    H247577   1.559   3.456  10.847  2.0110  2.0109  0.5721
 8696TIP3   OH247578   4.752   3.742   3.730 -0.4447 -0.1658  0.1501
 8696TIP3    H147579   4.720   3.661   3.768  2.6303 -1.1571  0.8704
 8696TIP3    H247580   4.846   3.741   3.745  0.1110  2.2446 -2.2813
 8697TIP3   OH247581   4.960   2.378  11.670  0.4926 -0.0795 -1.0391
 8697TIP3    H147582   4.959   2.292  11.628  1.8687 -0.8533  0.3734
 8697TIP3    H247583   4.933   2.361  11.760  0.6610  0.9929 -0.7737
 8698TIP3   OH247584   1.559   1.220   3.567 -0.1225 -0.3125 -0.1267
 8698TIP3    H147585   1.529   1.130   3.558 -0.3538 -0.0552 -2.6476
 8698TIP3    H247586   1.490   1.272   3.526  0.9332  0.8204 -0.5377
 8699TIP3   OH247587   6.148   3.419   1.374  0.5775  0.1634 -0.0279
 8699TIP3    H147588   6.125   3.380   1.289  0.3016  5.0129 -2.5542
 8699TIP3    H247589   6.236   3.387   1.393 -0.2907 -2.9593 -0.7520
 8700TIP3   OH247590   5.427   3.641   3.871  0.3158  0.2024 -0.3965
 8700TIP3    H147591   5.461   3.637   3.960  0.8050 -0.1779 -0.5925
 8700TIP3    H247592   5.498   3.606   3.817 -0.9802 -2.3029 -0.6403
 8701TIP3   OH247593   5.978   4.944   5.514  0.6110  0.0118 -0.2031
 8701TIP3    H147594   6.008   4.855   5.531 -1.5369 -0.6707  0.3235
 8701TIP3    H247595   6.058   4.994   5.495  1.8780 -1.9440 -0.2074
 8702TIP3   OH247596   4.963   3.342   2.689 -0.1474 -0.7848  0.0814
 8702TIP3    H147597   5.028   3.406   2.718  0.0380 -0.8907 -0.1007
 8702TIP3    H247598   4.971   3.340   2.594 -1.3923  0.2304 -0.0548
 8703TIP3   OH247599   6.152   5.643  15.341  0.1795 -0.5423  0.0600
 8703TIP3    H147600   6.171   5.624  15.249  2.1173 -1.6005  0.6249
 8703TIP3    H247601   6.217   5.593  15.390 -1.0378 -0.3067  2.0497
 8704TIP3   OH247602   0.252   2.481   5.586  0.4336  0.1866  0.5104
 8704TIP3    H147603   0.225   2.569   5.562 -0.0468  0.7854  2.9588
 8704TIP3    H247604   0.199   2.423   5.531  0.5639  1.3987 -0.9346
 8705TIP3   OH247605   3.356   4.606  12.958 -0.7008  0.4792  0.2325
 8705TIP3    H147606   3.264   4.582  12.964 -0.5067 -0.1571  0.8738
 8705TIP3    H247607   3.399   4.554  13.027  0.4003 -0.5925 -1.1921
 8706TIP3   OH247608   6.788   3.014   4.649 -0.5202 -0.4272  0.0145
 8706TIP3    H147609   6.739   2.976   4.576 -0.8243 -1.4942  0.7401
 8706TIP3    H247610   6.720   3.038   4.713 -0.3225  1.2580 -0.3599
 8707TIP3   OH247611   4.673   1.746  12.503  0.0583 -0.4083  0.1062
 8707TIP3    H147612   4.589   1.704  12.520  0.1614 -0.5581  0.2429
 8707TIP3    H247613   4.689   1.800  12.581  0.0117 -0.2580  0.0100
 8708TIP3   OH247614   4.116   4.279   2.247  0.8385  0.6698 -0.0915
 8708TIP3    H147615   4.052   4.349   2.259  2.2319  1.7775  1.4383
 8708TIP3    H247616   4.118   4.263   2.153 -0.1449  2.0869 -0.3801
 8709TIP3   OH247617   0.916   2.397  11.751 -0.2410 -0.1987 -0.3309
 8709TIP3    H147618   0.975   2.471  11.764 -1.4609  0.9896 -1.3654
 8709TIP3    H247619   0.862   2.395  11.830  1.0365 -1.2171  0.5651
 8710TIP3   OH247620   3.095   4.790  13.024 -0.0675  0.1689  0.0867
 8710TIP3    H147621   3.022   4.845  13.054  1.2580  2.2033 -0.2052
 8710TIP3    H247622   3.127   4.834  12.946  0.3684 -1.7023 -0.8401
 8711TIP3   OH247623   5.980   6.668  10.746  0.1933  0.3939 -0.5951
 8711TIP3    H147624   6.004   6.759  10.733  0.1478  0.5889  0.5550
 8711TIP3    H247625   6.063   6.621  10.752  0.4350  1.0059  2.9619
 8712TIP3   OH247626   0.917   5.173   2.952 -0.3901 -0.1740  0.3682
 8712TIP3    H147627   0.998   5.163   2.902 -1.1912 -0.2570 -0.9690
 8712TIP3    H247628   0.854   5.118   2.906 -2.2074  2.7573 -0.9062
 8713TIP3   OH247629   4.426   2.138   3.401 -0.2797 -0.2127 -0.0138
 8713TIP3    H147630   4.464   2.076   3.339 -0.4535 -0.7616  0.4226
 8713TIP3    H247631   4.388   2.083   3.470  0.0637  0.3928  0.6679
 8714TIP3   OH247632   2.249   3.793  15.486  0.0149  0.6965 -0.0739
 8714TIP3    H147633   2.304   3.720  15.457 -2.1116 -1.3606  0.7689
 8714TIP3    H247634   2.212   3.827  15.405  1.7669  1.5584 -0.5714
 8715TIP3   OH247635   5.104   5.744   3.779  0.1339  0.1983 -0.1640
 8715TIP3    H147636   5.084   5.818   3.836 -0.8501 -0.5850  0.5424
 8715TIP3    H247637   5.022   5.724   3.735  0.7177  0.3427 -1.3559
 8716TIP3   OH247638   4.966   1.630  12.465  0.5279  0.5906  0.0537
 8716TIP3    H147639   4.897   1.692  12.442 -1.3769 -0.7877  1.6814
 8716TIP3    H247640   4.944   1.550  12.416  0.5711 -0.0643  1.0654
 8717TIP3   OH247641   5.413   1.741   4.060 -0.4570  0.8225 -0.4435
 8717TIP3    H147642   5.474   1.765   4.130 -0.6979 -1.4969  0.6769
 8717TIP3    H247643   5.416   1.815   3.999  2.3540  1.4543  0.2910
 8718TIP3   OH247644   4.593   1.913  16.493 -0.1598 -0.2723 -0.1587
 8718TIP3    H147645   4.511   1.963  16.491  0.8072  1.4001  0.1230
 8718TIP3    H247646   4.597   1.872  16.407 -0.6313  0.7667 -0.7019
 8719TIP3   OH247647   1.849   3.877   3.084 -0.4116 -0.4114  0.1146
 8719TIP3    H147648   1.902   3.936   3.139 -0.5983 -0.7478  0.6672
 8719TIP3    H247649   1.909   3.850   3.014 -0.9648  2.1718 -1.4705
 8720TIP3   OH247650   0.899   3.002   1.227  0.2429  1.2096  0.0349
 8720TIP3    H147651   0.879   3.008   1.321  0.8177 -1.1671  0.3606
 8720TIP3    H247652   0.994   3.002   1.222  0.2176  1.2407 -0.5446
 8721TIP3   OH247653   2.807   2.787   1.353 -0.3404  0.4995  0.0031
 8721TIP3    H147654   2.825   2.700   1.390 -0.1154  0.2075 -0.7733
 8721TIP3    H247655   2.894   2.825   1.338 -0.4245  0.4691 -0.5635
 8722TIP3   OH247656   2.928   0.432   4.457 -0.1125 -0.4725 -0.2060
 8722TIP3    H147657   2.932   0.340   4.431  1.2006 -0.3649 -0.4133
 8722TIP3    H247658   2.860   0.469   4.401 -0.8692 -1.3636  0.0797
 8723TIP3   OH247659   5.159   4.538  11.647 -0.0710  0.1853 -0.3845
 8723TIP3    H147660   5.216   4.607  11.614 -0.9503 -0.0306 -2.4987
 8723TIP3    H247661   5.158   4.551  11.742  2.1140  1.2255 -0.4407
 8724TIP3   OH247662   0.211   4.993   1.267  0.3652 -0.1163  0.1644
 8724TIP3    H147663   0.274   5.030   1.206 -0.5063 -0.3411 -0.8881
 8724TIP3    H247664   0.128   5.034   1.244 -0.1764 -1.0145  0.4856
 8725TIP3   OH247665   1.567   4.596  12.726  0.1456 -0.0830  0.0808
 8725TIP3    H147666   1.654   4.565  12.701  0.0675 -0.4889  0.3089
 8725TIP3    H247667   1.532   4.527  12.782 -0.9703 -0.7036 -1.3106
 8726TIP3   OH247668   3.292   3.399   3.719 -0.2096 -0.6764  0.2416
 8726TIP3    H147669   3.293   3.359   3.632  0.8442 -0.6383  0.2228
 8726TIP3    H247670   3.236   3.476   3.709  3.1029  1.7985 -1.6059
 8727TIP3   OH247671   4.598   4.551   2.267 -0.3919  0.2448  0.9211
 8727TIP3    H147672   4.642   4.616   2.212  0.4923 -0.1234  1.1740
 8727TIP3    H247673   4.650   4.550   2.348 -0.0441 -1.1947  0.6947
 8728TIP3   OH247674   5.757   4.323  11.169  0.1987  0.2965 -0.2284
 8728TIP3    H147675   5.733   4.236  11.200  0.5690  0.7958  1.5588
 8728TIP3    H247676   5.764   4.314  11.074  0.3717 -1.6502 -0.0621
 8729TIP3   OH247677   0.444   0.644   1.453  0.3909 -0.0838 -0.2680
 8729TIP3    H147678   0.351   0.658   1.471  0.5709  2.3247 -0.8763
 8729TIP3    H247679   0.481   0.625   1.539 -0.1482  2.5833  0.6773
 8730TIP3   OH247680   3.454   3.069   3.057 -0.4240 -0.0326 -0.6938
 8730TIP3    H147681   3.421   2.994   3.008  1.0742 -1.5402  0.4959
 8730TIP3    H247682   3.516   3.111   2.996  0.2949 -1.0058 -0.6608
 8731TIP3   OH247683   1.313   2.489  16.162  0.5711  0.0499 -0.0577
 8731TIP3    H147684   1.361   2.534  16.092 -0.3464 -0.4917 -1.0563
 8731TIP3    H247685   1.243   2.550  16.186 -0.9002 -0.9028 -1.6658
 8732TIP3   OH247686   0.842   3.625   2.819  0.4811  0.1518  0.3010
 8732TIP3    H147687   0.809   3.585   2.899 -1.0465 -0.3568 -0.5463
 8732TIP3    H247688   0.833   3.719   2.833 -2.0344  0.0426 -0.1161
 8733TIP3   OH247689   5.314   0.528   4.277 -0.0539 -0.4906  0.1059
 8733TIP3    H147690   5.246   0.486   4.330 -2.6201  2.6465 -0.4121
 8733TIP3    H247691   5.318   0.618   4.309  2.8847 -0.1236 -0.9252
 8734TIP3   OH247692   4.704   2.547  17.188 -0.0066  0.2779 -0.2732
 8734TIP3    H147693   4.677   2.456  17.198 -1.2144  0.7740  1.4607
 8734TIP3    H247694   4.799   2.545  17.196  0.2372 -1.0771 -2.7175
 8735TIP3   OH247695   3.105   4.442   0.331 -0.4188  0.6954 -0.5094
 8735TIP3    H147696   3.085   4.522   0.380  0.8684  2.1504 -2.2278
 8735TIP3    H247697   3.191   4.458   0.292 -0.5352 -1.1644 -1.6510
 8736TIP3   OH247698   6.292   4.308  12.214  0.4380  0.1699 -0.6671
 8736TIP3    H147699   6.340   4.251  12.154  0.0429 -1.8933  0.8508
 8736TIP3    H247700   6.319   4.279  12.301 -0.8062  1.4403  0.1893
 8737TIP3   OH247701   0.734   2.006  11.717  0.1155  0.3656 -0.0293
 8737TIP3    H147702   0.656   1.961  11.751  0.8807  0.2084  1.6029
 8737TIP3    H247703   0.789   1.935  11.684  1.0245  0.1094  1.9263
 8738TIP3   OH247704   1.305   3.881   1.727 -0.3632  0.3104  0.0636
 8738TIP3    H147705   1.359   3.960   1.734  0.4839 -0.3490  1.4503
 8738TIP3    H247706   1.312   3.839   1.813 -2.2622 -0.3545 -0.0585
 8739TIP3   OH247707   3.048   2.828   2.999  0.6341 -0.3375  0.4623
 8739TIP3    H147708   3.052   2.827   3.095 -1.4423  1.3126  0.6430
 8739TIP3    H247709   3.016   2.741   2.975 -1.5816  0.1280  1.5160
 8740TIP3   OH247710   1.015   0.819  15.322 -0.2586  0.0000  0.1921
 8740TIP3    H147711   0.969   0.856  15.246 -0.5770  0.2964  0.5251
 8740TIP3    H247712   1.002   0.883  15.392 -0.2755 -0.4407  0.5994
 8741TIP3   OH247713   0.307   4.142  11.249 -0.2274 -0.6330  0.0388
 8741TIP3    H147714   0.309   4.051  11.219 -0.0082 -0.8494  0.6895
 8741TIP3    H247715   0.373   4.146  11.319 -0.1415  0.0585 -0.0667
 8742TIP3   OH247716   3.744   6.310   4.197  0.0062  0.7229  0.1073
 8742TIP3    H147717   3.804   6.256   4.146 -0.7841 -0.1521  0.0759
 8742TIP3    H247718   3.750   6.274   4.286  0.7878  1.7369  0.4967
 8743TIP3   OH247719   0.896   2.635  11.928  0.4423 -0.4503  0.1283
 8743TIP3    H147720   0.911   2.566  11.993  1.2208  0.1943  0.6582
 8743TIP3    H247721   0.975   2.690  11.933  0.4653 -0.3052 -1.2668
 8744TIP3   OH247722   6.413   5.208   4.976  0.2509 -0.2339  0.1819
 8744TIP3    H147723   6.450   5.270   5.038  1.1345  0.8293 -1.3460
 8744TIP3    H247724   6.328   5.245   4.952  0.5049  0.0718 -0.2568
 8745TIP3   OH247725   5.799   5.538   4.492 -0.8858  0.1675  0.1860
 8745TIP3    H147726   5.781   5.456   4.539 -0.9754  0.4088  0.5877
 8745TIP3    H247727   5.889   5.530   4.461 -0.9679 -0.1717  0.0389
 8746TIP3   OH247728   3.774   6.182  14.484  0.0044 -0.1129  0.0561
 8746TIP3    H147729   3.725   6.201  14.403  0.3854 -3.0098 -0.9903
 8746TIP3    H247730   3.710   6.138  14.540  0.5871 -1.2982 -0.1601
 8747TIP3   OH247731   5.803   1.831   5.171  0.4109 -0.0447  0.5464
 8747TIP3    H147732   5.891   1.866   5.155 -0.1200  0.5642 -1.2213
 8747TIP3    H247733   5.752   1.906   5.200  0.4500 -0.4031  1.5932
 8748TIP3   OH247734   3.808   3.010  16.400  0.3353  0.0929 -0.4064
 8748TIP3    H147735   3.783   2.918  16.391  1.9881 -0.2073 -3.1206
 8748TIP3    H247736   3.726   3.058  16.393 -0.3902 -1.1382 -0.5780
 8749TIP3   OH247737   1.521   2.737  16.237  0.1904 -0.2443 -0.0194
 8749TIP3    H147738   1.529   2.661  16.180 -1.2565 -2.5185  2.5679
 8749TIP3    H247739   1.604   2.742  16.283  0.3707 -0.0846 -0.3569
 8750TIP3   OH247740   0.526   0.544  14.057  0.2834  0.1618  0.2344
 8750TIP3    H147741   0.479   0.464  14.031 -1.1563  1.3839 -1.1068
 8750TIP3    H247742   0.618   0.518  14.057  0.1001 -0.9091 -2.6334
 8751TIP3   OH247743   6.461   2.561  15.707  0.3244 -0.1897  0.3754
 8751TIP3    H147744   6.426   2.518  15.786 -2.0012 -0.7984 -0.9057
 8751TIP3    H247745   6.400   2.537  15.638  1.2875  1.8425 -1.2666
 8752TIP3   OH247746   5.290   5.276   6.255 -0.1295 -0.6072 -0.2822
 8752TIP3    H147747   5.226   5.313   6.315 -0.4267 -2.1212  0.3741
 8752TIP3    H247748   5.354   5.232   6.311  0.2854 -0.9774 -1.0230
 8753TIP3   OH247749   0.762   4.977   5.821  0.1645  0.2593  0.5088
 8753TIP3    H147750   0.677   4.948   5.853  0.4461 -0.3431  0.7246
 8753TIP3    H247751   0.777   4.926   5.742 -0.1264  1.1011 -0.1107
 8754TIP3   OH247752   3.954   4.159  15.894  0.0607 -0.0705 -0.3714
 8754TIP3    H147753   3.948   4.065  15.912  0.1061 -0.0252 -0.1192
 8754TIP3    H247754   3.950   4.200  15.980  0.5190  0.1365 -0.4462
 8755TIP3   OH247755   0.833   3.897   2.866  0.2498  0.1396 -0.4110
 8755TIP3    H147756   0.856   3.988   2.886  0.2374  0.4183 -1.5783
 8755TIP3    H247757   0.765   3.904   2.799 -1.3754 -0.7149  1.0746
 8756TIP3   OH247758   1.142   5.026   1.655 -0.5390  0.3189  0.3213
 8756TIP3    H147759   1.177   5.021   1.744  0.9529 -0.7639 -0.2831
 8756TIP3    H247760   1.047   5.028   1.666 -0.5656 -3.3135  1.9000
 8757TIP3   OH247761   4.414   0.008  12.959 -0.4448  0.3350 -0.3382
 8757TIP3    H147762   4.412  -0.077  12.914 -2.9777  0.7509 -1.1606
 8757TIP3    H247763   4.488   0.054  12.920  0.4673 -1.1625 -0.4587
 8758TIP3   OH247764   6.525   4.274  14.811 -0.3748 -0.2244  0.0059
 8758TIP3    H147765   6.464   4.348  14.812 -1.5597 -1.1748  0.7284
 8758TIP3    H247766   6.490   4.216  14.743  0.3577 -0.2856 -0.3269
 8759TIP3   OH247767   3.234   5.175  13.311 -0.0319 -0.3223  0.0480
 8759TIP3    H147768   3.289   5.097  13.305  0.1384 -0.1186 -1.5818
 8759TIP3    H247769   3.149   5.148  13.276  0.2838  0.3997 -1.3927
 8760TIP3   OH247770   6.685   2.478   5.300  0.3248  0.1775  0.0545
 8760TIP3    H147771   6.727   2.553   5.257 -4.1365  3.7625  1.1310
 8760TIP3    H247772   6.627   2.442   5.233  1.9367 -2.1297 -0.2355
 8761TIP3   OH247773   0.355   0.618  12.620  0.2549  0.1650 -0.1209
 8761TIP3    H147774   0.325   0.709  12.618  0.5380  0.2777  0.6751
 8761TIP3    H247775   0.323   0.583  12.703 -0.1987 -0.5881 -0.6002
 8762TIP3   OH247776   4.301   5.602   6.343  0.0245 -0.4307 -0.8460
 8762TIP3    H147777   4.215   5.619   6.382  0.5607  2.0331 -0.5436
 8762TIP3    H247778   4.339   5.534   6.398 -2.2235 -2.6516 -1.8568
 8763TIP3   OH247779   6.630   6.293  14.501  0.7942  0.0297  0.0423
 8763TIP3    H147780   6.683   6.214  14.508  1.2137  0.3186  0.1753
 8763TIP3    H247781   6.558   6.280  14.563  0.4309 -0.5771 -0.5024
 8764TIP3   OH247782   6.136   1.260  15.929  0.1052 -0.1685  0.1620
 8764TIP3    H147783   6.204   1.261  15.996  1.5590  1.2355 -1.2197
 8764TIP3    H247784   6.065   1.207  15.966 -0.3395  2.6703  3.8925
 8765TIP3   OH247785   0.027   1.926  16.301  0.7063 -0.7507 -0.2223
 8765TIP3    H147786  -0.008   2.004  16.258 -0.0792 -0.5564  0.7358
 8765TIP3    H247787   0.122   1.935  16.294  0.6380  0.5719  0.3657
 8766TIP3   OH247788   0.639   1.646  13.769 -0.5621 -0.2814 -0.4240
 8766TIP3    H147789   0.669   1.617  13.683  0.6865  0.2760 -0.2129
 8766TIP3    H247790   0.713   1.628  13.828 -0.1743  2.0758 -0.0639
 8767TIP3   OH247791   3.823   3.949  15.643  0.1400  0.4341 -0.1151
 8767TIP3    H147792   3.879   3.962  15.567  0.8318  0.4071  0.3885
 8767TIP3    H247793   3.740   3.991  15.619  0.1875  0.0091 -1.0667
 8768TIP3   OH247794   1.304   1.319  16.397 -0.0983  0.0457  0.4126
 8768TIP3    H147795   1.343   1.300  16.482 -1.8496 -0.4752  1.1604
 8768TIP3    H247796   1.245   1.393  16.414 -0.9033 -0.4364 -0.2062
 8769TIP3   OH247797   2.363   3.553   0.835  0.1069 -0.3226  0.1639
 8769TIP3    H147798   2.451   3.589   0.828  1.3831 -3.3399 -0.8638
 8769TIP3    H247799   2.315   3.594   0.762  0.9421  0.5470  0.0776
 8770TIP3   OH247800   3.590   5.763  13.208  0.8898  0.1067  0.4886
 8770TIP3    H147801   3.509   5.800  13.244  0.7454  0.8436 -0.5237
 8770TIP3    H247802   3.609   5.687  13.263 -2.9862 -2.9653 -1.7912
 8771TIP3   OH247803   5.179   3.981  14.442  0.0691 -0.2802  0.0499
 8771TIP3    H147804   5.259   3.968  14.492  1.2213  1.7971 -1.1133
 8771TIP3    H247805   5.184   3.914  14.373 -0.6843 -2.0248  1.5983
 8772TIP3   OH247806   0.299   0.588  12.359 -0.4856  0.0818  0.5689
 8772TIP3    H147807   0.345   0.660  12.315  0.4739 -0.7387  0.1980
 8772TIP3    H247808   0.337   0.585  12.447 -2.2084  1.5414  1.4158
 8773TIP3   OH247809   0.993   2.947  15.628 -0.4451 -0.1996 -0.1907
 8773TIP3    H147810   0.940   2.938  15.549 -1.3868 -0.7959  0.4873
 8773TIP3    H247811   0.970   2.871  15.681  1.8821 -1.0587 -0.3064
 8774TIP3   OH247812   4.158   6.721  15.241 -0.0186  0.3336 -0.1538
 8774TIP3    H147813   4.068   6.754  15.241 -0.9690 -1.9067 -1.9787
 8774TIP3    H247814   4.188   6.732  15.151  1.0830 -0.0362  0.1487
 8775TIP3   OH247815   6.657   5.942  11.890 -0.9890 -0.7215 -0.2718
 8775TIP3    H147816   6.590   5.980  11.833 -0.6636 -0.5458 -0.5433
 8775TIP3    H247817   6.649   5.847  11.876 -0.1903 -0.6422 -1.4587
 8776TIP3   OH247818   3.921   4.974  11.592 -0.3832 -0.1582 -0.1482
 8776TIP3    H147819   3.892   4.933  11.674 -0.9675  0.2489 -0.1492
 8776TIP3    H247820   4.014   4.952  11.587 -0.8039 -2.0510 -0.4808
 8777TIP3   OH247821   4.804   5.956  12.726  0.0379  0.4013 -0.3030
 8777TIP3    H147822   4.717   5.993  12.712 -1.3759 -2.7141 -0.6574
 8777TIP3    H247823   4.797   5.909  12.809  0.4671 -2.0875 -1.5815
 8778TIP3   OH247824   0.193   5.262  17.157  0.5145 -0.1207  0.4415
 8778TIP3    H147825   0.237   5.319  17.094 -0.2618  1.0121  0.8929
 8778TIP3    H247826   0.164   5.321  17.226 -0.9510 -0.9461  0.5680
 8779TIP3   OH247827   0.182   4.313  14.288  0.0016  0.2968 -0.1682
 8779TIP3    H147828   0.098   4.285  14.251  0.0021  1.2331 -0.9244
 8779TIP3    H247829   0.163   4.399  14.327  0.0746 -0.5386  1.7891
 8780TIP3   OH247830   6.628   0.927   5.038  0.3108  0.7343 -0.4846
 8780TIP3    H147831   6.546   0.967   5.065 -0.5427 -0.8312 -0.6349
 8780TIP3    H247832   6.671   0.901   5.120  0.0239  0.3788 -0.4429
 8781TIP3   OH247833   0.779   1.311  16.948  0.5675  0.1018 -0.0948
 8781TIP3    H147834   0.761   1.220  16.971  0.2505 -0.1861 -1.4075
 8781TIP3    H247835   0.718   1.362  17.001  0.9029 -0.4225  0.8209
 8782TIP3   OH247836   5.961   5.353  12.924 -0.2151  0.0354 -0.3251
 8782TIP3    H147837   5.909   5.386  12.851 -0.8650 -0.5970 -0.1594
 8782TIP3    H247838   6.038   5.409  12.925 -0.4604  0.4111 -1.1438
 8783TIP3   OH247839   0.492   0.771   0.902  0.3211 -0.1839  0.7049
 8783TIP3    H147840   0.471   0.677   0.896  0.4059 -0.1759  0.2804
 8783TIP3    H247841   0.574   0.780   0.853 -0.0746  0.2364  0.1163
 8784TIP3   OH247842   3.299   0.116  10.706 -0.3549 -0.0316  0.2131
 8784TIP3    H147843   3.208   0.086  10.698 -0.3075 -0.0242 -0.4151
 8784TIP3    H247844   3.304   0.153  10.793 -1.6282  2.2575 -0.6117
 8785TIP3   OH247845   5.558   4.468  15.001 -0.1870 -0.0888  0.1932
 8785TIP3    H147846   5.578   4.465  15.095  1.5873  0.3229 -0.1362
 8785TIP3    H247847   5.543   4.376  14.977 -1.0858 -0.1561  0.9428
 8786TIP3   OH247848   4.943   5.105  15.156 -0.0203 -0.1837 -0.0533
 8786TIP3    H147849   5.020   5.155  15.128  1.5403 -1.3223  1.9645
 8786TIP3    H247850   4.957   5.017  15.123 -0.9186 -0.2018 -0.4201
 8787TIP3   OH247851   6.369   3.549   5.405  0.8667 -0.2316  0.8223
 8787TIP3    H147852   6.366   3.488   5.332 -2.1014  1.0275 -0.2429
 8787TIP3    H247853   6.306   3.514   5.469 -1.5647  1.9704 -0.1794
 8788TIP3   OH247854   3.766   5.436   5.279  0.5984 -0.5533  0.0820
 8788TIP3    H147855   3.736   5.430   5.188 -0.9574 -0.3389  0.5486
 8788TIP3    H247856   3.853   5.396   5.278  1.4091  1.0730 -1.8346
 8789TIP3   OH247857   6.785   6.024   2.233  0.4249  0.4282 -0.1886
 8789TIP3    H147858   6.782   5.997   2.141 -0.1515  1.7216 -0.5734
 8789TIP3    H247859   6.867   5.987   2.266 -0.3590 -1.8118 -0.6223
 8790TIP3   OH247860   2.443   5.710   1.771 -0.4735  0.2907 -0.7305
 8790TIP3    H147861   2.502   5.673   1.837 -1.1557 -0.7165 -0.6534
 8790TIP3    H247862   2.499   5.727   1.695  0.1984  0.8506 -0.1293
 8791TIP3   OH247863   6.055   1.562   3.188 -0.1832 -0.0555  0.1343
 8791TIP3    H147864   5.971   1.563   3.142 -0.3691  1.4615  0.4496
 8791TIP3    H247865   6.039   1.508   3.265 -0.4706 -0.8856 -0.4902
 8792TIP3   OH247866   5.585   5.595   1.244  0.3308  0.3975  0.1158
 8792TIP3    H147867   5.609   5.672   1.192 -1.4583  0.1179 -1.2404
 8792TIP3    H247868   5.498   5.571   1.211 -0.1969 -0.7623  2.1851
 8793TIP3   OH247869   5.495   6.682  12.346 -0.2054  0.5472 -0.0514
 8793TIP3    H147870   5.482   6.605  12.291  1.4526  0.2951 -0.1295
 8793TIP3    H247871   5.414   6.732  12.335 -0.7408 -0.4777 -1.1063
 8794TIP3   OH247872   6.486   1.705  13.118  0.2142  0.2583 -0.3003
 8794TIP3    H147873   6.546   1.774  13.149  0.5289  0.1145 -0.5878
 8794TIP3    H247874   6.528   1.670  13.040 -0.4209  0.3981 -0.7103
 8795TIP3   OH247875   2.445   5.324  15.693 -0.0370  0.2002 -0.0145
 8795TIP3    H147876   2.350   5.329  15.708  0.3089 -0.0004  2.8855
 8795TIP3    H247877   2.462   5.230  15.682 -0.3203  0.3650 -2.1243
 8796TIP3   OH247878   1.563   5.506  12.584 -0.2176 -0.1089 -0.3818
 8796TIP3    H147879   1.522   5.456  12.655 -0.0304  0.7580  0.3514
 8796TIP3    H247880   1.598   5.439  12.525 -1.4806 -0.8584 -0.3274
 8797TIP3   OH247881   3.113   1.097  11.524 -0.1615  0.0655 -0.5554
 8797TIP3    H147882   3.039   1.038  11.537  0.3652 -0.8290 -1.4976
 8797TIP3    H247883   3.190   1.040  11.526  0.6714  1.1338  1.7862
 8798TIP3   OH247884   1.663   5.785  14.798  0.0499  0.9035  0.0774
 8798TIP3    H147885   1.678   5.877  14.775  0.7565  1.0760  1.1197
 8798TIP3    H247886   1.700   5.777  14.886 -1.7321  0.0950  0.8016
 8799TIP3   OH247887   2.832   5.137  10.641 -0.1778  0.1966  0.3732
 8799TIP3    H147888   2.815   5.108  10.552 -0.5314  1.5583 -0.0220
 8799TIP3    H247889   2.904   5.200  10.633 -1.3699  1.6679  0.7821
 8800TIP3   OH247890   3.945   1.935  14.678  0.6781  0.0914  0.6249
 8800TIP3    H147891   3.967   2.021  14.714 -1.8922  1.8877 -1.6716
 8800TIP3    H247892   3.856   1.919  14.709  0.2283 -0.5754 -0.9466
 8801TIP3   OH247893   0.861   4.872   1.050 -0.0998 -0.3344 -0.1147
 8801TIP3    H147894   0.795   4.934   1.019 -0.8305 -1.3321 -0.6113
 8801TIP3    H247895   0.934   4.883   0.989 -0.0876  0.2492 -0.0071
 8802TIP3   OH247896   5.660   1.573  14.250 -0.1149 -0.1736 -0.2259
 8802TIP3    H147897   5.660   1.651  14.195 -0.1532  0.6382  0.8846
 8802TIP3    H247898   5.574   1.572  14.291  1.5136  2.3185  3.8989
 8803TIP3   OH247899   4.548   4.549   3.463  0.5942  0.2347 -0.5034
 8803TIP3    H147900   4.498   4.480   3.506  0.8285 -0.6395 -1.6056
 8803TIP3    H247901   4.482   4.616   3.443  0.3475  0.2919  0.4649
 8804TIP3   OH247902   3.926   0.716  14.869  0.0570  0.0387 -0.1339
 8804TIP3    H147903   3.991   0.650  14.844  1.1518  1.0953 -0.1235
 8804TIP3    H247904   3.904   0.760  14.787  0.3675  0.5762  0.0651
 8805TIP3   OH247905   3.474   5.395  10.882 -0.0867  0.5870 -0.9924
 8805TIP3    H147906   3.509   5.308  10.899  0.4669  1.1419  1.0452
 8805TIP3    H247907   3.391   5.380  10.837 -0.8044 -1.0945  0.7237
 8806TIP3   OH247908   4.762   5.678   2.325  0.6866  0.3483 -0.1697
 8806TIP3    H147909   4.848   5.673   2.367  0.4989  0.4611  0.2340
 8806TIP3    H247910   4.773   5.745   2.258  1.0204  0.0900 -0.3765
 8807TIP3   OH247911   1.220   4.692  15.694  0.1859  0.5717 -0.0556
 8807TIP3    H147912   1.224   4.611  15.642  0.9832  0.4271  0.2264
 8807TIP3    H247913   1.207   4.662  15.784 -0.0260  0.7825 -0.0142
 8808TIP3   OH247914   1.234   6.121   2.248  0.3092  0.1592  0.3358
 8808TIP3    H147915   1.162   6.183   2.236 -0.4371 -0.2732  2.2276
 8808TIP3    H247916   1.312   6.175   2.253 -0.0339  0.7428 -0.4255
 8809TIP3   OH247917   3.180   5.402   4.938  0.5010  0.4225 -0.0481
 8809TIP3    H147918   3.183   5.342   5.013 -0.2609 -0.5275 -0.7514
 8809TIP3    H247919   3.088   5.401   4.910  0.3157  2.4639  0.3313
 8810TIP3   OH247920   2.114   1.318   4.531 -0.5674  0.1301  0.2724
 8810TIP3    H147921   2.052   1.251   4.561 -0.0973  0.7963  3.0291
 8810TIP3    H247922   2.059   1.390   4.501 -1.1026 -0.2698  0.2861
 8811TIP3   OH247923   5.981   6.538   6.476 -0.1323 -0.9123  0.3483
 8811TIP3    H147924   5.918   6.525   6.547  0.2544 -1.7427  0.5517
 8811TIP3    H247925   5.971   6.462   6.420  0.8754 -1.2014  0.5328
 8812TIP3   OH247926   0.606   2.769  17.120 -0.4300  0.0286  0.0024
 8812TIP3    H147927   0.641   2.764  17.031 -0.8462 -1.9917 -0.0933
 8812TIP3    H247928   0.575   2.859  17.128  1.1912  0.7532 -1.2638
 8813TIP3   OH247929   2.688   0.152  16.549 -0.3892  0.5175  0.3424
 8813TIP3    H147930   2.636   0.211  16.604 -0.3066  0.8905  0.0241
 8813TIP3    H247931   2.772   0.145  16.595 -0.9276 -0.6188  1.2112
 8814TIP3   OH247932   5.906   4.669  14.645  0.3307 -0.1854 -0.1406
 8814TIP3    H147933   5.953   4.737  14.597 -0.1813  0.1428 -0.1890
 8814TIP3    H247934   5.880   4.605  14.579  1.5504 -0.8744  0.0232
 8815TIP3   OH247935   4.233   3.329   5.037  0.5559  0.6742  0.5132
 8815TIP3    H147936   4.210   3.331   5.130 -0.6693  1.8336  0.2196
 8815TIP3    H247937   4.179   3.259   5.001  1.3789 -0.0945  0.7374
 8816TIP3   OH247938   5.828   0.297   5.293 -0.0089 -0.0319  0.3480
 8816TIP3    H147939   5.847   0.298   5.387  2.5545  2.1813 -0.0743
 8816TIP3    H247940   5.898   0.243   5.255  0.0211  0.5265 -0.4252
 8817TIP3   OH247941   2.085   2.680  14.437 -0.6589  0.3670  0.5290
 8817TIP3    H147942   2.087   2.728  14.354 -1.1299  1.0546  0.8998
 8817TIP3    H247943   2.048   2.595  14.415 -1.5337  0.8280  0.1538
 8818TIP3   OH247944   3.510   6.471  14.669  0.1106  0.5296  0.2197
 8818TIP3    H147945   3.606   6.466  14.669  0.1496  0.8209 -1.5471
 8818TIP3    H247946   3.489   6.525  14.593 -1.3223  3.5156  2.5217
 8819TIP3   OH247947   5.169   4.360  13.822 -0.3304 -0.2968 -0.6844
 8819TIP3    H147948   5.153   4.386  13.913 -2.8092 -0.5478 -0.9742
 8819TIP3    H247949   5.193   4.267  13.828  1.9154  0.2628 -0.1622
 8820TIP3   OH247950   5.703   2.788   1.811  0.1830 -0.0972 -1.3444
 8820TIP3    H147951   5.794   2.759   1.811  0.0872 -0.4808 -0.2284
 8820TIP3    H247952   5.655   2.717   1.855 -0.7945 -0.2831 -2.6640
 8821TIP3   OH247953   6.306   3.509   4.423 -0.6749 -0.1511 -0.0540
 8821TIP3    H147954   6.367   3.583   4.418  0.0827 -0.7225  0.5234
 8821TIP3    H247955   6.235   3.540   4.479 -0.5906  0.2954 -0.1916
 8822TIP3   OH247956   1.531   0.227  12.205 -0.2802  0.1909 -0.3465
 8822TIP3    H147957   1.466   0.266  12.146 -0.2211  0.6144 -0.1328
 8822TIP3    H247958   1.578   0.301  12.242  2.2639 -0.1178 -2.6145
 8823TIP3   OH247959   3.730   4.967   0.013  0.6437 -0.0358  0.6084
 8823TIP3    H147960   3.636   4.957  -0.005  0.5792 -2.6415  1.8966
 8823TIP3    H247961   3.742   5.061   0.026 -1.8902  0.3240  0.8709
 8824TIP3   OH247962   2.459   2.136  11.324 -0.0057  0.5623 -0.2942
 8824TIP3    H147963   2.469   2.058  11.378 -1.6476 -0.7990 -1.8118
 8824TIP3    H247964   2.503   2.114  11.241 -1.1607  0.8741 -1.0224
 8825TIP3   OH247965   1.321   1.253   4.261  0.4140  0.6304 -0.6144
 8825TIP3    H147966   1.366   1.218   4.184 -0.5969  0.2479 -1.0429
 8825TIP3    H247967   1.337   1.188   4.330  1.6714  1.1748 -0.3580
 8826TIP3   OH247968   1.228   0.257  13.020  0.3069 -0.5620 -0.2053
 8826TIP3    H147969   1.274   0.275  13.101  1.1507  0.1803 -0.8372
 8826TIP3    H247970   1.135   0.253  13.045  0.6224 -1.1997  0.9231
 8827TIP3   OH247971   1.853   4.794   3.990 -0.1475 -0.3860 -0.0105
 8827TIP3    H147972   1.899   4.799   3.906 -0.2107 -0.4376 -0.0475
 8827TIP3    H247973   1.881   4.873   4.037 -0.3752 -0.1858 -0.2142
 8828TIP3   OH247974   3.793   6.384   0.788 -0.1535  0.0175  0.3292
 8828TIP3    H147975   3.767   6.449   0.723  1.8773  0.7239  0.1300
 8828TIP3    H247976   3.819   6.436   0.864  0.3976 -0.6191  0.5831
 8829TIP3   OH247977   3.172   6.748   5.536 -0.3601  0.2600  0.0111
 8829TIP3    H147978   3.223   6.817   5.492  0.5726 -0.4045  0.0277
 8829TIP3    H247979   3.230   6.717   5.606 -1.2352  0.2531  0.7375
 8830TIP3   OH247980   6.555   4.513  13.273 -0.1771  0.2615 -0.0913
 8830TIP3    H147981   6.491   4.522  13.203 -1.7123  1.1655  1.3747
 8830TIP3    H247982   6.617   4.447  13.240 -2.4760 -1.5382 -1.1210
 8831TIP3   OH247983   2.947   4.137  14.819 -0.0985  0.3279 -0.3147
 8831TIP3    H147984   3.014   4.086  14.773 -0.2836  1.2043 -1.6053
 8831TIP3    H247985   2.867   4.085  14.809  0.1355 -0.1245  0.1614
 8832TIP3   OH247986   1.473   5.938   0.820 -0.0987 -0.6229 -0.6128
 8832TIP3    H147987   1.552   5.991   0.827  1.3483 -2.7856  0.4606
 8832TIP3    H247988   1.401   6.001   0.832  1.4872  1.1289  0.2581
 8833TIP3   OH247989   4.054   5.681  12.801  0.0236  0.5292 -0.4249
 8833TIP3    H147990   3.972   5.729  12.810 -0.1052  0.2313 -0.0206
 8833TIP3    H247991   4.079   5.658  12.890  0.3054  0.2108 -0.5838
 8834TIP3   OH247992   4.932   4.971   1.863 -0.2598  0.7013 -0.1539
 8834TIP3    H147993   4.968   5.051   1.824 -1.9868  1.4150 -0.3871
 8834TIP3    H247994   4.896   5.001   1.947  0.4279 -0.1599  0.4667
 8835TIP3   OH247995   4.842   4.525  15.912 -0.7577  0.0492  0.1603
 8835TIP3    H147996   4.881   4.587  15.975 -2.7442  0.7586  0.7892
 8835TIP3    H247997   4.892   4.537  15.832 -0.5532  1.9242  0.5201
 8836TIP3   OH247998   2.019   4.580   3.401 -0.1451 -0.2011  0.2391
 8836TIP3    H147999   2.078   4.648   3.370  0.1174 -0.1029  0.9372
 8836TIP3    H248000   1.960   4.624   3.462 -1.0571 -0.2637 -0.5877
 8837TIP3   OH248001   1.975   4.121   0.738 -0.3550 -0.4449 -0.1161
 8837TIP3    H148002   2.014   4.148   0.821 -0.7039 -1.4305  0.3809
 8837TIP3    H248003   1.922   4.196   0.711 -0.6472 -0.3091  0.8117
 8838TIP3   OH248004   6.663   5.524   3.116  0.4570 -0.7335  0.3399
 8838TIP3    H148005   6.706   5.444   3.084 -0.1701 -0.7995 -0.3661
 8838TIP3    H248006   6.732   5.571   3.163  1.3593 -0.7459 -0.9233
 8839TIP3   OH248007   4.290   5.138   2.590  0.7260  0.7329 -0.1198
 8839TIP3    H148008   4.349   5.201   2.631  0.4542  0.8982  0.0226
 8839TIP3    H248009   4.210   5.143   2.642  0.7988  0.0674  0.0608
 8840TIP3   OH248010   2.565   1.815   2.023 -0.2365 -0.4551  0.4324
 8840TIP3    H148011   2.595   1.799   1.934  0.2200 -0.9454  0.6705
 8840TIP3    H248012   2.481   1.861   2.012 -0.6165 -1.2748 -0.2562
 8841TIP3   OH248013   0.707   1.338  10.993 -0.2375  0.1134  0.2875
 8841TIP3    H148014   0.699   1.262  10.935  1.3195  1.4254 -1.7887
 8841TIP3    H248015   0.782   1.318  11.049  0.5319  0.3400 -0.6469
 8842TIP3   OH248016   5.447   5.848  14.503  0.9671 -0.5368 -0.2623
 8842TIP3    H148017   5.353   5.842  14.488  0.9293  0.6554 -0.5556
 8842TIP3    H248018   5.486   5.808  14.425  0.7318  3.0512 -2.4126
 8843TIP3   OH248019   2.941   3.474   5.615  0.2576  0.0078 -0.2566
 8843TIP3    H148020   2.936   3.523   5.532 -0.8370  0.2333 -0.0692
 8843TIP3    H248021   2.925   3.540   5.682 -0.4499 -0.4541  0.0392
 8844TIP3   OH248022   1.276   3.193  15.926 -0.8591  0.2848  0.2279
 8844TIP3    H148023   1.254   3.141  16.003  1.4657 -2.8071 -0.9698
 8844TIP3    H248024   1.364   3.226  15.943 -1.4312  2.0503  0.0029
 8845TIP3   OH248025   6.350   0.903  17.002  0.2026  0.1279  0.1190
 8845TIP3    H148026   6.442   0.927  16.989  0.2719 -0.4236 -0.4367
 8845TIP3    H248027   6.305   0.987  17.015  0.8280  0.3781  0.7244
 8846TIP3   OH248028   5.379   2.158  14.549  0.5248  0.3419 -0.2927
 8846TIP3    H148029   5.436   2.179  14.624  0.1692  0.3360 -0.0196
 8846TIP3    H248030   5.356   2.066  14.562 -1.9219  1.0931  1.2077
 8847TIP3   OH248031   4.398   2.082   2.640  0.2473  0.4234 -0.0065
 8847TIP3    H148032   4.372   2.047   2.726 -0.9220  0.4655 -0.3252
 8847TIP3    H248033   4.327   2.140   2.615 -0.0152 -0.4826 -1.5286
 8848TIP3   OH248034   4.914   1.405   4.874 -0.1423 -0.6195  0.0968
 8848TIP3    H148035   4.894   1.365   4.789  1.6550 -0.9298 -0.2161
 8848TIP3    H248036   4.986   1.465   4.856  0.1245 -0.5421  1.3703
 8849TIP3   OH248037   6.556   2.007  11.489 -0.0862  0.6264  0.3927
 8849TIP3    H148038   6.479   1.962  11.455  0.1342 -0.8137  1.6971
 8849TIP3    H248039   6.630   1.951  11.465  0.2339  0.4148  1.7942
 8850TIP3   OH248040   0.204   1.444   3.899  0.5387  0.3128  0.4228
 8850TIP3    H148041   0.109   1.438   3.890  0.6803 -1.0895 -0.5497
 8850TIP3    H248042   0.228   1.525   3.852  0.0377 -0.6829 -1.6803
 8851TIP3   OH248043   5.434   5.897   5.074 -0.5145  0.1666  0.0328
 8851TIP3    H148044   5.396   5.907   4.987  0.3465 -1.8933 -0.6182
 8851TIP3    H248045   5.440   5.803   5.088  1.9295  0.3967  1.1521
 8852TIP3   OH248046   5.241   2.773   0.744 -0.1898  0.0780 -0.3878
 8852TIP3    H148047   5.261   2.715   0.670  0.8626  0.8662 -0.7428
 8852TIP3    H248048   5.157   2.741   0.777 -0.7810 -0.1764 -2.0468
 8853TIP3   OH248049   4.867   3.948   3.312  0.5223 -0.4302 -0.0609
 8853TIP3    H148050   4.840   3.967   3.401  1.7506 -1.6310  0.6033
 8853TIP3    H248051   4.820   3.869   3.288 -0.3348  0.2670 -0.7643
 8854TIP3   OH248052   0.137   3.617  13.902  0.1974 -0.2239  0.0986
 8854TIP3    H148053   0.132   3.643  13.994 -1.5251  0.9289 -0.2544
 8854TIP3    H248054   0.075   3.545  13.895 -0.3438  0.2688 -0.3054
 8855TIP3   OH248055   6.543   5.069   5.368 -0.0647 -0.3087 -0.6006
 8855TIP3    H148056   6.507   5.010   5.435 -0.6815 -0.3763 -0.9890
 8855TIP3    H248057   6.627   5.098   5.405 -0.7024  0.1831  0.5029
 8856TIP3   OH248058   1.529   1.722   5.226 -0.6588 -0.5031  0.1429
 8856TIP3    H148059   1.583   1.719   5.147 -1.0860  3.1874 -0.4488
 8856TIP3    H248060   1.442   1.693   5.196 -0.2263 -1.6673 -0.0560
 8857TIP3   OH248061   5.772   4.214   5.910 -0.3662 -0.4817 -0.1944
 8857TIP3    H148062   5.866   4.200   5.922  0.2110  2.9150  0.1297
 8857TIP3    H248063   5.756   4.189   5.819  1.2301  0.4106 -0.7669
 8858TIP3   OH248064   5.621   5.463   5.086 -0.0836  0.1936  0.6117
 8858TIP3    H148065   5.554   5.399   5.064  0.3063  0.5264 -1.8475
 8858TIP3    H248066   5.682   5.461   5.011  0.4840  2.6923  0.9039
 8859TIP3   OH248067   1.647   4.040  12.604  0.3389  0.0060  0.1170
 8859TIP3    H148068   1.681   4.128  12.594 -0.9093  0.4276 -0.6530
 8859TIP3    H248069   1.714   3.994  12.654  1.5849  1.0371 -0.5358
 8860TIP3   OH248070   2.911   4.555   1.218  0.5493 -0.2248  0.0711
 8860TIP3    H148071   2.960   4.637   1.226  0.6693 -0.2776 -0.1099
 8860TIP3    H248072   2.834   4.578   1.165 -0.2402  0.1237  1.3172
 8861TIP3   OH248073   6.372   2.196  12.685  0.0673 -0.5650 -0.0934
 8861TIP3    H148074   6.316   2.274  12.692  0.5639 -0.3398  1.9096
 8861TIP3    H248075   6.454   2.230  12.648  0.3326 -0.1015  0.9029
 8862TIP3   OH248076   3.034   1.105   0.875 -0.5112 -0.6070 -0.0842
 8862TIP3    H148077   3.085   1.071   0.948  0.1862 -0.4879 -0.5061
 8862TIP3    H248078   3.016   1.196   0.898 -0.0855 -0.5000 -0.1629
 8863TIP3   OH248079   3.818   4.177  12.422  0.4151  0.5251 -0.4762
 8863TIP3    H148080   3.746   4.124  12.388 -0.5640  1.6037 -0.1518
 8863TIP3    H248081   3.884   4.114  12.448 -0.5871 -0.5246 -0.3907
 8864TIP3   OH248082   1.916   1.685   4.280  0.1883  0.1869  0.6219
 8864TIP3    H148083   1.925   1.623   4.352 -0.3328  0.4610  0.9206
 8864TIP3    H248084   1.908   1.629   4.202 -1.0053 -0.1460  0.9630
 8865TIP3   OH248085   0.178   5.883  15.857 -0.0337 -0.2064  0.1459
 8865TIP3    H148086   0.097   5.920  15.823  0.7730  1.0957 -0.4525
 8865TIP3    H248087   0.186   5.919  15.946  0.2796  0.2964 -0.0862
 8866TIP3   OH248088   2.221   5.353  15.189 -0.8903  0.0740  0.2362
 8866TIP3    H148089   2.220   5.439  15.230 -2.5811  0.2219 -0.0307
 8866TIP3    H248090   2.207   5.292  15.261  0.9917 -0.0546  0.5233
 8867TIP3   OH248091   5.067   2.455  12.736  0.0129  0.0123  0.1780
 8867TIP3    H148092   5.114   2.537  12.721 -1.3053  0.7818  0.0660
 8867TIP3    H248093   5.088   2.431  12.826  0.0323  0.7393  0.3752
 8868TIP3   OH248094   3.909   0.802   6.802 -0.2248  0.4282 -0.2252
 8868TIP3    H148095   3.963   0.843   6.869  0.3577  1.0216 -1.0342
 8868TIP3    H248096   3.956   0.722   6.779  0.9229  1.4867 -1.7045
 8869TIP3   OH248097   6.144   0.766  13.746 -0.3001  0.0964 -0.0357
 8869TIP3    H148098   6.081   0.820  13.697  1.4011  0.4837 -1.9111
 8869TIP3    H248099   6.142   0.802  13.835 -1.5753  1.1073 -0.4306
 8870TIP3   OH248100   3.844   2.500  17.091 -0.4589  0.2300 -0.3741
 8870TIP3    H148101   3.907   2.503  17.162 -1.0183 -1.8573  0.2698
 8870TIP3    H248102   3.894   2.469  17.015 -0.4196 -0.0871 -0.2175
 8871TIP3   OH248103   4.028   2.167  15.619  0.2798  0.0834  0.1023
 8871TIP3    H148104   3.959   2.192  15.558  1.7413  1.6828 -0.9816
 8871TIP3    H248105   4.021   2.230  15.691  0.1782 -0.1937  0.3376
 8872TIP3   OH248106   2.533   2.589   3.312 -0.2426 -0.3996  0.2808
 8872TIP3    H148107   2.450   2.558   3.278 -0.2518  1.3324 -1.4739
 8872TIP3    H248108   2.554   2.666   3.258  2.9185 -1.2981  0.0293
 8873TIP3   OH248109   4.297   5.647   4.676 -0.6420  0.2179  0.1831
 8873TIP3    H148110   4.352   5.578   4.714 -0.7894  0.2879  0.5285
 8873TIP3    H248111   4.214   5.638   4.722  0.0243  2.0677  1.8626
 8874TIP3   OH248112   6.495   1.388  15.125  0.2487 -0.1112 -0.1843
 8874TIP3    H148113   6.508   1.462  15.184  0.2874  1.1623 -1.7251
 8874TIP3    H248114   6.407   1.401  15.089  0.1779 -0.9230 -0.3302
 8875TIP3   OH248115   4.152   0.338   0.594 -0.6330 -0.1563  0.0649
 8875TIP3    H148116   4.104   0.363   0.673 -0.7065 -1.9629  0.6179
 8875TIP3    H248117   4.094   0.364   0.522 -2.0000 -1.3615  0.6984
 8876TIP3   OH248118   5.672   6.553  12.044 -0.7299  0.7053  0.1442
 8876TIP3    H148119   5.708   6.478  11.997 -2.1340 -0.2887  0.6100
 8876TIP3    H248120   5.627   6.605  11.977  0.4747  1.3104 -0.2249
 8877TIP3   OH248121   6.241   0.143   2.237  0.5190  0.7472  0.0708
 8877TIP3    H148122   6.234   0.237   2.223  1.2670  0.8738  0.4881
 8877TIP3    H248123   6.170   0.122   2.298 -0.4303  0.8136 -0.9702
 8878TIP3   OH248124   4.432   2.251  10.562  0.2541  0.4694  0.1637
 8878TIP3    H148125   4.453   2.196  10.636  1.0552 -0.4058 -0.6880
 8878TIP3    H248126   4.516   2.269  10.520  0.0563  2.5224  0.5093
 8879TIP3   OH248127   6.452   0.307  12.956  0.4588 -0.5039  0.4936
 8879TIP3    H148128   6.452   0.300  13.052 -0.3701 -0.5353  0.5000
 8879TIP3    H248129   6.540   0.281  12.930  2.0334  3.0876  1.4974
 8880TIP3   OH248130   5.440   3.649  12.407 -0.3661  0.3580  0.1157
 8880TIP3    H148131   5.431   3.587  12.334 -3.3275 -0.1504  0.7873
 8880TIP3    H248132   5.465   3.594  12.481  0.0086  0.4429  0.0504
 8881TIP3   OH248133   6.686   0.676   5.762  0.1474  0.0597 -0.3921
 8881TIP3    H148134   6.616   0.619   5.731  0.8741 -1.2959  0.3521
 8881TIP3    H248135   6.653   0.765   5.748 -1.7737 -0.5289  0.0730
 8882TIP3   OH248136   5.272   1.679   3.287 -0.1627  0.3216  0.3142
 8882TIP3    H148137   5.346   1.692   3.346 -0.3990 -0.2298  0.7409
 8882TIP3    H248138   5.278   1.587   3.262 -0.0930  0.5404 -0.4850
 8883TIP3   OH248139   3.990   4.588  12.164 -0.5215 -0.2336 -0.2243
 8883TIP3    H148140   3.905   4.594  12.208 -0.0725  0.2351  0.6095
 8883TIP3    H248141   3.984   4.510  12.110 -1.9353  0.5066 -1.1807
 8884TIP3   OH248142   4.270   6.406  16.983 -0.0302  0.1695  0.5905
 8884TIP3    H148143   4.211   6.403  17.058  0.0622  0.2922  0.6693
 8884TIP3    H248144   4.267   6.496  16.953  0.0329  0.1507  0.5271
 8885TIP3   OH248145   3.468   4.776   3.874  0.4935 -0.8230 -0.0330
 8885TIP3    H148146   3.519   4.721   3.815  1.1273 -1.1745  0.8176
 8885TIP3    H248147   3.486   4.740   3.962  0.5729  0.4594  0.4954
 8886TIP3   OH248148   3.970   3.990   0.540  0.0395  0.2595 -0.8908
 8886TIP3    H148149   3.960   4.085   0.529 -0.9491  0.2847  0.1370
 8886TIP3    H248150   3.882   3.955   0.524  0.0834 -0.3394  0.1494
 8887TIP3   OH248151   4.416   5.795  15.147 -0.3774  0.0143  0.0091
 8887TIP3    H148152   4.506   5.809  15.179  0.3319 -0.3329 -1.7110
 8887TIP3    H248153   4.367   5.768  15.224  0.9623  0.3722  1.0242
 8888TIP3   OH248154   6.355   0.353  14.279 -0.7610 -0.1028 -0.1414
 8888TIP3    H148155   6.316   0.274  14.241 -0.8839  0.0052 -0.2385
 8888TIP3    H248156   6.365   0.413  14.205 -0.6765 -0.0231 -0.0656
 8889TIP3   OH248157   6.818   1.089  13.838  0.1813  0.1222 -0.0455
 8889TIP3    H148158   6.781   1.152  13.776  2.0154  0.4619 -0.8773
 8889TIP3    H248159   6.885   1.138  13.885  0.1206 -0.6475  0.8854
 8890TIP3   OH248160   6.398   0.055   3.917  0.6850  0.1285  0.1555
 8890TIP3    H148161   6.369   0.098   3.836 -0.7629  2.6497  1.8748
 8890TIP3    H248162   6.440  -0.025   3.887  0.0777  0.8571 -3.0839
 8891TIP3   OH248163   1.817   1.928  10.711  0.2464  0.1802 -0.5408
 8891TIP3    H148164   1.826   2.021  10.731  1.1253  0.0041 -0.0807
 8891TIP3    H248165   1.753   1.925  10.640 -0.4969  1.0601  0.0688
 8892TIP3   OH248166   5.532   2.425  15.138  0.4269  0.6680 -0.1469
 8892TIP3    H148167   5.471   2.355  15.115  1.9567 -0.7325 -0.1517
 8892TIP3    H248168   5.540   2.418  15.233  0.7823  0.6530 -0.1787
 8893TIP3   OH248169   4.961   6.160   2.331  0.5014 -0.1298 -0.4338
 8893TIP3    H148170   4.867   6.143   2.338  0.3748 -0.2930 -2.0647
 8893TIP3    H248171   4.994   6.152   2.420 -0.4738 -3.4313 -0.2417
 8894TIP3   OH248172   5.428   2.053   5.392  0.1005 -0.2376 -0.0236
 8894TIP3    H148173   5.428   1.957   5.396  0.2089 -0.3139 -1.3676
 8894TIP3    H248174   5.337   2.077   5.406  0.1004 -0.5209  0.5023
 8895TIP3   OH248175   6.172   3.639   4.163  0.0686  0.0384  0.1521
 8895TIP3    H148176   6.225   3.607   4.236 -2.3234  1.5390  2.7557
 8895TIP3    H248177   6.151   3.561   4.112  0.7136 -1.3109  1.8590
 8896TIP3   OH248178   4.389   5.884  13.887  0.0572  0.6945  0.2413
 8896TIP3    H148179   4.388   5.791  13.912  1.0415  1.0760  1.8936
 8896TIP3    H248180   4.316   5.893  13.825  0.5786 -1.3713 -0.7623
 8897TIP3   OH248181   2.683   2.807   5.378  0.0249  0.4792 -0.3991
 8897TIP3    H148182   2.604   2.843   5.337  0.5780  2.4821  0.1882
 8897TIP3    H248183   2.755   2.835   5.320  0.7880  3.0709  1.5739
 8898TIP3   OH248184   0.994   2.574  10.478 -0.0158 -0.0011  0.2128
 8898TIP3    H148185   0.911   2.554  10.434 -0.3182  2.4996 -0.4777
 8898TIP3    H248186   1.059   2.519  10.433 -0.8125  0.2988 -1.3807
 8899TIP3   OH248187   5.116   5.052   3.557  0.0923 -0.0453 -0.1568
 8899TIP3    H148188   5.082   5.030   3.471 -0.4198  1.5844 -0.4186
 8899TIP3    H248189   5.165   4.975   3.585  0.3557 -0.5643 -1.9388
 8900TIP3   OH248190   5.610   4.596   0.610 -0.2328 -0.2485  0.0716
 8900TIP3    H148191   5.618   4.665   0.544 -0.7625 -0.3837 -0.1424
 8900TIP3    H248192   5.618   4.642   0.694  1.3381 -0.1921 -0.0736
 8901TIP3   OH248193   2.873   1.605   0.805  0.4524 -0.7187 -0.0969
 8901TIP3    H148194   2.953   1.650   0.781 -0.2294  1.1811  0.9899
 8901TIP3    H248195   2.803   1.662   0.773 -0.4416 -1.0171  1.2514
 8902TIP3   OH248196   0.878   5.537   2.234  0.6178 -0.4016  0.3040
 8902TIP3    H148197   0.885   5.614   2.178 -2.7418 -0.9219 -1.0583
 8902TIP3    H248198   0.876   5.572   2.323 -1.9625  1.2951 -0.3251
 8903TIP3   OH248199   6.578   3.517  16.824  0.1925  0.2342  0.2328
 8903TIP3    H148200   6.567   3.525  16.919 -0.6822  0.6696  0.1036
 8903TIP3    H248201   6.549   3.602  16.789  0.0718 -0.0862 -0.4605
 8904TIP3   OH248202   0.681   6.352  16.128 -0.7332  0.4673  0.0607
 8904TIP3    H148203   0.745   6.417  16.101 -0.6962 -0.1900 -1.6261
 8904TIP3    H248204   0.717   6.313  16.207  0.7971  0.3542 -0.6613
 8905TIP3   OH248205   5.336   5.034  14.503 -0.0188 -0.0051 -0.6043
 8905TIP3    H148206   5.403   4.993  14.559 -0.1311  2.0342  1.1487
 8905TIP3    H248207   5.386   5.079  14.436  0.2436 -0.4255 -0.6966
 8906TIP3   OH248208   2.548   1.172   2.935  0.4901 -0.3251 -0.2038
 8906TIP3    H148209   2.489   1.146   3.006  0.8452  0.4861  0.4151
 8906TIP3    H248210   2.614   1.227   2.978  0.1055  1.0723 -1.3152
 8907TIP3   OH248211   6.113   2.913  15.610 -0.2898  0.3601 -0.0787
 8907TIP3    H148212   6.074   2.834  15.647  1.6276  0.2912  2.0059
 8907TIP3    H248213   6.095   2.981  15.675  0.9519  0.8635 -0.2319
 8908TIP3   OH248214   5.442   0.600  14.499 -0.2430  0.0679 -0.3415
 8908TIP3    H148215   5.518   0.573  14.550 -1.3249 -0.5472  0.9935
 8908TIP3    H248216   5.372   0.542  14.527 -1.1523  0.4160 -1.7709
 8909TIP3   OH248217   5.973   0.161   0.937 -0.8320 -0.0112  0.7410
 8909TIP3    H148218   5.953   0.117   0.854  0.1685 -1.3876  1.1909
 8909TIP3    H248219   6.017   0.242   0.911  1.1648 -1.2845 -0.0947
 8910TIP3   OH248220   4.491   0.365  14.699  0.0565  0.9097 -0.2057
 8910TIP3    H148221   4.524   0.378  14.610 -1.3624 -0.7678 -1.0411
 8910TIP3    H248222   4.401   0.332  14.687  0.2849 -0.6669  1.7920
 8911TIP3   OH248223   2.069   5.395   4.567  0.5135 -0.0919  0.5023
 8911TIP3    H148224   2.126   5.319   4.578  0.3205 -0.2015  0.7462
 8911TIP3    H248225   2.040   5.391   4.476  1.9205  0.6795 -0.0165
 8912TIP3   OH248226   6.342   0.427   2.192 -0.3414  0.6371 -0.3149
 8912TIP3    H148227   6.279   0.416   2.121 -0.4735 -1.0146  0.0148
 8912TIP3    H248228   6.421   0.459   2.149 -1.2061  2.1699 -0.8155
 8913TIP3   OH248229   5.985   0.803   5.905 -0.4053 -0.1361 -0.3430
 8913TIP3    H148230   5.996   0.721   5.952  1.1126 -0.2031 -0.7520
 8913TIP3    H248231   5.926   0.854   5.960 -3.5435 -2.4174 -1.3314
 8914TIP3   OH248232   3.859   1.323   5.183 -0.6339 -0.0309 -0.2210
 8914TIP3    H148233   3.948   1.351   5.207 -1.5362  2.0002  1.0210
 8914TIP3    H248234   3.823   1.286   5.263 -1.2696  0.1638 -0.4105
 8915TIP3   OH248235   2.635   0.556   0.400 -0.4482 -0.0610  0.1680
 8915TIP3    H148236   2.635   0.651   0.390 -0.4927  0.1595  1.9021
 8915TIP3    H248237   2.563   0.526   0.345 -2.3207  1.2336  1.7328
 8916TIP3   OH248238   5.369   5.705  12.912  0.0215 -0.2072 -0.3117
 8916TIP3    H148239   5.388   5.618  12.877  2.2726 -0.3665  1.1457
 8916TIP3    H248240   5.276   5.701  12.935 -0.1890 -1.8482 -1.2835
 8917TIP3   OH248241   3.450   4.555  13.431 -0.1537 -0.1625 -0.6253
 8917TIP3    H148242   3.515   4.518  13.490 -0.4750  0.0235 -0.1412
 8917TIP3    H248243   3.489   4.548  13.344  1.5403  2.0791 -0.1331
 8918TIP3   OH248244   6.593   1.547   3.770  0.5221 -0.3715  0.7465
 8918TIP3    H148245   6.534   1.616   3.802 -0.2194 -0.4018 -0.4965
 8918TIP3    H248246   6.613   1.572   3.680 -0.9446 -2.4793 -0.2744
 8919TIP3   OH248247   5.732   5.065  16.984  0.2371 -0.1607  0.0608
 8919TIP3    H148248   5.801   5.124  17.014  0.3567 -0.3098  0.0806
 8919TIP3    H248249   5.678   5.050  17.062  0.1639 -0.0158  0.0381
 8920TIP3   OH248250   5.612   2.036   6.584  0.1950  0.0425 -0.6788
 8920TIP3    H148251   5.669   2.108   6.557 -0.7117  0.7578 -0.7321
 8920TIP3    H248252   5.672   1.963   6.600  1.1094  0.7289 -0.8707
 8921TIP3   OH248253   2.030   3.685   5.098  0.1900 -0.0729  0.0201
 8921TIP3    H148254   1.979   3.671   5.018 -0.8853  1.8225  0.3112
 8921TIP3    H248255   2.120   3.668   5.073 -0.4575 -3.5039 -0.5442
 8922TIP3   OH248256   5.673   1.708  10.300 -0.1893  0.0464  0.3677
 8922TIP3    H148257   5.655   1.790  10.254  0.6986  0.8365  1.3529
 8922TIP3    H248258   5.617   1.711  10.377 -0.0316 -0.1846  0.4929
 8923TIP3   OH248259   2.069   0.588   4.834  0.0237 -0.3603  0.4125
 8923TIP3    H148260   2.041   0.607   4.744  1.5957 -0.8802 -0.2235
 8923TIP3    H248261   2.149   0.639   4.845 -0.0559 -0.4563  1.4586
 8924TIP3   OH248262   4.901   5.828   1.822 -0.2561  0.4570 -0.1003
 8924TIP3    H148263   4.921   5.896   1.758 -0.3052  0.0846 -0.5181
 8924TIP3    H248264   4.834   5.774   1.780 -0.0866  0.0461  0.1463
 8925TIP3   OH248265   5.723   1.383  11.338 -0.1573 -0.1603  0.2381
 8925TIP3    H148266   5.743   1.307  11.393  3.3495  2.2483  2.6663
 8925TIP3    H248267   5.682   1.445  11.398 -0.6743  0.8317 -1.1031
 8926TIP3   OH248268   3.462   4.918  14.254 -0.3376  0.2040 -0.6226
 8926TIP3    H148269   3.531   4.973  14.216  0.4589 -0.8990 -0.7993
 8926TIP3    H248270   3.387   4.978  14.264  1.4037  2.1733  2.1136
 8927TIP3   OH248271   1.794   4.099  16.104 -0.0413  0.4832 -0.1863
 8927TIP3    H148272   1.844   4.018  16.104  1.6190  1.4660  0.7035
 8927TIP3    H248273   1.771   4.114  16.012  1.0074 -0.1767 -0.5642
 8928TIP3   OH248274   3.258   0.553  15.353 -0.1419 -0.2062 -0.5229
 8928TIP3    H148275   3.291   0.571  15.264 -1.5548 -0.1950 -1.0696
 8928TIP3    H248276   3.163   0.550  15.343 -0.4005  0.9547  1.2116
 8929TIP3   OH248277   0.325   1.521  16.396 -0.0366 -0.3813 -0.1086
 8929TIP3    H148278   0.397   1.505  16.335  0.4059 -2.2440  0.8303
 8929TIP3    H248279   0.280   1.597  16.360  1.4307 -0.1638 -1.6110
 8930TIP3   OH248280   5.944   3.221   4.032  0.2902  0.1681 -0.7843
 8930TIP3    H148281   5.926   3.299   4.084  0.8588 -1.0665  1.3927
 8930TIP3    H248282   5.860   3.177   4.024  0.5441 -0.6980  0.9800
 8931TIP3   OH248283   1.794   6.429   5.605  0.1133  0.1032 -0.2860
 8931TIP3    H148284   1.715   6.378   5.619  0.9556 -1.3930 -0.7621
 8931TIP3    H248285   1.766   6.520   5.614 -1.8286 -0.3411 -1.3493
 8932TIP3   OH248286   6.607   1.101   2.492  0.2109  0.2714 -0.4977
 8932TIP3    H148287   6.571   1.164   2.554  0.5270 -0.0042 -0.0312
 8932TIP3    H248288   6.697   1.130   2.478  0.5580 -0.4276  0.2046
 8933TIP3   OH248289   4.881   5.524  12.112 -0.4225 -0.2406 -0.3112
 8933TIP3    H148290   4.873   5.430  12.126 -1.2767 -0.1463 -0.0838
 8933TIP3    H248291   4.969   5.546  12.143  0.0778 -1.0817 -1.0968
 8934TIP3   OH248292   2.576   4.194   3.247 -0.2620  0.2958  0.6894
 8934TIP3    H148293   2.511   4.195   3.177  0.9911 -0.9218 -0.5358
 8934TIP3    H248294   2.659   4.209   3.203  0.9281 -3.3330  1.4362
 8935TIP3   OH248295   5.362   5.025  15.722 -0.2440 -0.5756 -0.0143
 8935TIP3    H148296   5.319   5.110  15.726 -1.0347 -0.9671 -0.0280
 8935TIP3    H248297   5.299   4.968  15.676  1.2426 -0.5907 -2.2191
 8936TIP3   OH248298   5.135   2.707  12.790 -0.2421 -0.6245  0.8235
 8936TIP3    H148299   5.099   2.795  12.777  1.5302  0.1321  0.7031
 8936TIP3    H248300   5.104   2.681  12.876 -2.2351 -0.6401  0.1393
 8937TIP3   OH248301   3.069   5.375   2.394  0.2172 -0.3907 -0.1388
 8937TIP3    H148302   3.045   5.289   2.359  2.2697 -0.7883 -0.7032
 8937TIP3    H248303   3.144   5.402   2.341 -0.6628  1.9976 -0.2881
 8938TIP3   OH248304   2.422   6.334  16.430  0.1513 -0.0325  0.3904
 8938TIP3    H148305   2.395   6.417  16.392  2.1600  1.1939  1.4502
 8938TIP3    H248306   2.486   6.299  16.368  0.0461 -0.2833  0.4253
 8939TIP3   OH248307   4.450   4.913   5.623  0.4262  0.1970 -0.1534
 8939TIP3    H148308   4.367   4.911   5.574  0.6625  2.1891 -0.7208
 8939TIP3    H248309   4.423   4.902   5.714 -0.4653  0.7544 -0.3322
 8940TIP3   OH248310   4.822   5.991  13.766  0.0968  0.3704  0.0160
 8940TIP3    H148311   4.736   5.951  13.749 -0.4332  1.2581  0.5395
 8940TIP3    H248312   4.808   6.084  13.753  1.4763  0.3698 -1.8431
 8941TIP3   OH248313   4.306   6.720   6.076  0.9830  0.2457  0.2770
 8941TIP3    H148314   4.393   6.688   6.100  1.1479  0.6771  0.2478
 8941TIP3    H248315   4.318   6.813   6.058  0.6470  0.1632 -0.3981
 8942TIP3   OH248316   6.628   5.052  12.127  0.6138  0.0419  0.4247
 8942TIP3    H148317   6.689   4.978  12.129 -0.3666 -0.7815  0.1959
 8942TIP3    H248318   6.600   5.063  12.217  0.0642 -0.4617  0.3212
 8943TIP3   OH248319   2.441   2.900   2.874  0.4426 -0.0186 -0.1904
 8943TIP3    H148320   2.536   2.906   2.889  0.5073 -0.8154 -0.2292
 8943TIP3    H248321   2.426   2.953   2.796  0.8093  0.3760  0.0013
 8944TIP3   OH248322   4.291   2.231  15.523  0.2333 -0.0460  0.3713
 8944TIP3    H148323   4.324   2.149  15.486 -0.0331  0.3961 -0.8733
 8944TIP3    H248324   4.205   2.208  15.559  0.0025 -0.2385 -0.2901
 8945TIP3   OH248325   5.339   6.692   5.153  0.0204  0.1539 -0.0543
 8945TIP3    H148326   5.261   6.637   5.149  0.9121 -1.1805  0.1600
 8945TIP3    H248327   5.384   6.675   5.070  0.9651 -0.4831  0.5725
 8946TIP3   OH248328   2.605   4.331   3.590 -1.2021 -0.3724 -0.3113
 8946TIP3    H148329   2.645   4.363   3.509 -2.8116 -0.0770 -1.0493
 8946TIP3    H248330   2.555   4.254   3.563 -0.3107 -1.3532  0.7693
 8947TIP3   OH248331   1.219   6.257   4.574 -0.3698 -0.8881 -0.6850
 8947TIP3    H148332   1.301   6.299   4.600  1.0685 -3.2745 -0.9966
 8947TIP3    H248333   1.175   6.237   4.657 -1.7108  2.1839 -0.5497
 8948TIP3   OH248334   2.855   6.134   0.174  0.5598 -0.0267 -0.7064
 8948TIP3    H148335   2.862   6.074   0.248  1.0265 -0.2711 -0.9418
 8948TIP3    H248336   2.834   6.078   0.100 -2.7803  0.5188 -0.2949
 8949TIP3   OH248337   5.384   3.750  15.602  0.2710 -0.1310 -0.1751
 8949TIP3    H148338   5.389   3.772  15.695 -0.3044  0.7816 -0.3519
 8949TIP3    H248339   5.331   3.670  15.599 -2.4282  1.5207  0.0894
 8950TIP3   OH248340   2.499   5.189  13.503 -1.0019 -0.2920  0.3598
 8950TIP3    H148341   2.504   5.284  13.512 -2.0440 -0.2465  0.5516
 8950TIP3    H248342   2.506   5.155  13.592 -1.5049 -0.3518  0.3756
 8951TIP3   OH248343   4.345   2.155   5.912  0.1815 -0.4657  0.3818
 8951TIP3    H148344   4.316   2.246   5.905 -1.1526 -0.9698 -1.8081
 8951TIP3    H248345   4.271   2.103   5.880  0.5274 -2.4398  2.5005
 8952TIP3   OH248346   5.087   1.673  14.859 -0.3908 -0.1843 -0.1766
 8952TIP3    H148347   5.159   1.619  14.826 -1.9947 -3.1154  0.7425
 8952TIP3    H248348   5.127   1.757  14.881  2.8070 -1.7659  0.5814
 8953TIP3   OH248349   4.641   2.291  17.184  0.3933  0.1637 -0.2586
 8953TIP3    H148350   4.572   2.259  17.242 -0.1103  1.9003  0.1495
 8953TIP3    H248351   4.634   2.235  17.106  0.6215 -1.7508  1.0102
 8954TIP3   OH248352   3.906   3.337  14.355 -0.0096 -0.1843  0.1805
 8954TIP3    H148353   3.905   3.299  14.443 -0.2046  0.1401  0.3196
 8954TIP3    H248354   3.975   3.403  14.358  0.1279 -0.3183  0.0254
 8955TIP3   OH248355   3.903   4.014   1.588  0.4886  0.0487 -0.2282
 8955TIP3    H148356   3.938   3.928   1.612  3.0210  1.5535  2.0715
 8955TIP3    H248357   3.963   4.046   1.521 -0.3049  0.1299 -0.9028
 8956TIP3   OH248358   6.785   2.028   0.770 -0.2110  0.1919 -0.2852
 8956TIP3    H148359   6.705   2.071   0.803 -0.4494 -1.0209  0.7980
 8956TIP3    H248360   6.815   2.085   0.699  0.3613  3.0680  2.0458
 8957TIP3   OH248361   1.433   1.287  15.362 -0.5533  0.1243 -0.1046
 8957TIP3    H148362   1.417   1.379  15.344 -0.0650  0.2333  0.0130
 8957TIP3    H248363   1.369   1.241  15.308 -1.9179  0.5718  1.0964
 8958TIP3   OH248364   3.031   2.244   1.054  0.4083  1.1038  0.2757
 8958TIP3    H148365   2.985   2.321   1.019 -0.3249  0.4888 -0.1655
 8958TIP3    H248366   3.024   2.253   1.149  1.0932  2.0212  0.2521
 8959TIP3   OH248367   1.947   5.140  14.111  0.2997  0.6935  0.3971
 8959TIP3    H148368   2.034   5.125  14.075  0.2663 -0.3805  0.7380
 8959TIP3    H248369   1.887   5.101  14.048 -0.1693  3.5395 -1.1074
 8960TIP3   OH248370   4.590   0.612   0.622  0.9249  0.2513 -0.3831
 8960TIP3    H148371   4.567   0.520   0.633  0.3800  0.4043 -0.1568
 8960TIP3    H248372   4.657   0.629   0.688  1.7340 -0.2153 -1.0669
 8961TIP3   OH248373   3.520   0.428  14.806 -0.0966 -0.6263  0.1082
 8961TIP3    H148374   3.586   0.481  14.762 -0.2780 -1.2769 -0.9937
 8961TIP3    H248375   3.437   0.471  14.785 -0.0820 -0.1754  0.9511
 8962TIP3   OH248376   3.927   2.651   0.501 -0.1599 -0.3445  0.3890
 8962TIP3    H148377   3.887   2.583   0.447 -0.0312  0.5680 -0.9041
 8962TIP3    H248378   3.977   2.602   0.567 -0.6573 -1.4918 -0.0437
 8963TIP3   OH248379   3.426   3.226   5.264 -0.7797  0.4824 -0.0846
 8963TIP3    H148380   3.504   3.271   5.298  0.7391 -1.2811 -1.0625
 8963TIP3    H248381   3.375   3.205   5.342  0.3524  0.5665  0.7120
 8964TIP3   OH248382   1.188   1.931   6.137 -0.5730 -0.4345  0.2982
 8964TIP3    H148383   1.192   1.837   6.152 -0.3584 -0.6331 -0.8979
 8964TIP3    H248384   1.274   1.964   6.163 -0.2645 -0.7399 -0.3154
 8965TIP3   OH248385   6.285   1.347  11.649  0.4464 -0.0901 -0.0552
 8965TIP3    H148386   6.241   1.305  11.575 -0.4240 -0.5081  0.6775
 8965TIP3    H248387   6.284   1.441  11.627  1.2644 -0.3049 -1.1088
 8966TIP3   OH248388   0.365   4.115  13.407 -0.3614 -0.6105  0.0986
 8966TIP3    H148389   0.408   4.194  13.372  0.5461 -2.0246 -2.2074
 8966TIP3    H248390   0.428   4.080  13.470 -0.0896 -0.3221 -0.0077
 8967TIP3   OH248391   1.747   4.435  13.763  0.0519  0.1950 -0.1522
 8967TIP3    H148392   1.757   4.373  13.691 -0.3531  1.0124 -0.9268
 8967TIP3    H248393   1.835   4.472  13.775  0.0982  0.1318 -0.2997
 8968TIP3   OH248394   0.491   0.060   5.097  0.0275 -0.0718 -1.2152
 8968TIP3    H148395   0.414   0.055   5.154  1.9971 -2.7043  1.5278
 8968TIP3    H248396   0.467   0.011   5.019 -0.9739 -1.1685 -0.2433
 8969TIP3   OH248397   1.271   2.508   3.888 -0.0811  0.2791  0.7286
 8969TIP3    H148398   1.309   2.484   3.804 -1.9305  0.0104 -0.0893
 8969TIP3    H248399   1.210   2.579   3.868  0.0051  0.7414  1.9758
 8970TIP3   OH248400   6.465   1.585   0.285 -0.2939 -0.1215 -0.5930
 8970TIP3    H148401   6.551   1.560   0.251  0.4528  0.2875  0.9071
 8970TIP3    H248402   6.482   1.662   0.340 -1.4273 -0.7615  0.7038
 8971TIP3   OH248403   0.814   4.278   5.346 -1.1300  0.8202  0.2166
 8971TIP3    H148404   0.806   4.334   5.423 -0.5225  1.1605  0.0329
 8971TIP3    H248405   0.792   4.335   5.273  0.5782  1.1463 -0.0800
 8972TIP3   OH248406   4.065   2.737  13.755 -0.2824  0.3166 -0.3375
 8972TIP3    H148407   4.060   2.771  13.665  0.3937 -0.3041 -0.6255
 8972TIP3    H248408   4.039   2.645  13.747  0.7431 -0.0066 -0.0745
 8973TIP3   OH248409   0.924   3.000   5.414  0.1403 -0.0849  0.0798
 8973TIP3    H148410   0.911   2.988   5.320 -0.7726  1.5475 -0.0356
 8973TIP3    H248411   0.858   2.943   5.455  0.1173 -0.3211 -0.2810
 8974TIP3   OH248412   3.160   5.991  12.248  1.0112  0.2639 -0.5438
 8974TIP3    H148413   3.083   6.006  12.193  0.0159  2.8226  1.3500
 8974TIP3    H248414   3.125   5.951  12.328  1.5207  1.7647  0.4784
 8975TIP3   OH248415   6.739   2.913  11.824 -0.1900  0.0380  0.1942
 8975TIP3    H148416   6.805   2.982  11.837 -0.7412  0.4221  1.0361
 8975TIP3    H248417   6.713   2.922  11.732  1.6619 -0.7998 -0.4794
 8976TIP3   OH248418   4.854   3.728  13.293  0.2941 -0.0883  0.1787
 8976TIP3    H148419   4.851   3.717  13.388  1.1203  0.2421  0.2529
 8976TIP3    H248420   4.788   3.668  13.259  1.4416 -1.8049  0.8320
 8977TIP3   OH248421   5.088   1.261   4.089  0.4634 -0.7683  0.3518
 8977TIP3    H148422   5.014   1.227   4.038 -0.4875  0.4225  0.9020
 8977TIP3    H248423   5.048   1.315   4.157  1.8112 -0.7405  1.1549
 8978TIP3   OH248424   3.647   1.301  12.092 -0.5960  0.4129 -0.1764
 8978TIP3    H148425   3.673   1.349  12.171 -1.1085  1.6470 -0.7297
 8978TIP3    H248426   3.729   1.270  12.055 -0.4242 -1.1493  1.4141
 8979TIP3   OH248427   6.716   6.197   5.056 -0.3556 -0.1515 -0.2072
 8979TIP3    H148428   6.732   6.113   5.099 -1.1028  0.2515  0.8846
 8979TIP3    H248429   6.622   6.198   5.039 -0.1158 -0.2030 -1.6957
 8980TIP3   OH248430   0.591   0.719   5.863  0.9834  0.2744 -0.0444
 8980TIP3    H148431   0.644   0.768   5.801  1.4053  0.0979  0.1768
 8980TIP3    H248432   0.517   0.777   5.881 -0.4694 -0.6218 -2.5641
 8981TIP3   OH248433   3.199   1.142   2.301  0.4586 -0.0465 -0.1980
 8981TIP3    H148434   3.279   1.097   2.273  1.3136  0.0872  1.8540
 8981TIP3    H248435   3.202   1.226   2.256  1.3946 -0.1025 -0.2563
 8982TIP3   OH248436   5.329   3.652   3.494  0.5560 -0.7530 -0.3270
 8982TIP3    H148437   5.256   3.591   3.489  0.9058 -1.3000  0.8033
 8982TIP3    H248438   5.290   3.738   3.477 -0.4379 -0.9828  0.6945
 8983TIP3   OH248439   2.287   2.521   4.319 -0.2023 -0.3751  0.2622
 8983TIP3    H148440   2.225   2.454   4.349 -0.6706  0.6509  1.6832
 8983TIP3    H248441   2.359   2.518   4.382  1.2912 -1.5835 -1.4045
 8984TIP3   OH248442   0.406   2.825  14.048  0.2440 -0.1884 -0.1337
 8984TIP3    H148443   0.451   2.775  14.115  1.0462  0.1511 -0.4033
 8984TIP3    H248444   0.335   2.870  14.094  1.2715  0.6744  0.6542
 8985TIP3   OH248445   0.791   2.932   5.181 -0.0544 -0.3582 -0.4649
 8985TIP3    H148446   0.724   2.966   5.123 -1.0462  1.6174  1.6635
 8985TIP3    H248447   0.754   2.852   5.217 -0.5875 -0.1394 -0.5237
 8986TIP3   OH248448   5.313   6.482   5.436 -0.2979  0.2602  0.2610
 8986TIP3    H148449   5.361   6.487   5.518  1.3828  0.4221 -0.6758
 8986TIP3    H248450   5.239   6.424   5.454  0.8421 -0.8798  1.4958
 8987TIP3   OH248451   6.632   1.692   1.410 -0.0759  0.1251 -0.4029
 8987TIP3    H148452   6.553   1.721   1.364 -0.3503 -0.5796 -0.3829
 8987TIP3    H248453   6.687   1.770   1.414 -0.9738  0.7536  0.0153
 8988TIP3   OH248454   3.850   4.088   2.746 -0.3481  0.0918  0.0781
 8988TIP3    H148455   3.914   4.110   2.814 -0.1834  0.1563 -0.0962
 8988TIP3    H248456   3.856   3.992   2.737 -1.6694 -0.1436  1.4355
 8989TIP3   OH248457   5.901   3.818   0.625  0.9700  0.0877 -0.3799
 8989TIP3    H148458   5.864   3.906   0.621  3.1289  1.1249  1.0311
 8989TIP3    H248459   5.982   3.824   0.574  0.6699 -1.3881 -1.0925
 8990TIP3   OH248460   5.670   2.154  14.579  0.7082  0.1147  0.0831
 8990TIP3    H148461   5.594   2.174  14.524  0.8815 -1.0530 -0.6199
 8990TIP3    H248462   5.737   2.126  14.517  0.5820 -2.2416  0.9005
 8991TIP3   OH248463   2.966   0.232  15.209 -0.5266 -0.2699  0.4901
 8991TIP3    H148464   2.934   0.216  15.121  0.5963 -0.7435  0.1460
 8991TIP3    H248465   2.904   0.294  15.247  0.2620  1.8354 -1.4564
 8992TIP3   OH248466   1.688   5.824  16.456 -0.1148 -0.0966 -0.0968
 8992TIP3    H148467   1.640   5.837  16.374 -1.1130 -0.1179  0.4680
 8992TIP3    H248468   1.738   5.904  16.468  0.0938 -0.1193 -0.7499
 8993TIP3   OH248469   3.396   2.072  16.041 -0.4246 -0.4494 -0.2660
 8993TIP3    H148470   3.330   2.027  16.094 -0.4731  0.0114  0.0696
 8993TIP3    H248471   3.399   2.160  16.077  0.2864 -0.4328 -0.3592
 8994TIP3   OH248472   3.479   4.463   3.843 -0.4403  0.3538 -0.2906
 8994TIP3    H148473   3.407   4.454   3.906 -0.9209  1.4898 -0.6550
 8994TIP3    H248474   3.558   4.463   3.898 -0.7616 -0.0131  0.1860
 8995TIP3   OH248475   0.702   0.074   0.781 -0.0334 -0.4924  0.0459
 8995TIP3    H148476   0.654   0.052   0.700 -0.6349 -0.0784  0.2795
 8995TIP3    H248477   0.792   0.048   0.763 -0.2353 -0.7664 -0.6206
 8996TIP3   OH248478   0.640   2.795   3.161  0.7587 -0.3570 -0.4160
 8996TIP3    H148479   0.612   2.778   3.250  0.1912  0.3457 -0.4519
 8996TIP3    H248480   0.584   2.741   3.106 -1.7924  2.2504 -0.6079
 8997TIP3   OH248481   1.142   3.867   6.005  0.3815 -0.0991 -0.3869
 8997TIP3    H148482   1.100   3.925   6.069 -0.8408  0.0636 -1.3077
 8997TIP3    H248483   1.070   3.831   5.953  1.1172 -2.3898  0.0721
 8998TIP3   OH248484   0.351   3.822  13.401  0.6222  0.2276  0.4611
 8998TIP3    H148485   0.342   3.917  13.393 -0.1526  0.1723  0.6574
 8998TIP3    H248486   0.335   3.788  13.313  1.6619  0.3215  0.2162
 8999TIP3   OH248487   4.244   2.318   4.605 -0.6501  0.0077 -0.4231
 8999TIP3    H148488   4.214   2.384   4.668 -0.6095  1.0875 -1.5099
 8999TIP3    H248489   4.313   2.362   4.556  0.7293 -1.4878  0.0875
 9000TIP3   OH248490   1.020   1.050   0.499  1.2120  0.0500  0.3268
 9000TIP3    H148491   1.031   1.125   0.558 -1.9245 -0.3400  1.5599
 9000TIP3    H248492   0.989   0.979   0.555 -0.1178 -0.8833 -1.4818
 9001TIP3   OH248493   6.538   2.280  11.368 -0.8267  0.4094  0.0596
 9001TIP3    H148494   6.588   2.267  11.287  1.5188 -0.6649  1.5437
 9001TIP3    H248495   6.522   2.191  11.401 -0.0360  0.8229  1.6852
 9002TIP3   OH248496   0.043   4.730  16.630  0.0450  0.0873  0.1573
 9002TIP3    H148497   0.134   4.703  16.643  0.2264  1.0333  0.9815
 9002TIP3    H248498   0.002   4.720  16.716 -1.1319 -2.0315 -0.5785
 9003TIP3   OH248499   3.399   1.427  15.042  0.5242 -0.2997 -0.1061
 9003TIP3    H148500   3.361   1.392  14.962  1.4054  0.5737 -0.9402
 9003TIP3    H248501   3.447   1.354  15.080 -0.0528 -0.7713 -0.2599
 9004TIP3   OH248502   6.740   6.280  16.952  0.0279 -0.1937 -0.1980
 9004TIP3    H148503   6.778   6.327  16.878 -0.1373 -0.1711 -0.2687
 9004TIP3    H248504   6.706   6.199  16.914  2.0714 -1.2994  0.2407
 9005TIP3   OH248505   6.719   1.743   0.217  0.4263  0.0368 -0.2501
 9005TIP3    H148506   6.687   1.789   0.295  1.3916 -1.0428  0.8385
 9005TIP3    H248507   6.808   1.716   0.240  0.2358 -1.5312 -1.1814
 9006TIP3   OH248508   4.097   3.673  13.561  0.1576 -0.4134  0.5472
 9006TIP3    H148509   4.048   3.745  13.523  3.2337  1.0430 -1.0612
 9006TIP3    H248510   4.121   3.703  13.649  2.1475  1.0465 -0.4143
 9007TIP3   OH248511   0.382   6.638   1.850  0.1583  0.3668  0.0147
 9007TIP3    H148512   0.311   6.627   1.913 -0.3475 -0.5232 -0.6781
 9007TIP3    H248513   0.345   6.606   1.767  1.8267 -1.5763 -0.0692
 9008TIP3   OH248514   3.289   3.517   2.957  0.4727  0.5020  0.3705
 9008TIP3    H148515   3.375   3.524   2.999  1.4886  0.7416 -1.6192
 9008TIP3    H248516   3.251   3.436   2.991  2.5536 -0.9118 -0.4722
 9009TIP3   OH248517   0.223   3.767   1.289  0.1440  0.5731  0.4530
 9009TIP3    H148518   0.172   3.743   1.366  1.4510 -1.6581  0.7211
 9009TIP3    H248519   0.267   3.848   1.313 -1.5307  1.3528  1.0143
 9010TIP3   OH248520   2.799   0.826   4.412  0.3650 -0.1652  0.4235
 9010TIP3    H148521   2.763   0.909   4.445 -0.1716 -0.3026  0.1893
 9010TIP3    H248522   2.746   0.759   4.454  0.5845 -0.3830  0.3520
 9011TIP3   OH248523   4.742   0.697  13.360  0.5409 -0.1779 -0.3700
 9011TIP3    H148524   4.759   0.640  13.435  1.1591 -0.2896 -0.5909
 9011TIP3    H248525   4.681   0.763  13.394  2.1242  0.8080  0.7249
 9012TIP3   OH248526   2.791   3.793  15.792 -0.7451 -0.3973  0.1131
 9012TIP3    H148527   2.844   3.777  15.870 -0.2905 -1.0610 -0.3223
 9012TIP3    H248528   2.784   3.889  15.787 -0.6265 -0.3460  0.8573
 9013TIP3   OH248529   3.344   6.070   1.433 -0.1160 -0.4351 -0.8730
 9013TIP3    H148530   3.323   6.002   1.497 -1.9340 -1.3602 -2.3918
 9013TIP3    H248531   3.326   6.152   1.479 -0.6564 -1.0548  0.0444
 9014TIP3   OH248532   4.380   5.679   2.593 -0.4367 -0.2174  0.0591
 9014TIP3    H148533   4.468   5.716   2.604 -1.3432  1.5521  2.2839
 9014TIP3    H248534   4.392   5.606   2.534  2.1681  1.3400 -1.5506
 9015TIP3   OH248535   3.066   3.401  13.069 -0.4797 -0.0499 -0.5135
 9015TIP3    H148536   3.061   3.467  13.138  2.6099  0.6795 -0.8722
 9015TIP3    H248537   3.046   3.318  13.114 -1.5438  0.7475  0.5563
 9016TIP3   OH248538   0.899   1.232   6.090  0.1090  0.0378 -0.3404
 9016TIP3    H148539   0.944   1.245   6.174  0.9433 -0.7360 -0.6502
 9016TIP3    H248540   0.810   1.265   6.105 -0.1873 -1.3483  1.2839
 9017TIP3   OH248541   6.754   2.808  15.760  0.0893  0.0382 -0.8038
 9017TIP3    H148542   6.808   2.823  15.837  1.0220  1.3789 -1.6673
 9017TIP3    H248543   6.665   2.800  15.794  0.6994 -1.3792  0.5740
 9018TIP3   OH248544   3.156   0.532   3.952 -0.0104 -0.2025  0.3481
 9018TIP3    H148545   3.111   0.614   3.933  0.6412  0.2914  0.8731
 9018TIP3    H248546   3.147   0.481   3.872  2.2896  1.6371 -1.2427
 9019TIP3   OH248547   3.539   6.157   3.654 -0.0366  0.0490 -0.0993
 9019TIP3    H148548   3.563   6.135   3.744 -0.7786 -2.4171 -0.4280
 9019TIP3    H248549   3.452   6.196   3.661  0.3927  0.9456  0.3366
 9020TIP3   OH248550   0.048   2.222  14.977 -0.2406 -0.2084  0.3492
 9020TIP3    H148551   0.117   2.281  15.007 -0.7215  0.3050  0.4733
 9020TIP3    H248552   0.062   2.213  14.883 -1.1171  1.4138  0.0288
 9021TIP3   OH248553   0.833   6.273   4.820 -0.4890  0.0625  0.2711
 9021TIP3    H148554   0.751   6.302   4.780  0.3681  0.2205 -1.4606
 9021TIP3    H248555   0.823   6.294   4.913 -1.8968  1.2817 -0.1105
 9022TIP3   OH248556   3.567   4.545  14.984 -0.4214 -0.8234 -0.2558
 9022TIP3    H148557   3.655   4.578  15.001  0.6971 -2.4481 -2.3989
 9022TIP3    H248558   3.539   4.593  14.905 -1.2591 -0.6983  0.1108
 9023TIP3   OH248559   0.234   0.972  14.609  0.3500 -0.3258 -0.1203
 9023TIP3    H148560   0.144   0.981  14.640 -0.2510  0.3936 -1.9420
 9023TIP3    H248561   0.251   0.878  14.610 -1.1181 -0.6449 -1.5364
 9024TIP3   OH248562   6.065   4.522  15.363 -0.0052 -0.3099 -0.0134
 9024TIP3    H148563   6.043   4.523  15.270  0.6886  0.3038 -0.1801
 9024TIP3    H248564   6.052   4.613  15.391  0.5685 -0.3198  0.2983
 9025TIP3   OH248565   3.701   0.966   0.370  0.0894 -0.2725  0.3054
 9025TIP3    H148566   3.612   0.930   0.369  0.2540 -0.7192  1.3935
 9025TIP3    H248567   3.709   1.010   0.455  1.1539 -0.8618  0.5290
 9026TIP3   OH248568   4.051   1.292   2.736  0.0986  0.0209  0.2220
 9026TIP3    H148569   3.986   1.224   2.754  0.1406  0.1280  0.7839
 9026TIP3    H248570   4.090   1.265   2.652 -1.0337  0.2547 -0.3885
 9027TIP3   OH248571   4.918   3.288   4.148 -0.3621  0.0887 -0.1542
 9027TIP3    H148572   4.913   3.261   4.239  0.8007  2.0265  0.5279
 9027TIP3    H248573   4.880   3.376   4.146  0.5301  0.4731 -1.3332
 9028TIP3   OH248574   2.442   5.695   0.814  0.3910  0.0111 -0.0423
 9028TIP3    H148575   2.347   5.706   0.808  0.3709  0.6130  1.0687
 9028TIP3    H248576   2.475   5.782   0.838  1.2897 -0.0607 -0.9430
 9029TIP3   OH248577   2.237   5.162   1.758  0.0560  0.6512  0.0702
 9029TIP3    H148578   2.295   5.184   1.686  0.2986  0.8214  0.3152
 9029TIP3    H248579   2.294   5.120   1.823 -0.2639 -0.0404 -0.0785
 9030TIP3   OH248580   6.292   2.984   5.539 -0.1205  0.0852 -0.1024
 9030TIP3    H148581   6.201   2.956   5.542 -0.7905  2.0522 -0.4808
 9030TIP3    H248582   6.329   2.955   5.623 -0.7401 -1.7570 -0.4392
 9031TIP3   OH248583   1.352   6.491   1.299  0.2031  0.1440 -1.0730
 9031TIP3    H148584   1.429   6.443   1.267 -0.7865 -1.5233 -1.0753
 9031TIP3    H248585   1.321   6.439   1.374  0.0534  1.7252  0.0136
 9032TIP3   OH248586   2.143   5.454   3.594  0.4075 -0.3060 -0.2824
 9032TIP3    H148587   2.088   5.376   3.597  0.5863 -0.4366 -0.3591
 9032TIP3    H248588   2.099   5.511   3.531 -0.7448  0.4546  1.1652
 9033TIP3   OH248589   6.375   0.009   0.956  0.1693  0.4122  0.5966
 9033TIP3    H148590   6.460  -0.001   0.912  0.0558  1.2366  0.1593
 9033TIP3    H248591   6.327   0.070   0.900 -1.0557 -0.7199  0.3660
 9034TIP3   OH248592   5.255   1.997  16.357  0.3154 -0.0996 -0.1375
 9034TIP3    H148593   5.329   2.056  16.374 -0.6009  1.2948 -0.7942
 9034TIP3    H248594   5.222   2.025  16.272 -1.8001  0.2333  0.7253
 9035TIP3   OH248595   2.067   2.098  12.417 -0.2776 -0.7095  0.0844
 9035TIP3    H148596   2.002   2.046  12.465  0.6743 -1.1570  0.9239
 9035TIP3    H248597   2.054   2.187  12.448 -0.5841 -0.7713  0.1363
 9036TIP3   OH248598   5.331   5.881   4.598  0.1723  1.1639  0.0629
 9036TIP3    H148599   5.377   5.866   4.516  0.2063  0.6369  0.1721
 9036TIP3    H248600   5.258   5.819   4.596 -0.1311  1.5127  0.1998
 9037TIP3   OH248601   2.709   3.081   2.073 -0.1819  0.0949  0.0359
 9037TIP3    H148602   2.648   3.021   2.115  1.3897 -0.2255  2.0433
 9037TIP3    H248603   2.765   3.025   2.019 -0.7346  0.1921 -0.6400
 9038TIP3   OH248604   1.998   3.294   3.017 -0.0211  0.2646 -0.2436
 9038TIP3    H148605   2.069   3.322   3.075  0.3999 -0.6535 -0.3171
 9038TIP3    H248606   1.945   3.374   3.005  0.7528  0.8510  0.1429
 9039TIP3   OH248607   6.020   6.779  14.769 -0.1640  0.3630  0.2937
 9039TIP3    H148608   5.960   6.712  14.735  0.6969 -0.9675  1.3045
 9039TIP3    H248609   5.966   6.832  14.828 -0.3090 -1.0117  1.4317
 9040TIP3   OH248610   0.916   3.241   1.795  0.6227 -0.3587 -0.2602
 9040TIP3    H148611   0.912   3.312   1.730  1.8708  0.4051  0.4610
 9040TIP3    H248612   0.932   3.286   1.878 -0.6764 -1.3512  0.5538
 9041TIP3   OH248613   0.069   6.351  16.723  0.4749  0.6339 -0.5553
 9041TIP3    H148614   0.151   6.380  16.683  1.5024 -1.8551 -0.4456
 9041TIP3    H248615   0.095   6.281  16.783 -1.4237  1.7309  1.7694
 9042TIP3   OH248616   5.329   3.669   4.831 -0.0043 -0.0642 -0.5669
 9042TIP3    H148617   5.337   3.763   4.814  1.8325 -0.2924 -1.1877
 9042TIP3    H248618   5.245   3.645   4.794 -1.0286  1.5201  0.6041
 9043TIP3   OH248619   5.311   5.654  15.588 -0.3161  0.2950 -0.4849
 9043TIP3    H148620   5.351   5.674  15.503 -1.0873 -1.0509 -1.1956
 9043TIP3    H248621   5.385   5.632  15.644  0.1081 -0.2367 -1.2319
 9044TIP3   OH248622   2.685   1.205   5.523  0.3637  0.5571  0.4944
 9044TIP3    H148623   2.663   1.275   5.584  1.7594  1.7853 -0.3470
 9044TIP3    H248624   2.771   1.174   5.552  0.0204 -0.4308  0.5058
 9045TIP3   OH248625   1.999   4.800   4.960 -0.9314 -0.1964 -0.3357
 9045TIP3    H148626   2.089   4.830   4.975 -0.7474 -0.1331 -1.5034
 9045TIP3    H248627   1.957   4.873   4.914 -0.7394 -1.3162 -2.4024
 9046TIP3   OH248628   0.900   0.861  15.082 -0.6194  0.2255 -0.0652
 9046TIP3    H148629   0.955   0.852  15.004 -0.2995  1.0042  0.0587
 9046TIP3    H248630   0.814   0.830  15.054 -0.0196 -1.5687 -0.1090
 9047TIP3   OH248631   0.351   1.663  15.415  0.2217 -0.5296 -0.1088
 9047TIP3    H148632   0.333   1.704  15.500  0.6775 -0.8220  0.1277
 9047TIP3    H248633   0.266   1.630  15.386  0.0611 -0.4108  0.2209
 9048TIP3   OH248634   3.977   3.285  15.104  0.0342 -0.0943 -0.6093
 9048TIP3    H148635   3.971   3.327  15.190 -1.3874 -1.0735 -0.2063
 9048TIP3    H248636   4.057   3.321  15.066 -0.1536  1.5585  0.4654
 9049TIP3   OH248637   1.675   6.024  16.735  0.3391  0.5731 -0.2407
 9049TIP3    H148638   1.698   6.095  16.795 -1.2401  0.9488 -0.0544
 9049TIP3    H248639   1.618   5.966  16.785  2.4103 -1.4632 -0.0480
 9050TIP3   OH248640   2.511   4.911   1.188 -0.9248 -0.3556  0.2369
 9050TIP3    H148641   2.545   4.995   1.219 -0.5363  0.1305 -1.4338
 9050TIP3    H248642   2.428   4.932   1.147 -0.4074 -0.6159 -0.9954
 9051TIP3   OH248643   5.119   6.308  15.437  0.4198  0.1425  0.1103
 9051TIP3    H148644   5.126   6.213  15.428 -1.0214  0.1181 -1.3437
 9051TIP3    H248645   5.098   6.322  15.529  0.7652 -0.9332  0.3641
 9052TIP3   OH248646   4.604   6.400   0.413 -0.6398 -0.3717 -0.2458
 9052TIP3    H148647   4.599   6.316   0.367 -0.4873  0.1102 -1.1575
 9052TIP3    H248648   4.556   6.461   0.357 -0.6158  0.1878  0.3358
 9053TIP3   OH248649   3.968   2.536  14.203 -0.2534 -0.6972 -0.1378
 9053TIP3    H148650   3.944   2.608  14.144 -2.3294 -0.3109  1.0811
 9053TIP3    H248651   4.061   2.550  14.222 -0.5610  1.5790 -0.0731
 9054TIP3   OH248652   5.030   1.718   3.827  0.3384  0.2340 -0.0956
 9054TIP3    H148653   5.091   1.648   3.850  0.6693  0.1252 -1.2492
 9054TIP3    H248654   5.042   1.730   3.733 -1.4843  0.1442 -0.3746
 9055TIP3   OH248655   3.208   2.356  11.412 -0.8994  0.3489  0.0974
 9055TIP3    H148656   3.282   2.303  11.439 -0.1290  0.7479 -1.1463
 9055TIP3    H248657   3.207   2.349  11.317 -1.0361  2.1854 -0.0715
 9056TIP3   OH248658   6.805   1.731  14.446  0.4852 -0.6069 -0.3396
 9056TIP3    H148659   6.749   1.746  14.370  0.7023 -0.8045 -0.5365
 9056TIP3    H248660   6.849   1.649  14.428  1.1481 -0.2510 -0.3740
 9057TIP3   OH248661   5.316   0.651  10.648 -0.6041  0.8104  0.1981
 9057TIP3    H148662   5.338   0.601  10.728 -0.7618  0.8371  0.2573
 9057TIP3    H248663   5.268   0.727  10.680  0.7072  1.6623  0.2256
 9058TIP3   OH248664   1.184   0.694  14.075 -0.0232 -0.0373 -0.4181
 9058TIP3    H148665   1.259   0.638  14.093  0.5245  0.3788 -1.3003
 9058TIP3    H248666   1.184   0.704  13.980 -1.5239 -0.4608 -0.4917
 9059TIP3   OH248667   1.598   5.196   1.167  0.1967 -0.1728 -0.2448
 9059TIP3    H148668   1.647   5.270   1.202 -0.6850 -0.5379  1.9415
 9059TIP3    H248669   1.658   5.121   1.176  0.5299 -0.0082 -1.0145
 9060TIP3   OH248670   0.648   2.531  14.626 -0.2996  0.5984 -0.0928
 9060TIP3    H148671   0.626   2.622  14.647 -1.3028 -0.0801  2.1000
 9060TIP3    H248672   0.571   2.481  14.653  0.6306 -1.0134 -0.2990
 9061TIP3   OH248673   0.821   6.484  12.098  0.1297 -0.2231  1.0418
 9061TIP3    H148674   0.782   6.501  12.012 -0.8968 -1.7677  1.1514
 9061TIP3    H248675   0.764   6.418  12.137  1.8364 -1.2152  1.9918
 9062TIP3   OH248676   4.406   6.226   1.921  0.1389 -0.3279  0.3060
 9062TIP3    H148677   4.378   6.317   1.912 -0.2042 -0.4912 -0.3338
 9062TIP3    H248678   4.342   6.176   1.870  0.8455 -0.8377 -0.1013
 9063TIP3   OH248679   2.439   2.178   2.276  0.1140 -0.0921  0.6276
 9063TIP3    H148680   2.462   2.230   2.199  0.5860  0.9169  1.4334
 9063TIP3    H248681   2.349   2.149   2.259  0.4460 -0.4603 -0.6011
 9064TIP3   OH248682   4.729   1.554  13.820  0.0653  0.3048  0.2363
 9064TIP3    H148683   4.686   1.592  13.897  2.4264  1.4582  1.0764
 9064TIP3    H248684   4.676   1.584  13.746 -0.7710  1.3377  1.2159
 9065TIP3   OH248685   0.043   1.142   1.543 -0.1813 -0.3150  0.3164
 9065TIP3    H148686   0.053   1.057   1.585 -1.3104 -0.9350 -0.6062
 9065TIP3    H248687  -0.052   1.155   1.538 -0.0332  0.6986 -0.1511
 9066TIP3   OH248688   3.323   2.198  13.380  0.1668 -0.1677  0.1016
 9066TIP3    H148689   3.260   2.127  13.369 -0.8153  0.6484  0.2944
 9066TIP3    H248690   3.358   2.185  13.468 -0.0332 -0.3997  0.1477
 9067TIP3   OH248691   4.510   5.166   3.572 -0.7422  0.2255 -0.4138
 9067TIP3    H148692   4.501   5.089   3.628 -0.8224 -0.0066 -0.7385
 9067TIP3    H248693   4.562   5.227   3.623 -0.8188  0.0213 -0.0841
 9068TIP3   OH248694   0.408   4.391  12.623 -0.1797 -0.6131  0.1762
 9068TIP3    H148695   0.418   4.453  12.551  1.5298  0.6370  1.4386
 9068TIP3    H248696   0.456   4.429  12.696 -0.8603 -2.4134  1.6627
 9069TIP3   OH248697   2.392   0.621  16.201  0.5709  0.1578  0.7061
 9069TIP3    H148698   2.471   0.567  16.193  0.1385 -0.6962  1.8784
 9069TIP3    H248699   2.399   0.659  16.288 -0.3668 -0.0130  0.8597
 9070TIP3   OH248700   0.060   0.044   1.180  0.7278 -0.7706  0.1653
 9070TIP3    H148701  -0.035   0.042   1.178  0.7468 -1.1370 -0.4760
 9070TIP3    H248702   0.082   0.032   1.273  0.1424  0.1968  0.4406
 9071TIP3   OH248703   2.668   4.987  15.608 -0.3065  0.6288  0.1984
 9071TIP3    H148704   2.733   4.922  15.580  0.3760  1.2845  0.2349
 9071TIP3    H248705   2.692   5.006  15.699 -0.4517  0.9998  0.1579
 9072TIP3   OH248706   0.539   2.188   4.166  0.2071 -0.2743 -0.0537
 9072TIP3    H148707   0.595   2.200   4.089  0.0449 -0.8760 -0.2730
 9072TIP3    H248708   0.597   2.147   4.230  0.2376 -0.1326  0.0098
 9073TIP3   OH248709   4.377   4.452  15.310 -0.2916  0.3911  0.3824
 9073TIP3    H148710   4.302   4.506  15.334  0.5276  2.1119 -0.7226
 9073TIP3    H248711   4.401   4.482  15.223  0.0961 -1.9421 -0.3729
 9074TIP3   OH248712   3.353   2.505   4.999 -0.1750 -1.1243 -0.0119
 9074TIP3    H148713   3.382   2.596   4.990 -1.8033 -0.5935 -0.2819
 9074TIP3    H248714   3.360   2.487   5.093 -0.8769 -0.3255  0.2122
 9075TIP3   OH248715   4.441   6.446   0.865  0.9134  0.2833  0.0998
 9075TIP3    H148716   4.460   6.413   0.953 -1.1935  2.7421  1.6413
 9075TIP3    H248717   4.392   6.527   0.881  0.9606  1.1263 -3.3775
 9076TIP3   OH248718   5.355   4.658  15.873  0.4659 -0.2481 -0.6562
 9076TIP3    H148719   5.312   4.636  15.790 -0.1306 -0.3314 -0.3232
 9076TIP3    H248720   5.284   4.674  15.934  0.8591  2.2848 -0.7805
 9077TIP3   OH248721   2.252   1.777   1.500 -0.0816 -0.1770 -0.7644
 9077TIP3    H148722   2.338   1.814   1.519  0.2066 -1.7191  1.3907
 9077TIP3    H248723   2.269   1.711   1.433  0.2770  0.1102 -0.9584
 9078TIP3   OH248724   3.184   5.575  15.384 -0.0655  0.3794  0.0256
 9078TIP3    H148725   3.184   5.610  15.295 -0.3289 -0.0030 -0.1270
 9078TIP3    H248726   3.276   5.575  15.410 -0.1890  2.8782  0.7077
 9079TIP3   OH248727   4.440   0.245   6.595 -0.7453 -0.6292 -0.6884
 9079TIP3    H148728   4.406   0.183   6.660 -1.1799 -0.2191 -0.5178
 9079TIP3    H248729   4.362   0.276   6.549 -0.6164  0.3451 -0.2787
 9080TIP3   OH248730   3.682   4.628   4.049  0.8163 -1.2713  0.5238
 9080TIP3    H148731   3.698   4.561   4.115  2.4448 -1.5954 -0.1646
 9080TIP3    H248732   3.768   4.649   4.014  0.3810  1.2610  0.7651
 9081TIP3   OH248733   4.920   2.334   2.835  0.3269  0.5555  0.6747
 9081TIP3    H148734   4.906   2.240   2.823  0.8264  0.2623  2.1862
 9081TIP3    H248735   5.015   2.346   2.827  0.2211  1.0203  0.0046
 9082TIP3   OH248736   4.617   4.552  12.586 -0.2555 -0.3646 -0.8882
 9082TIP3    H148737   4.591   4.500  12.662 -0.6341  2.7918  1.3484
 9082TIP3    H248738   4.553   4.624  12.584  1.5336  1.2701 -2.3453
 9083TIP3   OH248739   2.814   4.425   3.762  0.6301  0.9149 -0.2969
 9083TIP3    H148740   2.805   4.520   3.769 -0.5887  0.7803  0.3829
 9083TIP3    H248741   2.742   4.398   3.706  0.6726  0.3507 -0.0924
 9084TIP3   OH248742   5.886   4.141  10.892  0.2100 -0.1572  1.1602
 9084TIP3    H148743   5.825   4.212  10.873  0.2539 -0.0475  1.4297
 9084TIP3    H248744   5.872   4.121  10.985 -1.4958 -2.1134  0.5538
 9085TIP3   OH248745   1.586   3.537  15.633 -0.1753 -0.2981  0.0664
 9085TIP3    H148746   1.592   3.493  15.548  0.8935 -0.0697  0.0104
 9085TIP3    H248747   1.663   3.594  15.636  0.3541 -1.0369  1.6006
 9086TIP3   OH248748   3.374   3.705  12.408  0.1282  0.2716  0.0628
 9086TIP3    H148749   3.415   3.631  12.364  0.7977  0.3648  0.5184
 9086TIP3    H248750   3.362   3.771  12.339  3.2934  1.3423  0.3679
 9087TIP3   OH248751   1.523   6.472   1.922  0.4160  0.6323 -0.7589
 9087TIP3    H148752   1.454   6.512   1.869  0.1428  0.2716 -0.6768
 9087TIP3    H248753   1.552   6.542   1.980 -0.5918  0.5101 -0.0825
 9088TIP3   OH248754   1.105   2.856  13.095 -0.0878  0.2462  0.6122
 9088TIP3    H148755   1.090   2.796  13.168 -1.3112 -1.5223 -0.9939
 9088TIP3    H248756   1.173   2.813  13.043 -0.1316  0.8381  0.0563
 9089TIP3   OH248757   6.530   5.351  12.120 -0.1471 -0.8740  0.4168
 9089TIP3    H148758   6.553   5.258  12.116  0.8910 -0.6159  0.1638
 9089TIP3    H248759   6.500   5.365  12.210 -0.2250 -1.4390  0.4787
 9090TIP3   OH248760   1.524   2.297   6.714  0.3477  0.2335  0.3356
 9090TIP3    H148761   1.596   2.247   6.676  0.3226  0.1084  0.4508
 9090TIP3    H248762   1.471   2.324   6.639 -0.3231 -0.9737  0.3487
 9091TIP3   OH248763   0.409   3.099  12.567  0.0758  0.1027 -0.4109
 9091TIP3    H148764   0.456   3.178  12.541 -0.0775 -0.0481 -1.1685
 9091TIP3    H248765   0.419   3.095  12.663  0.9469  0.4826 -0.4831
 9092TIP3   OH248766   4.113   3.052   6.142 -0.1082 -0.3163 -0.0981
 9092TIP3    H148767   4.164   2.971   6.146 -0.4125 -0.5020  0.0570
 9092TIP3    H248768   4.141   3.102   6.219  0.7446  0.1344 -0.6685
 9093TIP3   OH248769   4.324   1.785  11.743  0.6321 -0.3685  0.1278
 9093TIP3    H148770   4.229   1.776  11.753  0.6386 -0.2585  0.2992
 9093TIP3    H248771   4.359   1.701  11.773  0.4961 -1.0569 -1.5214
 9094TIP3   OH248772   0.500   5.448  12.056  0.1894 -0.1338  0.1434
 9094TIP3    H148773   0.546   5.468  11.975 -1.1524 -0.1153 -0.6431
 9094TIP3    H248774   0.481   5.355  12.050 -0.3951 -0.0200  0.1680
 9095TIP3   OH248775   4.153   0.176   1.004 -0.3122 -0.1856 -0.4136
 9095TIP3    H148776   4.143   0.269   0.984 -1.4972 -0.6227 -2.1106
 9095TIP3    H248777   4.211   0.173   1.080 -1.8613  2.0216  0.9611
 9096TIP3   OH248778   1.744   5.797   4.143 -0.1903 -0.2753 -0.5452
 9096TIP3    H148779   1.777   5.723   4.194 -0.0439  0.1863  0.0426
 9096TIP3    H248780   1.822   5.850   4.126 -0.2032 -0.5235 -1.4305
 9097TIP3   OH248781   5.212   4.377  14.707  0.0585 -0.4447 -0.4717
 9097TIP3    H148782   5.214   4.282  14.709 -2.6312 -0.5539 -0.1411
 9097TIP3    H248783   5.182   4.402  14.795 -1.9807  0.5441 -1.4010
 9098TIP3   OH248784   0.072   5.909   4.016 -0.2721  0.4049  0.6345
 9098TIP3    H148785   0.001   5.862   4.060 -0.6198  1.4665  1.2637
 9098TIP3    H248786   0.035   5.936   3.932 -0.0532 -0.4757  0.2501
 9099TIP3   OH248787   5.542   0.665  12.087  0.2056 -0.8445  0.1702
 9099TIP3    H148788   5.534   0.758  12.067 -0.5024 -0.9936 -0.2775
 9099TIP3    H248789   5.507   0.657  12.176  0.3613 -0.6727  0.2492
 9100TIP3   OH248790   5.149   5.980  14.885 -0.4033 -0.3345 -0.0719
 9100TIP3    H148791   5.055   6.001  14.881 -0.2800  0.1390 -2.3881
 9100TIP3    H248792   5.160   5.908  14.822  0.5903 -1.3465  1.2167
 9101TIP3   OH248793   0.045   4.039  13.488 -0.6928 -0.1406  0.3829
 9101TIP3    H148794   0.004   4.125  13.480 -1.8102 -0.8033 -1.9185
 9101TIP3    H248795   0.116   4.041  13.423 -1.1220 -1.1480 -0.1338
 9102TIP3   OH248796   4.773   5.443  16.875 -0.3890 -0.3429 -0.2668
 9102TIP3    H148797   4.734   5.356  16.887 -1.0843  0.0495  0.3668
 9102TIP3    H248798   4.698   5.502  16.869  0.0793  0.5749  2.1144
 9103TIP3   OH248799   1.912   5.227  16.396 -0.0713  0.1150  0.4265
 9103TIP3    H148800   1.950   5.139  16.393  0.6931  0.4465 -0.1725
 9103TIP3    H248801   1.885   5.244  16.306 -1.6453 -0.0961  0.8358
 9104TIP3   OH248802   4.980   1.453  12.139 -0.4908 -0.1034  0.2710
 9104TIP3    H148803   5.035   1.426  12.213 -1.9454 -1.6009  0.8597
 9104TIP3    H248804   5.041   1.496  12.079  1.0686 -0.4994  1.4960
 9105TIP3   OH248805   0.428   3.844   5.282  0.6797  0.3306 -0.4819
 9105TIP3    H148806   0.389   3.931   5.267 -2.3032 -0.8797 -0.3814
 9105TIP3    H248807   0.519   3.863   5.304  0.3429  3.3841 -1.1908
 9106TIP3   OH248808   0.775   5.364  15.513  0.1477  0.3064 -0.1918
 9106TIP3    H148809   0.696   5.314  15.493  1.3435 -1.1091 -1.6465
 9106TIP3    H248810   0.784   5.424  15.439  1.0263 -0.3297 -0.6117
 9107TIP3   OH248811   1.270   0.697  12.526  0.0089  0.0410 -0.1931
 9107TIP3    H148812   1.340   0.672  12.586 -0.4157  0.2644  0.3933
 9107TIP3    H248813   1.247   0.615  12.482 -0.0118 -0.2164  0.2948
 9108TIP3   OH248814   3.191   4.037  12.834 -0.3932 -0.2450  0.3380
 9108TIP3    H148815   3.187   4.121  12.881 -1.0603 -0.1840  0.1833
 9108TIP3    H248816   3.235   4.059  12.752  0.3955 -0.2670  0.7478
 9109TIP3   OH248817   5.370   2.117   2.049 -0.1065  0.1921  0.5020
 9109TIP3    H148818   5.310   2.091   2.119 -2.3184  2.1355 -0.5149
 9109TIP3    H248819   5.313   2.137   1.974  1.9731  0.4246 -1.1250
 9110TIP3   OH248820   4.728   6.215   3.274 -0.3413  0.1335 -0.3959
 9110TIP3    H148821   4.759   6.297   3.313 -1.2511  0.4090 -0.2347
 9110TIP3    H248822   4.642   6.236   3.239 -0.6424 -0.7929 -0.2314
 9111TIP3   OH248823   2.018   2.537  11.259  0.1545 -0.7476  0.3595
 9111TIP3    H148824   2.013   2.537  11.163  1.3733 -1.6494  0.2648
 9111TIP3    H248825   2.051   2.450  11.280 -3.1752 -1.8292  1.8219
 9112TIP3   OH248826   2.827   0.893  16.100 -0.2878 -0.4466 -0.7773
 9112TIP3    H148827   2.840   0.800  16.078 -1.5376 -0.2240 -2.6790
 9112TIP3    H248828   2.755   0.892  16.164  0.7161 -0.8532  0.3851
 9113TIP3   OH248829   0.498   2.755   0.153 -0.0186 -0.3832 -0.2065
 9113TIP3    H148830   0.555   2.766   0.077  1.7077  1.0433  1.2237
 9113TIP3    H248831   0.555   2.724   0.223 -1.8329 -3.0602  0.2383
 9114TIP3   OH248832   1.749   6.123  12.463  0.0378 -0.3727  0.4420
 9114TIP3    H148833   1.768   6.049  12.521  0.1187 -0.4440  0.3261
 9114TIP3    H248834   1.686   6.089  12.400  0.4124 -0.4731  0.1189
 9115TIP3   OH248835   5.297   1.411  14.897  0.5109 -0.7035 -0.4454
 9115TIP3    H148836   5.375   1.417  14.953 -0.0745 -1.8661  0.5478
 9115TIP3    H248837   5.308   1.329  14.849  1.6355  0.8897 -3.1089
 9116TIP3   OH248838   5.005   5.355   4.813  0.2571 -0.3098 -0.0164
 9116TIP3    H148839   5.056   5.430   4.843 -0.5386 -0.1463  0.9989
 9116TIP3    H248840   5.050   5.280   4.852  0.7618 -0.3278 -0.6184
 9117TIP3   OH248841   4.423   2.029   5.412 -0.4938  0.0061 -0.9828
 9117TIP3    H148842   4.405   2.080   5.491 -0.6790 -2.6134  0.7581
 9117TIP3    H248843   4.518   2.020   5.410 -0.3419  1.4588 -2.0481
 9118TIP3   OH248844   1.397   0.794  16.264 -0.2655  0.0310 -0.0864
 9118TIP3    H148845   1.382   0.879  16.306 -0.2723  0.4221 -0.8614
 9118TIP3    H248846   1.407   0.733  16.337  0.4035  0.8044  0.4903
 9119TIP3   OH248847   1.720   6.564   4.375 -0.0342  0.8691 -1.3771
 9119TIP3    H148848   1.636   6.589   4.337 -2.6798 -1.1710  2.5458
 9119TIP3    H248849   1.751   6.643   4.420 -0.5408  1.2555 -1.7054
 9120TIP3   OH248850   3.920   3.921   2.034  0.4398 -0.6915  0.4729
 9120TIP3    H148851   3.854   3.901   1.967 -0.2300 -2.6019  1.6259
 9120TIP3    H248852   3.881   3.992   2.085 -0.0010 -0.6882  0.1436
 9121TIP3   OH248853   0.444   4.949  17.177  0.3345  0.2535 -0.2054
 9121TIP3    H148854   0.503   4.933  17.250  0.7537  2.1841 -0.0658
 9121TIP3    H248855   0.359   4.967  17.218  0.2528  0.0103 -0.2667
 9122TIP3   OH248856   4.346   3.013   1.651 -0.4307  0.5559  0.3973
 9122TIP3    H148857   4.378   2.923   1.648 -0.4677  0.5576 -2.1248
 9122TIP3    H248858   4.251   3.004   1.637 -0.2757  0.9920 -1.1783
 9123TIP3   OH248859   5.187   4.546   3.723 -0.2830 -0.3725  0.5511
 9123TIP3    H148860   5.248   4.535   3.650  1.0386 -1.4809  1.7527
 9123TIP3    H248861   5.189   4.639   3.742 -2.9225  0.5480 -2.6118
 9124TIP3   OH248862   4.773   6.809  14.445  0.5474 -0.0071 -0.2722
 9124TIP3    H148863   4.796   6.859  14.366  1.5489  0.1822  0.1118
 9124TIP3    H248864   4.678   6.818  14.452  0.2933 -0.8869 -2.0108
 9125TIP3   OH248865   3.315   3.561  15.798 -0.1000 -0.5132 -0.7649
 9125TIP3    H148866   3.263   3.482  15.813 -1.4031  0.3060 -0.7566
 9125TIP3    H248867   3.259   3.632  15.830 -0.1266  0.6723 -3.2439
 9126TIP3   OH248868   2.642   0.024  15.832 -0.1779 -0.3274  0.2692
 9126TIP3    H148869   2.640  -0.004  15.740  3.3158  0.4351 -0.1621
 9126TIP3    H248870   2.688   0.108  15.831  1.7275 -1.2168  2.8360
 9127TIP3   OH248871   3.069   1.562   1.661  0.0788  0.4180  0.3379
 9127TIP3    H148872   3.121   1.635   1.629  0.9181 -0.5659 -0.6454
 9127TIP3    H248873   3.005   1.546   1.591  0.0791  0.0485  0.4192
 9128TIP3   OH248874   2.523   2.976  11.561 -0.2202  0.5293 -0.0387
 9128TIP3    H148875   2.586   3.037  11.523 -2.4494  0.9908 -3.3798
 9128TIP3    H248876   2.551   2.890  11.529 -0.0988  0.4435  0.2884
 9129TIP3   OH248877   3.281   4.987  12.372 -0.4953 -0.5390 -0.0537
 9129TIP3    H148878   3.286   5.066  12.319 -0.8089 -1.2357 -1.1544
 9129TIP3    H248879   3.356   4.934  12.344 -0.7073 -0.9495  0.1472
 9130TIP3   OH248880   0.668   6.293   2.676  0.4602 -0.7920  0.6695
 9130TIP3    H148881   0.750   6.330   2.644  1.1692 -2.9506 -0.1931
 9130TIP3    H248882   0.669   6.310   2.770  1.5260 -0.1410  0.5551
 9131TIP3   OH248883   0.384   5.156   1.522 -0.2489  0.4554 -0.4077
 9131TIP3    H148884   0.401   5.191   1.609 -2.5240 -1.4038  0.8901
 9131TIP3    H248885   0.462   5.105   1.501 -0.8593 -1.7261  2.0496
 9132TIP3   OH248886   6.251   2.799  13.682  0.0586 -0.1391 -0.7220
 9132TIP3    H148887   6.273   2.712  13.652 -0.7359 -0.3340 -0.7496
 9132TIP3    H248888   6.237   2.789  13.777  0.6372  0.0971 -0.6027
 9133TIP3   OH248889   4.736   2.361  16.392 -0.4777  0.4191 -0.4867
 9133TIP3    H148890   4.754   2.340  16.484 -1.6519 -0.7801 -0.5092
 9133TIP3    H248891   4.757   2.454  16.385 -0.8809  0.6734  1.1371
 9134TIP3   OH248892   2.695   2.813   6.261 -0.3071 -0.4721 -0.2689
 9134TIP3    H148893   2.740   2.819   6.345  1.8137  1.0826 -1.4095
 9134TIP3    H248894   2.606   2.845   6.279  0.6350  1.6683  1.0552
 9135TIP3   OH248895   1.569   2.415   3.343  1.0619  0.3016 -0.1049
 9135TIP3    H148896   1.663   2.408   3.325  1.0088 -1.0837  0.0791
 9135TIP3    H248897   1.536   2.326   3.332 -0.2763  0.8112 -0.3557
 9136TIP3   OH248898   3.861   5.439  17.149  0.8209 -0.2695 -0.0844
 9136TIP3    H148899   3.786   5.493  17.125  0.4154 -0.8650 -0.1795
 9136TIP3    H248900   3.855   5.363  17.090  1.9866  0.0934 -0.6930
 9137TIP3   OH248901   4.375   4.899   5.921 -0.6787  0.4468 -0.1739
 9137TIP3    H148902   4.290   4.870   5.954 -0.3231  0.7981  1.1058
 9137TIP3    H248903   4.375   4.994   5.933 -0.5946  0.6200 -1.3835
 9138TIP3   OH248904   0.969   5.662   3.919 -0.1897  0.2084  0.2206
 9138TIP3    H148905   0.963   5.579   3.968  0.1695 -0.9621 -1.6211
 9138TIP3    H248906   0.892   5.662   3.863  0.7776  0.1838 -1.1509
 9139TIP3   OH248907   5.437   6.423  12.199 -0.0113  0.0431 -0.4211
 9139TIP3    H148908   5.410   6.488  12.135 -0.7609  0.9119  0.7425
 9139TIP3    H248909   5.499   6.367  12.152 -0.1812  0.9392 -1.7491
 9140TIP3   OH248910   3.232   1.042  14.996 -0.0329  0.3045  0.3242
 9140TIP3    H148911   3.184   1.089  15.065 -0.2178 -0.4270  0.7078
 9140TIP3    H248912   3.172   1.042  14.922  0.2925  1.3767  0.0406
 9141TIP3   OH248913   4.198   4.053  11.329  0.1405 -0.3556 -0.5603
 9141TIP3    H148914   4.133   4.014  11.387  0.4187  0.3089  0.2201
 9141TIP3    H248915   4.278   4.003  11.346  1.0651  1.7044  1.9664
 9142TIP3   OH248916   2.809   3.129   0.444 -0.9026 -0.0046  0.3107
 9142TIP3    H148917   2.857   3.158   0.366  0.2874  0.3572  1.1606
 9142TIP3    H248918   2.745   3.066   0.410 -0.5531  0.3117 -0.9858
 9143TIP3   OH248919   6.772   2.113  16.642 -0.3343 -0.1265 -0.2505
 9143TIP3    H148920   6.865   2.132  16.635 -0.6660  1.1882 -1.5497
 9143TIP3    H248921   6.768   2.026  16.681  1.4643 -0.6745 -1.1918
 9144TIP3   OH248922   4.633   1.421  16.529 -0.0303  0.1134  0.4678
 9144TIP3    H148923   4.686   1.500  16.520 -0.5560  0.4014 -0.2298
 9144TIP3    H248924   4.610   1.397  16.440 -1.4954  0.3016  0.7606
 9145TIP3   OH248925   5.400   2.815   0.962 -0.2214 -0.4314  0.8012
 9145TIP3    H148926   5.341   2.785   0.893  0.0864 -1.4993  0.9867
 9145TIP3    H248927   5.401   2.744   1.026 -0.4692  0.5141  1.9018
 9146TIP3   OH248928   4.221   4.983  16.617  0.1909  0.1043 -0.7291
 9146TIP3    H148929   4.162   4.964  16.691 -0.4940 -0.6070 -1.4403
 9146TIP3    H248930   4.296   4.924  16.631 -1.2874 -2.2871 -2.1617
 9147TIP3   OH248931   1.033   3.048  13.634 -1.0449  0.1799  0.1023
 9147TIP3    H148932   1.027   3.020  13.726 -1.1655  1.0477  0.3685
 9147TIP3    H248933   0.944   3.073  13.610 -1.8037 -3.3988 -1.4068
 9148TIP3   OH248934   1.702   2.466   4.434  0.0436  0.4115  0.0651
 9148TIP3    H148935   1.778   2.431   4.482  0.7665  0.5095 -0.9733
 9148TIP3    H248936   1.708   2.426   4.348 -2.2415 -1.1500  0.5453
 9149TIP3   OH248937   5.958   1.814  13.659 -0.4310  0.8914  0.6470
 9149TIP3    H148938   5.864   1.796  13.660 -0.1630 -0.5998  1.1841
 9149TIP3    H248939   5.966   1.898  13.703 -1.4606  0.7147  1.2159
 9150TIP3   OH248940   5.840   6.283   5.145  0.6099  0.0480 -0.2536
 9150TIP3    H148941   5.910   6.267   5.081  2.4557 -0.9378  1.8580
 9150TIP3    H248942   5.881   6.341   5.209 -1.0633  0.7227  0.2332
 9151TIP3   OH248943   5.704   2.757   4.087 -0.0066 -0.4751 -0.5178
 9151TIP3    H148944   5.736   2.667   4.078 -0.9501 -1.2132  2.3607
 9151TIP3    H248945   5.620   2.748   4.131  1.1244  1.8564  2.4620
 9152TIP3   OH248946   1.701   5.358  13.604 -0.5357  0.1372  0.5849
 9152TIP3    H148947   1.683   5.264  13.603  1.7339 -0.3495  0.2224
 9152TIP3    H248948   1.617   5.398  13.582 -1.7072 -1.7498  1.3179
 9153TIP3   OH248949   5.757   5.808   3.789  0.4529 -0.4409  0.1911
 9153TIP3    H148950   5.687   5.857   3.747  0.3598  1.0033  1.9363
 9153TIP3    H248951   5.834   5.865   3.783  0.8147 -0.8738  0.6173
 9154TIP3   OH248952   2.331   4.721  12.979  0.3885 -0.1858 -0.3409
 9154TIP3    H148953   2.296   4.793  13.030  0.1441  0.7041 -1.7135
 9154TIP3    H248954   2.303   4.739  12.889  1.8532 -1.0248 -1.0018
 9155TIP3   OH248955   1.790   3.204   3.967 -0.4677 -0.0582  0.4918
 9155TIP3    H148956   1.813   3.277   3.909 -1.9327 -0.1096 -0.2103
 9155TIP3    H248957   1.834   3.128   3.928 -0.1374  0.1941  0.3702
 9156TIP3   OH248958   1.057   4.399   2.897 -0.0592 -0.0992 -0.2033
 9156TIP3    H148959   0.984   4.373   2.953  0.3937  1.6422  1.2798
 9156TIP3    H248960   1.134   4.357   2.937  0.2665  1.1537  0.5251
 9157TIP3   OH248961   0.298   0.365  10.846 -0.0828 -0.1265 -0.2545
 9157TIP3    H148962   0.208   0.332  10.852 -0.0415 -0.9029 -2.8539
 9157TIP3    H248963   0.328   0.365  10.937 -2.7879  0.4938  0.7521
 9158TIP3   OH248964   1.263   3.766  12.241 -0.0556 -0.1706  0.2279
 9158TIP3    H148965   1.199   3.725  12.299  1.0474  1.1570  2.5363
 9158TIP3    H248966   1.338   3.707  12.242 -0.3072 -0.5065 -0.4594
 9159TIP3   OH248967   3.429   6.511   3.567  0.6128  0.0443 -0.0269
 9159TIP3    H148968   3.407   6.544   3.479  0.6708  1.1625  0.3632
 9159TIP3    H248969   3.522   6.533   3.577  0.4942  0.3249  0.4771
 9160TIP3   OH248970   0.721   1.232  14.649  0.0027  0.4503  0.1927
 9160TIP3    H148971   0.636   1.262  14.615  0.4674  3.0840  1.1462
 9160TIP3    H248972   0.700   1.150  14.694 -1.6749  0.0472 -1.1754
 9161TIP3   OH248973   1.477   5.909  11.119 -0.1508  0.0745 -0.1284
 9161TIP3    H148974   1.494   5.877  11.031  1.1740 -1.4966  0.6616
 9161TIP3    H248975   1.528   5.990  11.126 -0.8226  0.5933 -1.0041
 9162TIP3   OH248976   0.977   4.645  13.504  0.0398 -0.0245  0.4166
 9162TIP3    H148977   0.936   4.703  13.440 -0.9791  0.5661  1.5553
 9162TIP3    H248978   0.909   4.632  13.571  0.7548 -1.3610  0.9056
 9163TIP3   OH248979   5.013   6.798  16.066  0.1561  0.3476  0.6044
 9163TIP3    H148980   5.021   6.781  16.160  0.2630 -1.0058  0.3797
 9163TIP3    H248981   5.014   6.893  16.058  0.5202  0.4725  1.9389
 9164TIP3   OH248982   2.799   5.774   5.546 -0.3968  0.9191 -0.2147
 9164TIP3    H148983   2.885   5.741   5.522 -1.6257 -3.4624  0.4759
 9164TIP3    H248984   2.808   5.801   5.638 -0.0828 -1.4189  0.5109
 9165TIP3   OH248985   2.007   0.379   0.866  0.0093  0.4069  0.1313
 9165TIP3    H148986   1.927   0.425   0.841  1.2278  1.8378 -1.3442
 9165TIP3    H248987   2.073   0.448   0.875  1.6404 -0.9165 -1.0341
 9166TIP3   OH248988   6.801   1.564   6.522 -0.2341 -0.0007 -0.8448
 9166TIP3    H148989   6.707   1.564   6.537 -0.0504 -1.2900  0.5498
 9166TIP3    H248990   6.840   1.582   6.607  0.7960  2.0033 -1.6757
 9167TIP3   OH248991   3.097   3.532  14.181  0.1242 -0.8846 -0.0856
 9167TIP3    H148992   3.004   3.539  14.160  0.5247  0.6560 -1.5794
 9167TIP3    H248993   3.102   3.543  14.276 -1.0017  2.3366 -0.3071
 9168TIP3   OH248994   4.226   1.203  14.212  0.3958  0.2896  0.6410
 9168TIP3    H148995   4.281   1.134  14.174 -0.4757  0.1917 -0.5274
 9168TIP3    H248996   4.200   1.256  14.136 -2.6510 -0.7795  0.8088
 9169TIP3   OH248997   1.887   6.043   1.562  0.0997 -0.6153  0.4409
 9169TIP3    H148998   1.951   6.064   1.493  0.5197 -1.1631  0.6574
 9169TIP3    H248999   1.940   6.011   1.635 -0.3437 -0.0329  1.0288
 9170TIP3   OH249000   4.176   0.321   2.870  0.1128 -0.6614  0.0037
 9170TIP3    H149001   4.082   0.337   2.861 -0.0988 -1.1117  1.2213
 9170TIP3    H249002   4.209   0.401   2.911 -0.0888 -1.2707  1.3997
 9171TIP3   OH249003   5.163   3.281  13.220  0.0022 -0.0788  0.2526
 9171TIP3    H149004   5.246   3.328  13.210 -0.2756  0.1202 -1.3377
 9171TIP3    H249005   5.186   3.202  13.268  0.8713  0.5773  0.9588
 9172TIP3   OH249006   1.970   3.165  13.072  0.0950 -0.1286 -0.6797
 9172TIP3    H149007   2.030   3.201  13.007  0.0564  2.4734  0.6056
 9172TIP3    H249008   2.026   3.143  13.146 -0.2353 -0.2152 -0.4550
 9173TIP3   OH249009   5.689   5.791   4.492  0.6567  0.3163 -0.2639
 9173TIP3    H149010   5.727   5.704   4.504 -1.8819 -0.8237  0.4298
 9173TIP3    H249011   5.650   5.811   4.578 -0.7197  1.1144 -1.0440
 9174TIP3   OH249012   2.258   2.243   1.480 -0.2317  0.9770  0.7025
 9174TIP3    H149013   2.319   2.173   1.500 -1.6376 -0.2480  0.8503
 9174TIP3    H249014   2.312   2.311   1.439  0.4715 -2.3154 -4.6289
 9175TIP3   OH249015   0.112   4.131   5.767 -0.2551  0.0223 -0.1966
 9175TIP3    H149016   0.199   4.092   5.778 -0.3294  0.0860  0.7159
 9175TIP3    H249017   0.051   4.058   5.779 -0.3553  0.1593  0.1257
 9176TIP3   OH249018   6.268   0.789  15.363  0.7159 -0.1189  0.0166
 9176TIP3    H149019   6.316   0.785  15.281 -1.4459  0.3793 -1.3748
 9176TIP3    H249020   6.227   0.703  15.372  1.7224 -0.5090  1.1258
 9177TIP3   OH249021   0.569   1.110  11.142  0.0381  0.2052  0.1227
 9177TIP3    H149022   0.562   1.107  11.047  1.4160  1.3137 -0.0331
 9177TIP3    H249023   0.478   1.106  11.173 -0.4797  0.8730 -1.2550
 9178TIP3   OH249024   5.998   5.049   6.251  0.0076 -0.1834 -0.1692
 9178TIP3    H149025   6.056   5.125   6.252  2.2906 -1.7929  2.0304
 9178TIP3    H249026   5.951   5.054   6.335 -0.3824 -0.7945 -0.3426
 9179TIP3   OH249027   5.053   1.359  13.501  0.5319  0.0057  0.1396
 9179TIP3    H149028   5.064   1.326  13.412  0.5956  0.8068 -0.1511
 9179TIP3    H249029   4.968   1.402  13.500 -0.3694 -1.6500  0.9911
 9180TIP3   OH249030   1.707   1.416  11.173  0.1490 -0.1425  0.9853
 9180TIP3    H149031   1.767   1.449  11.106  0.4146  0.5031  1.5366
 9180TIP3    H249032   1.659   1.493  11.203 -0.1320 -0.4648  1.3765
 9181TIP3   OH249033   2.540   6.339   5.309 -0.2289 -0.1083  0.1505
 9181TIP3    H149034   2.584   6.394   5.374 -0.8810  1.3843 -0.6285
 9181TIP3    H249035   2.471   6.294   5.357 -0.2849  0.4824  0.6300
 9182TIP3   OH249036   0.288   4.589  14.150 -0.0262 -0.4199  0.0978
 9182TIP3    H149037   0.334   4.611  14.069 -0.3200 -0.2704 -0.0297
 9182TIP3    H249038   0.351   4.536  14.199  1.7605  2.8303  1.6233
 9183TIP3   OH249039   4.991   4.607   0.245  0.0091 -0.0816 -0.0334
 9183TIP3    H149040   5.004   4.516   0.219 -0.5916  0.3802 -2.1292
 9183TIP3    H249041   4.957   4.650   0.166  2.4703  2.4720  0.1316
 9184TIP3   OH249042   4.134   2.983  16.239 -0.0163 -0.0119  0.1924
 9184TIP3    H149043   4.139   2.892  16.268 -0.5254  0.3517  1.5326
 9184TIP3    H249044   4.113   3.032  16.319  0.7567  1.3464 -0.3955
 9185TIP3   OH249045   5.542   3.075   2.845 -0.8608  0.2866  0.4234
 9185TIP3    H149046   5.632   3.049   2.864 -1.1935 -0.7079  0.7351
 9185TIP3    H249047   5.490   3.023   2.906 -1.6647  0.5766 -0.0100
 9186TIP3   OH249048   3.865   5.151   5.093  0.6214  0.1543 -0.2798
 9186TIP3    H149049   3.865   5.058   5.069  1.4890  0.2424 -0.6506
 9186TIP3    H249050   3.779   5.165   5.132  0.1145 -0.5812 -1.0916
 9187TIP3   OH249051   5.507   5.711   2.873  0.1091  0.5464 -0.1661
 9187TIP3    H149052   5.488   5.794   2.917 -0.6641  0.7212 -0.8118
 9187TIP3    H249053   5.556   5.736   2.795  1.4434  0.2402  0.5502
 9188TIP3   OH249054   0.261   4.803   2.956  0.2189  0.4716  0.2779
 9188TIP3    H149055   0.274   4.774   2.865  1.1271 -1.2631  0.9224
 9188TIP3    H249056   0.167   4.792   2.972  0.2010 -0.0421 -0.1737
 9189TIP3   OH249057   2.478   2.067  10.635  0.0845 -0.0752 -0.3849
 9189TIP3    H149058   2.413   2.138  10.631 -0.4526 -0.3298  2.1383
 9189TIP3    H249059   2.430   1.993  10.673  1.8434 -0.1628  1.8928
 9190TIP3   OH249060   4.786   5.906  16.143  0.1849 -0.1133  0.2523
 9190TIP3    H149061   4.798   5.960  16.222 -1.4507 -0.6672  0.9267
 9190TIP3    H249062   4.755   5.822  16.176 -0.1522 -0.4833 -0.9679
 9191TIP3   OH249063   6.037   2.696   1.449  0.0672  0.1642 -0.1746
 9191TIP3    H149064   6.118   2.743   1.431  0.7921 -0.9113  0.1495
 9191TIP3    H249065   6.064   2.621   1.503 -0.8008 -1.4820 -1.9032
 9192TIP3   OH249066   3.087   6.189   5.327 -0.7521 -0.1521  0.3270
 9192TIP3    H149067   3.045   6.275   5.336 -1.2086 -0.4746  1.5039
 9192TIP3    H249068   3.037   6.146   5.258 -0.1961  0.7045 -0.6306
 9193TIP3   OH249069   2.399   3.256  15.226 -0.2916 -0.8773  0.2235
 9193TIP3    H149070   2.483   3.246  15.271 -0.2065 -0.8026  0.0802
 9193TIP3    H249071   2.420   3.249  15.133 -0.4604 -0.9733  0.1916
 9194TIP3   OH249072   1.203   2.078   0.949 -0.4883 -0.2755 -0.0170
 9194TIP3    H149073   1.149   2.118   0.880 -0.6582 -0.2688  0.1173
 9194TIP3    H249074   1.141   2.023   0.998 -0.1704 -1.0481 -0.4593
 9195TIP3   OH249075   3.404   2.646   6.186 -0.3245 -1.0736 -0.1436
 9195TIP3    H149076   3.356   2.563   6.182 -1.1478 -0.5835 -0.8650
 9195TIP3    H249077   3.485   2.630   6.137 -0.1065 -1.6781  0.4057
 9196TIP3   OH249078   1.262   4.779   2.193  0.3452  0.0494 -0.1071
 9196TIP3    H149079   1.231   4.857   2.239  0.2930  0.1442 -0.3010
 9196TIP3    H249080   1.355   4.772   2.217  0.0010 -0.6602  1.0591
 9197TIP3   OH249081   6.444   1.360   0.052  0.6883 -0.1175 -0.3274
 9197TIP3    H149082   6.419   1.405   0.133  0.3127  1.5780 -1.3224
 9197TIP3    H249083   6.540   1.365   0.050  0.6291  1.3931 -0.7780
 9198TIP3   OH249084   4.444   5.704   4.942  0.8150 -0.1070 -0.2938
 9198TIP3    H149085   4.426   5.639   4.874  0.4991 -0.0922 -0.2278
 9198TIP3    H249086   4.537   5.695   4.961  1.2994  1.0121 -1.9078
 9199TIP3   OH249087   2.150   2.437   6.650 -0.4148 -0.2390  0.1103
 9199TIP3    H149088   2.226   2.440   6.707 -0.7336 -0.8935  0.5809
 9199TIP3    H249089   2.141   2.345   6.626 -0.8603 -0.1172 -0.2023
 9200TIP3   OH249090   3.948   0.688   0.431  0.0493  0.4847 -0.8673
 9200TIP3    H149091   4.014   0.707   0.364 -0.0665  2.0406 -0.5978
 9200TIP3    H249092   3.998   0.655   0.506  0.4782  1.0645 -0.8857
 9201TIP3   OH249093   4.890   4.307  14.611  0.3305 -0.4464  0.0454
 9201TIP3    H149094   4.834   4.296  14.534  0.5773 -1.7118  0.0208
 9201TIP3    H249095   4.978   4.284  14.580  1.1815  2.7580 -0.2625
 9202TIP3   OH249096   5.074   3.777  16.619  0.3545 -0.0067  0.0087
 9202TIP3    H149097   5.029   3.695  16.640  0.5871 -0.5595 -1.4852
 9202TIP3    H249098   5.084   3.822  16.703 -0.8203 -0.9722  0.7011
 9203TIP3   OH249099   6.683   2.955   5.204 -0.4565  0.2634 -0.3257
 9203TIP3    H149100   6.721   2.911   5.128  0.2462 -0.2524  0.3103
 9203TIP3    H249101   6.727   3.040   5.207  0.1246 -0.0455 -0.0154
 9204TIP3   OH249102   3.717   3.153   4.549  0.0025 -0.0063  0.2848
 9204TIP3    H149103   3.639   3.109   4.516 -0.3439  0.1199  0.9134
 9204TIP3    H249104   3.790   3.110   4.504 -0.3838 -0.6551  0.2679
 9205TIP3   OH249105   5.278   1.521  14.001  0.7916 -0.0852  0.1069
 9205TIP3    H149106   5.218   1.562  13.939  0.2996 -1.5860 -0.4441
 9205TIP3    H249107   5.363   1.526  13.958  0.4839 -0.9480 -0.6241
 9206TIP3   OH249108   0.240   4.564  13.721  0.3109 -0.1212  0.1477
 9206TIP3    H149109   0.224   4.474  13.691 -0.6419 -0.1248  0.6343
 9206TIP3    H249110   0.243   4.615  13.640  2.2599 -0.7505 -0.2596
 9207TIP3   OH249111   1.990   0.395  16.610  0.0497  0.1176  0.2638
 9207TIP3    H149112   2.079   0.420  16.583  0.3928 -0.5359  0.7809
 9207TIP3    H249113   1.935   0.421  16.536  0.4441  1.9557  0.5656
 9208TIP3   OH249114   5.064   3.343   1.229  0.1275 -0.5499  0.4751
 9208TIP3    H149115   5.045   3.413   1.167  1.6904  0.0842  0.6528
 9208TIP3    H249116   5.121   3.384   1.295 -0.7148 -1.4434  1.8093
 9209TIP3   OH249117   2.402   5.569   1.060  0.0709 -0.1475 -1.0332
 9209TIP3    H149118   2.398   5.658   1.096 -1.7408 -0.8357  0.6755
 9209TIP3    H249119   2.352   5.574   0.979  0.6698  0.5571 -1.3696
 9210TIP3   OH249120   6.145   4.712  13.086  0.2385  0.6328 -0.0523
 9210TIP3    H149121   6.111   4.797  13.058 -1.2375 -0.1213 -0.7180
 9210TIP3    H249122   6.095   4.649  13.034  0.9492 -0.6575  0.7779
 9211TIP3   OH249123   1.203   1.668   2.493 -0.2576  0.3003  0.5337
 9211TIP3    H149124   1.244   1.752   2.511 -2.8049  1.9557 -0.7768
 9211TIP3    H249125   1.200   1.662   2.397 -3.5428  0.6698  0.4934
 9212TIP3   OH249126   6.602   5.619  14.327 -0.5411 -0.6602  0.2444
 9212TIP3    H149127   6.643   5.684  14.269 -0.2377 -1.1051 -0.0492
 9212TIP3    H249128   6.518   5.657  14.351 -1.9673 -1.6516 -2.7459
 9213TIP3   OH249129   4.618   4.971  15.120 -0.1203 -0.3959  0.6364
 9213TIP3    H149130   4.704   5.011  15.108 -0.5574  0.6445  0.8421
 9213TIP3    H249131   4.625   4.885  15.079  1.0867 -0.4260  0.8717
 9214TIP3   OH249132   3.222   5.713  14.593  0.3791 -0.1981  0.5171
 9214TIP3    H149133   3.195   5.710  14.501 -0.7963 -0.9526  0.8538
 9214TIP3    H249134   3.243   5.804  14.610 -2.1040  0.4886  0.2172
 9215TIP3   OH249135   2.068   5.500  12.705 -0.8479  0.5229  0.6373
 9215TIP3    H149136   2.038   5.436  12.770  0.0524  0.4590  1.0072
 9215TIP3    H249137   2.163   5.498  12.712 -0.7982  1.7364  0.4837
 9216TIP3   OH249138   1.933   1.531  10.596  0.3504  0.2192  0.4896
 9216TIP3    H149139   1.918   1.603  10.657 -0.3820  1.1236 -0.7155
 9216TIP3    H249140   1.855   1.476  10.602 -0.3575  1.0695 -0.6196
 9217TIP3   OH249141   3.281   2.743   0.975  0.2038 -0.1887 -0.8629
 9217TIP3    H149142   3.185   2.732   0.973  0.1065  0.0985  0.7564
 9217TIP3    H249143   3.299   2.804   0.904 -0.7440 -0.7086 -1.5836
 9218TIP3   OH249144   0.187   6.732   2.658 -0.4117 -0.0870  0.1814
 9218TIP3    H149145   0.110   6.675   2.665  0.5012 -1.6704 -1.7006
 9218TIP3    H249146   0.160   6.799   2.595 -1.0877  0.9548  1.5187
 9219TIP3   OH249147   3.396   5.475  15.111  0.3457 -0.5206 -0.1091
 9219TIP3    H149148   3.427   5.415  15.179 -0.1441  0.9648  1.4834
 9219TIP3    H249149   3.470   5.486  15.052  1.2498 -0.7774  0.9507
 9220TIP3   OH249150   0.195   2.732  15.626 -0.4090 -0.1962  0.1382
 9220TIP3    H149151   0.139   2.770  15.694 -0.5756  0.7880 -0.5268
 9220TIP3    H249152   0.135   2.686  15.568 -0.4165 -0.0356  0.0147
 9221TIP3   OH249153   1.124   6.234   2.475 -0.0588  0.4292  0.1836
 9221TIP3    H149154   1.111   6.141   2.456  0.2728  0.3721  0.2341
 9221TIP3    H249155   1.164   6.235   2.563 -0.7543  0.6516  0.5017
 9222TIP3   OH249156   3.477   1.779  14.663  0.0911  0.0293  0.6413
 9222TIP3    H149157   3.423   1.800  14.587 -1.1694 -0.6907  1.2988
 9222TIP3    H249158   3.442   1.833  14.733  0.2655 -0.3885  1.0598
 9223TIP3   OH249159   1.811   1.038   0.812 -0.1391  0.0480  0.4972
 9223TIP3    H149160   1.862   0.957   0.805 -0.7780 -0.5922  2.4989
 9223TIP3    H249161   1.774   1.035   0.900 -2.1816  1.3592 -0.2459
 9224TIP3   OH249162   4.268   3.077  13.193 -0.1751 -0.0419 -0.0412
 9224TIP3    H149163   4.274   2.994  13.146 -1.0017  0.0093 -0.2499
 9224TIP3    H249164   4.355   3.089  13.231  0.2152 -0.5584 -0.7465
 9225TIP3   OH249165   1.983   2.964   5.841  0.0956  0.0559  0.0869
 9225TIP3    H149166   2.041   3.037   5.820  0.3933 -0.4331 -0.8590
 9225TIP3    H249167   2.019   2.926   5.921 -0.9827  1.8956  1.5336
 9226TIP3   OH249168   4.372   4.444   6.094  0.1976  0.4151  0.1718
 9226TIP3    H149169   4.283   4.476   6.086 -0.6298 -1.1707  2.1002
 9226TIP3    H249170   4.425   4.522   6.108 -0.6870  1.4650 -1.9241
 9227TIP3   OH249171   3.082   0.331  10.959  0.0563  0.0727  0.3471
 9227TIP3    H149172   3.045   0.327  11.048 -0.9213  0.5866 -0.0138
 9227TIP3    H249173   3.169   0.293  10.967  0.4209  1.1166  1.7573
 9228TIP3   OH249174   2.980   5.627  11.197 -0.2202 -0.2833 -0.8031
 9228TIP3    H149175   2.922   5.551  11.197  0.8045 -1.1111  0.7538
 9228TIP3    H249176   3.068   5.591  11.197  0.3316  0.9509 -2.2217
 9229TIP3   OH249177   1.595   0.192  13.818  0.3607  0.0822  0.3414
 9229TIP3    H149178   1.541   0.238  13.754  1.0388 -0.3912 -0.6078
 9229TIP3    H249179   1.646   0.261  13.860 -1.5370  0.6382  1.8677
 9230TIP3   OH249180   2.051   3.492  11.554 -0.8716 -0.3442  0.1797
 9230TIP3    H149181   2.112   3.455  11.617 -0.1226  0.4095 -0.0875
 9230TIP3    H249182   2.001   3.556  11.604 -0.2388  0.2950  0.0134
 9231TIP3   OH249183   5.299   4.530   5.596 -0.0360  0.5872 -0.1158
 9231TIP3    H149184   5.359   4.554   5.526 -0.8524  1.5374 -0.5135
 9231TIP3    H249185   5.355   4.522   5.674  0.6409  1.2225 -0.5213
 9232TIP3   OH249186   3.775   4.095   0.078 -0.0214 -0.0412 -0.0569
 9232TIP3    H149187   3.806   4.035   0.010 -0.0143 -2.2034  1.7143
 9232TIP3    H249188   3.818   4.178   0.059  1.4820 -1.1007 -1.5885
 9233TIP3   OH249189   6.560   2.372   1.034  0.4718  0.3142  0.0671
 9233TIP3    H149190   6.592   2.456   1.002 -0.1602  0.5396  0.0283
 9233TIP3    H249191   6.546   2.386   1.128  1.7204 -0.1650  0.3552
 9234TIP3   OH249192   6.563   6.562   5.112  0.1534  0.1523  0.2352
 9234TIP3    H149193   6.496   6.501   5.141 -0.5554  0.6121 -0.3928
 9234TIP3    H249194   6.563   6.555   5.017  0.3026  0.8618  0.1736
 9235TIP3   OH249195   0.880   3.269  14.438 -0.7131  0.5045  0.0996
 9235TIP3    H149196   0.854   3.283  14.529  0.2780  0.7138  0.3558
 9235TIP3    H249197   0.975   3.274  14.438 -0.6890  0.3932 -0.9322
 9236TIP3   OH249198   0.389   1.332  14.298 -0.3827  0.4391 -0.5003
 9236TIP3    H149199   0.338   1.261  14.259 -0.7234  0.6200 -0.3879
 9236TIP3    H249200   0.425   1.293  14.378 -0.5887  0.3999 -0.4256
 9237TIP3   OH249201   2.773   5.592  13.344  0.2845  0.4219  0.3210
 9237TIP3    H149202   2.859   5.585  13.303 -0.6158  2.2038 -2.1084
 9237TIP3    H249203   2.727   5.512  13.318  0.6786  0.1916  0.3181
 9238TIP3   OH249204   4.378   6.603  12.829  0.6056 -1.0101  0.1459
 9238TIP3    H149205   4.363   6.546  12.754  1.1540 -0.8950 -0.0598
 9238TIP3    H249206   4.296   6.602  12.878  0.0255 -0.5762 -0.7978
 9239TIP3   OH249207   2.576   5.884   4.100  0.2287  0.1874  0.1240
 9239TIP3    H149208   2.508   5.932   4.147  0.6657  0.9741 -0.0437
 9239TIP3    H249209   2.657   5.907   4.145  0.7566  1.5176 -1.4312
 9240TIP3   OH249210   3.146   5.088  12.581 -0.7170 -0.2027  0.0445
 9240TIP3    H149211   3.202   5.048  12.514 -0.5527 -0.2307  0.1979
 9240TIP3    H249212   3.059   5.050  12.566 -0.7128 -0.0958 -0.2478
 9241TIP3   OH249213   1.816   5.879  12.949 -0.0826  0.0549 -0.2491
 9241TIP3    H149214   1.868   5.835  12.883  0.7263 -0.5859  0.7842
 9241TIP3    H249215   1.732   5.833  12.949  0.1646 -0.4017 -0.3397
 9242TIP3   OH249216   2.508   4.305  11.342  0.1982 -0.5058 -0.0356
 9242TIP3    H149217   2.478   4.267  11.424  0.4145 -0.0499  0.2577
 9242TIP3    H249218   2.551   4.232  11.297 -1.7221 -1.2876 -0.6836
 9243TIP3   OH249219   0.565   1.025   5.376  0.3768  0.3741 -0.3571
 9243TIP3    H149220   0.514   0.945   5.386 -0.1753  0.8447  0.7020
 9243TIP3    H249221   0.542   1.078   5.452  0.5009  1.6688 -1.1952
 9244TIP3   OH249222   2.997   5.055  15.389 -0.3849 -0.0201 -0.0484
 9244TIP3    H149223   2.966   5.082  15.475 -1.4916  0.1986 -0.4931
 9244TIP3    H249224   2.940   4.982  15.365  0.9501 -1.1280  0.0713
 9245TIP3   OH249225   0.968   1.723   3.620 -0.4342  0.2797  0.2574
 9245TIP3    H149226   0.879   1.744   3.647 -0.0803  1.0147  0.9045
 9245TIP3    H249227   0.958   1.674   3.539 -1.3740  2.3050 -0.9383
 9246TIP3   OH249228   3.233   0.977   1.054  0.7035 -0.0156  0.3380
 9246TIP3    H149229   3.312   1.018   1.019 -0.3699  2.0845  0.2009
 9246TIP3    H249230   3.253   0.883   1.057  2.5949  0.2802 -1.2483
 9247TIP3   OH249231   5.894   4.618   0.181  0.9126  0.6218 -0.0398
 9247TIP3    H149232   5.827   4.685   0.194 -0.1279 -0.3649 -0.2620
 9247TIP3    H249233   5.912   4.620   0.087 -0.0386 -0.2588 -0.2551
 9248TIP3   OH249234   4.197   2.060   3.004 -0.4132  0.5630 -0.1042
 9248TIP3    H149235   4.264   2.112   3.049  0.6895 -1.6379  0.9766
 9248TIP3    H249236   4.117   2.112   3.011  0.2397  1.3832  2.3985
 9249TIP3   OH249237   0.581   3.008   2.516 -0.2008  0.0457 -0.2260
 9249TIP3    H149238   0.664   2.984   2.476 -0.1668  0.2976 -0.3143
 9249TIP3    H249239   0.565   3.098   2.485  0.1953  0.5317  0.9256
 9250TIP3   OH249240   0.075   0.644  13.000  0.3303 -0.4113 -0.0721
 9250TIP3    H149241   0.128   0.723  13.001 -0.2687  0.0446 -1.3376
 9250TIP3    H249242   0.032   0.642  13.086  0.4249  0.5927  0.0087
 9251TIP3   OH249243   5.730   2.448   1.698 -0.3275  0.9516  0.2803
 9251TIP3    H149244   5.774   2.364   1.711  0.2822  1.1705 -0.3687
 9251TIP3    H249245   5.793   2.513   1.728 -0.3187  1.2476 -0.3682
 9252TIP3   OH249246   2.444   4.040  12.022 -0.1182  0.1256 -0.4341
 9252TIP3    H149247   2.449   3.955  11.978  0.4303  0.5659 -1.2429
 9252TIP3    H249248   2.514   4.037  12.087  0.5661  0.3333 -1.1480
 9253TIP3   OH249249   4.554   4.605  16.449 -0.3119  0.3881 -0.2872
 9253TIP3    H149250   4.648   4.594  16.436 -0.2258  1.2714 -0.4711
 9253TIP3    H249251   4.525   4.653  16.372 -1.2431 -1.4337 -1.1323
 9254TIP3   OH249252   5.709   6.048  11.268  0.2589 -0.3531 -0.5295
 9254TIP3    H149253   5.723   6.087  11.181 -0.9733 -2.1464 -1.6041
 9254TIP3    H249254   5.613   6.042  11.276  0.3304  0.3425  1.2479
 9255TIP3   OH249255   3.889   4.339  13.379  0.2235 -0.0519  0.0402
 9255TIP3    H149256   3.840   4.278  13.324  0.8230 -1.1710  0.7037
 9255TIP3    H249257   3.886   4.300  13.466 -0.5811  1.6094  0.8004
 9256TIP3   OH249258   6.421   1.979  13.570  0.2739  0.2553  0.4102
 9256TIP3    H149259   6.344   1.945  13.617  1.1069 -1.4022  0.6634
 9256TIP3    H249260   6.448   1.906  13.514  2.3213  0.3951  1.1618
 9257TIP3   OH249261   2.375   2.292  14.729 -0.1156 -0.5708 -0.8648
 9257TIP3    H149262   2.418   2.376  14.714  2.8928 -1.6366  0.7644
 9257TIP3    H249263   2.375   2.249  14.644  0.4389  0.2162 -1.2741
 9258TIP3   OH249264   3.913   2.257  12.009  0.4406  0.5797  0.3801
 9258TIP3    H149265   3.957   2.249  11.924 -0.4531 -2.6501  0.0938
 9258TIP3    H249266   3.821   2.238  11.990  0.3619 -1.0748  2.1268
 9259TIP3   OH249267   2.699   4.061   2.344  0.1229 -0.1777  0.3196
 9259TIP3    H149268   2.793   4.055   2.365  0.1309  0.7656  0.5833
 9259TIP3    H249269   2.685   4.153   2.323 -0.3883 -0.6299 -1.5029
 9260TIP3   OH249270   1.798   3.420   3.625 -0.8164  0.0496 -0.1019
 9260TIP3    H149271   1.794   3.328   3.599 -1.4182 -0.1519  0.6821
 9260TIP3    H249272   1.719   3.434   3.676 -0.6302  0.9575 -0.0486
 9261TIP3   OH249273   0.233   1.989   0.272  0.0567  0.7320  0.0392
 9261TIP3    H149274   0.185   1.912   0.303 -1.1805  1.3251 -0.3235
 9261TIP3    H249275   0.311   1.992   0.327  0.1898 -0.8392 -0.0188
 9262TIP3   OH249276   2.991   2.463  11.503  0.1241 -0.1860  0.0319
 9262TIP3    H149277   2.938   2.384  11.489 -1.0854  0.7259 -0.7516
 9262TIP3    H249278   3.074   2.445  11.459  0.3803 -1.5272  1.0057
 9263TIP3   OH249279   1.861   5.762   3.794  0.7039 -0.4627 -0.3266
 9263TIP3    H149280   1.811   5.688   3.760 -0.5500  0.3019 -0.2106
 9263TIP3    H249281   1.873   5.742   3.887 -0.6879  0.0013 -0.0138
 9264TIP3   OH249282   4.659   5.719   6.131 -0.1474 -0.2214  0.5388
 9264TIP3    H149283   4.589   5.764   6.083 -1.3396 -0.3867  2.0486
 9264TIP3    H249284   4.703   5.789   6.179  0.5332 -0.1664 -0.1448
 9265TIP3   OH249285   4.572   2.750  13.600  0.5618  0.4450 -0.0340
 9265TIP3    H149286   4.591   2.659  13.626  0.3461  0.2877 -0.4204
 9265TIP3    H249287   4.658   2.787  13.581  0.5838  0.0452 -0.7579
 9266TIP3   OH249288   4.970   0.257  11.694 -0.1933  0.6901 -0.5829
 9266TIP3    H149289   4.889   0.213  11.718 -0.4205  1.5219  0.2453
 9266TIP3    H249290   5.039   0.208  11.739 -0.3316  0.5085 -0.5717
 9267TIP3   OH249291   1.507   5.452   4.074  0.3834  0.2547 -0.4002
 9267TIP3    H149292   1.522   5.364   4.108  2.2848  0.0114 -1.7331
 9267TIP3    H249293   1.532   5.447   3.981  0.6576  2.2221 -0.4794
 9268TIP3   OH249294   4.529   2.340   1.427 -0.0946 -0.1625  0.2793
 9268TIP3    H149295   4.508   2.248   1.445  1.9983 -0.6066  0.7476
 9268TIP3    H249296   4.609   2.336   1.374  1.2970  1.3789  2.1134
 9269TIP3   OH249297   4.366   0.124   6.844  0.6799  0.4186  0.3416
 9269TIP3    H149298   4.285   0.110   6.892  1.7884  1.1491  2.5285
 9269TIP3    H249299   4.417   0.044   6.858  1.8043  1.3813  2.1440
 9270TIP3   OH249300   4.794   3.493   5.176 -0.3163 -0.0410 -1.0342
 9270TIP3    H149301   4.737   3.562   5.144  1.1426  2.1607  0.7724
 9270TIP3    H249302   4.882   3.520   5.150  0.1984 -1.9819 -1.4793
 9271TIP3   OH249303   3.686   0.349  16.290 -0.7984 -0.4318  0.1527
 9271TIP3    H149304   3.704   0.431  16.335  0.1412 -0.9219  0.7188
 9271TIP3    H249305   3.712   0.364  16.200 -0.0695 -0.2895  0.3846
 9272TIP3   OH249306   3.883   4.242  15.255 -0.1974 -0.0341  0.1443
 9272TIP3    H149307   3.876   4.253  15.160 -0.8343 -1.8534 -0.0411
 9272TIP3    H249308   3.793   4.245  15.287 -0.0083  0.2665  0.6642
 9273TIP3   OH249309   0.437   1.924  13.015 -0.3980 -0.3728  0.1641
 9273TIP3    H149310   0.461   1.885  13.099 -0.0057 -1.5723 -0.4733
 9273TIP3    H249311   0.383   1.857  12.973 -1.3804  0.5939 -0.1654
 9274TIP3   OH249312   3.669   1.049   3.841 -0.0521 -0.1892 -0.4804
 9274TIP3    H149313   3.758   1.054   3.807  0.9517 -2.5460  1.4748
 9274TIP3    H249314   3.647   0.956   3.838 -0.9831 -0.1803  2.3859
 9275TIP3   OH249315   6.581   3.070  15.277 -0.2028  0.0918  0.3902
 9275TIP3    H149316   6.524   3.147  15.282 -1.4684 -0.5146 -2.5348
 9275TIP3    H249317   6.575   3.030  15.364 -0.0690  2.8345  1.7803
 9276TIP3   OH249318   6.807   2.751  14.853  0.1373 -0.1058 -0.1269
 9276TIP3    H149319   6.731   2.769  14.910 -0.4593 -1.4742 -0.4551
 9276TIP3    H249320   6.768   2.725  14.770  0.9300 -1.7042 -0.0312
 9277TIP3   OH249321   1.902   1.757  16.588  0.1212  0.1292  0.1428
 9277TIP3    H149322   1.941   1.705  16.518  0.5183  1.3413 -0.5652
 9277TIP3    H249323   1.835   1.700  16.625  1.2900 -1.3021  0.1580
 9278TIP3   OH249324   6.033   4.386  14.880  0.0799 -0.1457  0.3779
 9278TIP3    H149325   6.043   4.383  14.975 -1.2174  2.5247  0.6957
 9278TIP3    H249326   5.943   4.416  14.866  0.4001  0.0181 -1.6789
 9279TIP3   OH249327   5.631   1.448   0.611  0.1127 -0.1617  0.5549
 9279TIP3    H149328   5.537   1.429   0.603  0.1132 -0.3454  0.9330
 9279TIP3    H249329   5.636   1.543   0.602 -0.1924 -0.0762  1.1607
 9280TIP3   OH249330   5.011   5.384  16.214  0.1725  0.7273  1.3040
 9280TIP3    H149331   5.041   5.294  16.200 -0.5557  0.7406 -0.5752
 9280TIP3    H249332   4.918   5.375  16.234 -0.1453  1.1058  0.0567
 9281TIP3   OH249333   0.838   0.941  11.852  0.0720  0.0113  0.0312
 9281TIP3    H149334   0.918   0.889  11.846  0.7271  0.4567  2.9782
 9281TIP3    H249335   0.856   1.019  11.800  1.7893  0.2837  0.9443
 9282TIP3   OH249336   6.667   0.340  13.890 -0.2913  0.2771  0.5309
 9282TIP3    H149337   6.582   0.298  13.875  0.1124 -0.1384 -0.6968
 9282TIP3    H249338   6.727   0.268  13.908 -0.2724  0.6047  1.8912
 9283TIP3   OH249339   6.592   3.210   1.412 -0.1125  0.1328  0.0913
 9283TIP3    H149340   6.655   3.215   1.484 -0.7896 -0.9567  0.8050
 9283TIP3    H249341   6.634   3.253   1.339  0.9505  0.5120  0.9103
 9284TIP3   OH249342   6.213   1.077   1.891 -0.5464  0.3170 -0.0166
 9284TIP3    H149343   6.261   1.009   1.843 -1.8858  0.5965 -1.8599
 9284TIP3    H249344   6.281   1.128   1.934  0.4864 -2.3952  1.7885
 9285TIP3   OH249345   1.046   0.557  15.275 -0.3588  0.4557  0.0098
 9285TIP3    H149346   1.046   0.652  15.286 -0.3745  0.4311  0.2134
 9285TIP3    H249347   0.995   0.543  15.195 -0.2147  0.6287 -0.1152
 9286TIP3   OH249348   3.919   1.828  14.108  0.2607  0.1869 -0.3737
 9286TIP3    H149349   3.913   1.784  14.024  1.3861  0.7033 -0.7333
 9286TIP3    H249350   3.828   1.835  14.138 -0.1327 -0.1024 -1.4782
 9287TIP3   OH249351   0.547   0.347   2.268  0.3655 -0.5244  0.0208
 9287TIP3    H149352   0.545   0.311   2.180  0.9488 -0.3272 -0.0740
 9287TIP3    H249353   0.629   0.315   2.306  0.2056 -0.4646  0.4303
 9288TIP3   OH249354   2.907   4.005   2.663 -0.4692 -0.6453 -0.0473
 9288TIP3    H149355   2.964   3.933   2.690  0.7187 -0.0642 -0.9141
 9288TIP3    H249356   2.828   3.962   2.629  0.6329 -1.6048 -1.4744
 9289TIP3   OH249357   2.786   3.922  12.170 -0.2676  0.1968 -0.2081
 9289TIP3    H149358   2.814   3.928  12.079 -1.2634 -1.4715 -0.6720
 9289TIP3    H249359   2.867   3.915  12.220  0.3320  1.9618 -0.8336
 9290TIP3   OH249360   0.101   6.576  15.672 -0.2087  0.2190  0.2738
 9290TIP3    H149361   0.118   6.537  15.587  0.3935  0.7909  0.1187
 9290TIP3    H249362   0.059   6.507  15.723  1.6904 -0.9738  0.3275
 9291TIP3   OH249363   2.885   1.900  12.334  0.3183 -0.4404 -0.1795
 9291TIP3    H149364   2.847   1.838  12.271 -0.9199 -0.4733  0.5563
 9291TIP3    H249365   2.894   1.849  12.414  0.7881 -0.0897 -0.0099
 9292TIP3   OH249366   6.279   1.865   0.765 -0.8807 -0.2204  0.4766
 9292TIP3    H149367   6.374   1.869   0.764 -0.8613  0.4516 -1.9597
 9292TIP3    H249368   6.254   1.870   0.673 -3.3658  2.6681  1.1458
 9293TIP3   OH249369   1.635   2.672  15.884 -0.2628  0.2854  0.0523
 9293TIP3    H149370   1.668   2.667  15.794 -0.1718 -0.1444  0.1043
 9293TIP3    H249371   1.609   2.582  15.904  0.9612  0.0991  0.9163
 9294TIP3   OH249372   2.265   0.859   3.890 -0.9982  0.4180  0.6770
 9294TIP3    H149373   2.306   0.797   3.829 -3.1027  0.2262 -0.6451
 9294TIP3    H249374   2.175   0.829   3.899 -1.3017  1.6477  2.3149
 9295TIP3   OH249375   2.467   3.871  12.833  0.1963  0.2087 -0.2106
 9295TIP3    H149376   2.535   3.810  12.804 -0.0047  0.6798 -1.7462
 9295TIP3    H249377   2.497   3.901  12.919  1.9488  0.4120 -0.8604
 9296TIP3   OH249378   5.640   4.435   3.969  0.0333 -0.0392 -0.0742
 9296TIP3    H149379   5.556   4.461   3.932 -0.2460 -0.2201  0.4286
 9296TIP3    H249380   5.633   4.341   3.981  0.5959 -0.1809 -0.7450
 9297TIP3   OH249381   4.147   0.427  11.743  0.1304  0.4896 -0.2981
 9297TIP3    H149382   4.191   0.489  11.802 -0.1846  0.6593 -0.2380
 9297TIP3    H249383   4.186   0.445  11.657  0.7760  0.0645 -0.1048
 9298TIP3   OH249384   2.678   0.962  12.784 -0.3086 -0.1090 -0.2031
 9298TIP3    H149385   2.771   0.975  12.764 -0.6204  2.9286 -0.1469
 9298TIP3    H249386   2.634   1.037  12.743 -2.7339 -1.3422 -0.0456
 9299TIP3   OH249387   2.525   2.684  15.122 -0.1787 -0.1191  0.1298
 9299TIP3    H149388   2.600   2.728  15.082 -0.0790  0.5247  0.9878
 9299TIP3    H249389   2.553   2.593  15.133  0.0543 -0.1405 -0.5776
 9300TIP3   OH249390   4.791   1.773   5.273  0.3074 -0.1458  0.1771
 9300TIP3    H149391   4.777   1.678   5.275  1.2200 -0.3061 -0.5723
 9300TIP3    H249392   4.886   1.783   5.268  0.4052  0.8596  2.4872
 9301TIP3   OH249393   4.829   3.725  11.322 -0.0048 -0.5782 -0.3303
 9301TIP3    H149394   4.792   3.643  11.289  0.4847 -1.0654  0.3183
 9301TIP3    H249395   4.839   3.711  11.416  0.1878  0.1879 -0.2345
 9302TIP3   OH249396   0.444   3.460  14.519 -0.3162 -0.5940 -0.4610
 9302TIP3    H149397   0.444   3.406  14.440 -1.0392 -1.1709 -0.0823
 9302TIP3    H249398   0.423   3.548  14.488  1.2096 -0.4334 -1.1291
 9303TIP3   OH249399   1.410   0.409   3.837 -0.3844 -0.3874 -0.0222
 9303TIP3    H149400   1.424   0.423   3.931  0.8261 -0.4570 -0.1764
 9303TIP3    H249401   1.480   0.349   3.811  2.3737  3.3002 -1.9114
 9304TIP3   OH249402   4.202   6.511  13.553 -0.0793  0.2596  0.4043
 9304TIP3    H149403   4.255   6.512  13.633 -0.4746  0.9433  0.6757
 9304TIP3    H249404   4.115   6.539  13.582 -0.6892 -1.1597  0.0273
 9305TIP3   OH249405   1.413   0.655   2.772  0.4665 -0.3822  0.3990
 9305TIP3    H149406   1.334   0.607   2.799  0.4291 -0.1090  0.7830
 9305TIP3    H249407   1.479   0.632   2.839  0.6534 -0.4541  0.1908
 9306TIP3   OH249408   2.752   0.310  14.940 -0.1880 -0.1733  0.0991
 9306TIP3    H149409   2.727   0.251  14.868 -0.1630  0.8843 -0.8003
 9306TIP3    H249410   2.684   0.377  14.941  0.8960  0.9582 -0.2955
 9307TIP3   OH249411   2.999   6.682  15.483  0.7016  0.3951 -0.0053
 9307TIP3    H149412   2.975   6.642  15.567  1.8638 -1.3762 -0.4485
 9307TIP3    H249413   2.956   6.628  15.417  1.3736  0.5686 -0.5998
 9308TIP3   OH249414   6.049   5.550  16.563  0.6757  0.0865  0.2351
 9308TIP3    H149415   6.062   5.455  16.569  0.5169  0.0328 -0.2284
 9308TIP3    H249416   5.955   5.561  16.546  0.8543  0.2752 -0.6908
 9309TIP3   OH249417   5.903   4.664  11.843 -0.0952  0.3129 -0.3392
 9309TIP3    H149418   5.891   4.624  11.929 -0.4828 -1.3910 -1.1320
 9309TIP3    H249419   5.985   4.712  11.850  0.6118 -0.9763  0.5807
 9310TIP3   OH249420   1.379   3.313  12.240 -0.1425  0.2593 -0.1361
 9310TIP3    H149421   1.321   3.307  12.316  0.8728  2.4795  0.8971
 9310TIP3    H249422   1.404   3.405  12.236  0.4530  0.0669 -2.7379
 9311TIP3   OH249423   3.078   4.815  14.058  0.0326 -0.0678  0.0783
 9311TIP3    H149424   3.047   4.724  14.057 -0.2056  0.0132  0.1659
 9311TIP3    H249425   3.163   4.811  14.014 -0.2498 -0.2348 -0.4671
 9312TIP3   OH249426   4.990   3.402  11.469 -0.0638  0.3488  0.3495
 9312TIP3    H149427   5.064   3.346  11.442 -0.3211  0.2578 -0.1776
 9312TIP3    H249428   5.031   3.484  11.495  0.1655  0.6319 -0.8299
 9313TIP3   OH249429   3.954   5.649  15.493  0.1185  0.0278  0.2988
 9313TIP3    H149430   3.887   5.673  15.556 -0.4986 -0.6436 -0.0840
 9313TIP3    H249431   4.029   5.624  15.547 -0.1605  0.1410  0.7465
 9314TIP3   OH249432   1.075   5.631   4.911 -0.0117  0.3915 -0.1010
 9314TIP3    H149433   1.042   5.564   4.971 -0.2460  0.6712  0.0851
 9314TIP3    H249434   1.165   5.648   4.941  0.2414 -0.2309 -0.4883
 9315TIP3   OH249435   4.289   6.241  15.616 -0.1621  0.0459 -1.0015
 9315TIP3    H149436   4.301   6.299  15.541  1.4499 -1.4865 -1.9890
 9315TIP3    H249437   4.265   6.156  15.578  0.9211 -0.8251  0.1706
 9316TIP3   OH249438   2.500   3.047   0.812  0.0599  0.1696  0.1307
 9316TIP3    H149439   2.409   3.062   0.838  0.2045 -0.4372  1.0445
 9316TIP3    H249440   2.509   3.092   0.728 -0.4415  2.1929  1.1049
 9317TIP3   OH249441   3.180   1.524   2.877 -0.0368  0.3341 -0.1504
 9317TIP3    H149442   3.195   1.579   2.800  0.9922 -0.5002 -0.5648
 9317TIP3    H249443   3.085   1.512   2.879 -0.2255  1.5763 -0.4219
 9318TIP3   OH249444   3.473   1.596  15.246 -0.1990 -0.0262 -0.0404
 9318TIP3    H149445   3.452   1.544  15.169  1.3280 -0.2241 -0.3634
 9318TIP3    H249446   3.528   1.538  15.300 -0.9380  0.2324  1.0325
 9319TIP3   OH249447   1.911   3.014   4.832 -0.0772  0.1121 -0.2320
 9319TIP3    H149448   1.855   3.053   4.900 -0.4564  0.2264 -0.6038
 9319TIP3    H249449   1.980   2.970   4.880 -0.5271 -0.0825  0.2442
 9320TIP3   OH249450   0.768   2.854  14.742  0.2878  0.7330  0.3545
 9320TIP3    H149451   0.770   2.893  14.655 -1.1362  1.7091  0.7236
 9320TIP3    H249452   0.834   2.784  14.738  0.6122  1.0784 -1.3294
 9321TIP3   OH249453   6.393   0.761   5.897  0.0620  0.1718 -0.1139
 9321TIP3    H149454   6.434   0.809   5.969 -0.6156  0.6210 -0.0209
 9321TIP3    H249455   6.406   0.669   5.919  0.2195  0.3089  0.3690
 9322TIP3   OH249456   1.525   5.110  15.145  0.0462 -0.2580 -0.0388
 9322TIP3    H149457   1.464   5.178  15.115  0.2969 -0.4513 -1.0152
 9322TIP3    H249458   1.592   5.106  15.076  2.6229  1.7278  2.1186
 9323TIP3   OH249459   3.727   5.167  13.005 -0.4103 -0.0992 -0.4477
 9323TIP3    H149460   3.760   5.160  13.095  0.9486  0.2242 -0.9069
 9323TIP3    H249461   3.722   5.261  12.989 -0.6569 -0.1562 -0.7216
 9324TIP3   OH249462   4.489   4.978  16.912  0.0207  0.2562 -0.0424
 9324TIP3    H149463   4.418   4.938  16.861  0.6416  0.4289 -1.0496
 9324TIP3    H249464   4.489   4.928  16.995  0.5224 -1.6163 -1.1096
 9325TIP3   OH249465   2.822   6.775   0.661  0.0363  0.0838 -0.1502
 9325TIP3    H149466   2.898   6.730   0.625 -0.6695  0.8581 -2.8321
 9325TIP3    H249467   2.857   6.825   0.735  1.9102 -0.3930 -0.6523
 9326TIP3   OH249468   6.056   0.221   4.559  0.8601  0.8445 -0.5581
 9326TIP3    H149469   6.014   0.145   4.518 -0.2818  1.2549 -0.2015
 9326TIP3    H249470   5.987   0.260   4.612  1.2243  2.5372 -1.2661
 9327TIP3   OH249471   0.540   4.140  11.394  0.5316  0.2803  0.0359
 9327TIP3    H149472   0.632   4.157  11.377  0.1907  0.2990 -2.1190
 9327TIP3    H249473   0.518   4.194  11.470  1.6098  2.5683 -1.1802
 9328TIP3   OH249474   3.718   0.210   1.197  0.6367  0.1403  0.3680
 9328TIP3    H149475   3.689   0.138   1.140  0.8369 -1.4848  2.2427
 9328TIP3    H249476   3.728   0.284   1.137 -1.4786 -0.8266 -1.3462
 9329TIP3   OH249477   2.567   4.972   4.966 -0.6735 -0.5242  0.0437
 9329TIP3    H149478   2.507   4.899   4.946  0.8194 -1.5236 -0.9664
 9329TIP3    H249479   2.565   4.979   5.061 -0.5349 -2.1805  0.1938
 9330TIP3   OH249480   4.874   4.151  16.362  0.0629 -0.0898  0.0195
 9330TIP3    H149481   4.850   4.242  16.345 -2.8121 -0.8595 -0.4158
 9330TIP3    H249482   4.869   4.142  16.457  1.4796  0.4221  0.1789
 9331TIP3   OH249483   6.196   2.003  16.562 -0.6644 -0.0449 -0.4946
 9331TIP3    H149484   6.186   2.020  16.656  0.7489  0.6243 -0.4458
 9331TIP3    H249485   6.110   2.022  16.525 -1.4645 -1.0628  0.7563
 9332TIP3   OH249486   2.333   2.778  16.648  0.4509  0.0196  0.4540
 9332TIP3    H149487   2.298   2.745  16.731  0.3986 -2.0488 -0.3436
 9332TIP3    H249488   2.356   2.869  16.667  0.1422 -0.2967  2.6436
 9333TIP3   OH249489   4.340   0.576   3.429 -0.3696  0.4901 -0.1466
 9333TIP3    H149490   4.304   0.583   3.518 -0.2556  1.7416 -0.1799
 9333TIP3    H249491   4.268   0.540   3.377 -0.5268  0.0092  0.3885
 9334TIP3   OH249492   2.720   2.360  13.961  0.6076  0.2870 -0.7121
 9334TIP3    H149493   2.767   2.386  14.041  0.3350 -0.1614 -0.4031
 9334TIP3    H249494   2.648   2.305  13.993  0.3226  0.3524 -1.2454
 9335TIP3   OH249495   6.702   3.471   3.859  0.1636 -0.0356  0.2422
 9335TIP3    H149496   6.722   3.483   3.952 -1.3165 -0.1048  0.6081
 9335TIP3    H249497   6.609   3.447   3.859  0.3501 -0.8028 -1.2120
 9336TIP3   OH249498   2.226   5.189  12.511 -0.2731 -0.2335  0.2577
 9336TIP3    H149499   2.211   5.117  12.449  0.8297 -0.4487  0.2247
 9336TIP3    H249500   2.279   5.252  12.462 -1.5685  0.8202  0.1540
 9337TIP3   OH249501   5.562   2.410  13.003  0.4103  0.4100 -0.2968
 9337TIP3    H149502   5.556   2.328  12.955 -2.8006  0.9143 -1.0250
 9337TIP3    H249503   5.530   2.388  13.091  1.1044  0.5875  0.0092
 9338TIP3   OH249504   2.795   4.868   2.289 -0.1969  0.3547  0.1884
 9338TIP3    H149505   2.883   4.889   2.260  0.3540  2.0787  2.7312
 9338TIP3    H249506   2.805   4.789   2.342 -0.2340  0.3798  0.2332
 9339TIP3   OH249507   4.283   1.163   0.072  0.4111  0.8705 -0.6137
 9339TIP3    H149508   4.288   1.234   0.137 -1.2438  0.5933 -0.1176
 9339TIP3    H249509   4.229   1.199   0.002 -2.0205 -0.3951  0.4606
 9340TIP3   OH249510   4.630   0.858   1.470 -0.4795 -0.5525  0.5175
 9340TIP3    H149511   4.583   0.778   1.444 -1.7472  0.0135  0.9763
 9340TIP3    H249512   4.722   0.831   1.475 -0.7135 -1.6587 -0.5931
 9341TIP3   OH249513   2.113   0.064   0.667  0.0301  0.0668 -0.1709
 9341TIP3    H149514   2.094   0.141   0.720 -0.4632 -1.3621  1.8346
 9341TIP3    H249515   2.199   0.034   0.698 -0.5264 -1.1272  0.3124
 9342TIP3   OH249516   0.867   5.851   6.290 -0.0823  0.0098  0.1379
 9342TIP3    H149517   0.887   5.927   6.346 -1.7091 -0.0520  0.8544
 9342TIP3    H249518   0.905   5.777   6.337 -1.9761 -0.1304  1.5732
 9343TIP3   OH249519   6.435   2.340  15.034  0.3358 -0.3524 -0.0114
 9343TIP3    H149520   6.346   2.306  15.022 -0.0611  0.4356  0.6095
 9343TIP3    H249521   6.489   2.262  15.045 -0.9551 -0.8865  4.3145
 9344TIP3   OH249522   0.734   5.543  14.539  0.1480  0.1176  0.7795
 9344TIP3    H149523   0.780   5.611  14.588 -0.7299  0.0754  1.6863
 9344TIP3    H249524   0.791   5.466  14.547  1.0329  0.6664 -0.0610
 9345TIP3   OH249525   2.145   1.049  12.637  0.1241  0.2776  0.1400
 9345TIP3    H149526   2.092   1.008  12.567 -0.7631  1.3552  0.1479
 9345TIP3    H249527   2.108   1.137  12.646  1.7031  0.9422  0.4170
 9346TIP3   OH249528   6.594   6.637   1.842 -0.3622 -0.2264  0.3962
 9346TIP3    H149529   6.573   6.729   1.857  1.7492  0.4780 -0.5536
 9346TIP3    H249530   6.576   6.623   1.749  1.7686  0.0154 -0.1069
 9347TIP3   OH249531   0.035   0.279  10.874  0.1880  0.1035 -0.5441
 9347TIP3    H149532   0.045   0.213  10.943 -0.3120  1.8135  1.2615
 9347TIP3    H249533  -0.035   0.245  10.818  0.4780 -1.2422 -0.1310
 9348TIP3   OH249534   4.139   6.763  13.226  0.0567 -0.3722 -0.4285
 9348TIP3    H149535   4.193   6.686  13.243 -0.3906 -0.7213 -0.5762
 9348TIP3    H249536   4.056   6.744  13.269  0.7718  1.1312  1.8023
 9349TIP3   OH249537   1.877   2.094   4.834 -0.2051 -0.6658  0.1886
 9349TIP3    H149538   1.860   2.044   4.754  1.1432 -0.6450 -0.1248
 9349TIP3    H249539   1.839   2.040   4.904 -1.8277 -0.4566 -0.4781
 9350TIP3   OH249540   5.008   2.172   3.110  0.3087 -0.3988 -0.2032
 9350TIP3    H149541   5.003   2.157   3.204  2.5075  0.8407  0.1667
 9350TIP3    H249542   4.966   2.095   3.071 -0.4084 -1.0515  1.7675
 9351TIP3   OH249543   4.691   0.488   0.844 -0.4252  0.4342  0.1270
 9351TIP3    H149544   4.628   0.416   0.838  0.2817 -0.0969 -1.2151
 9351TIP3    H249545   4.772   0.453   0.808 -0.0505  1.8686 -0.5033
 9352TIP3   OH249546   5.620   2.952   4.722  0.2931  0.3176 -0.2159
 9352TIP3    H149547   5.708   2.938   4.685 -0.1199 -0.8554 -0.8092
 9352TIP3    H249548   5.562   2.902   4.664 -1.0174  2.4957 -0.9188
 9353TIP3   OH249549   6.164   3.162   6.182  0.2722  0.0944  0.8178
 9353TIP3    H149550   6.193   3.240   6.230 -0.0110 -0.6422  2.2389
 9353TIP3    H249551   6.125   3.106   6.249 -0.2722 -0.9228 -0.3155
 9354TIP3   OH249552   2.321   5.305   4.817  0.3735 -0.5950 -0.3669
 9354TIP3    H149553   2.379   5.365   4.770  0.8126 -0.7045  0.0386
 9354TIP3    H249554   2.354   5.218   4.796 -1.3599 -0.8441 -2.4639
 9355TIP3   OH249555   4.215   1.462   0.395  0.1320 -0.1934  0.7520
 9355TIP3    H149556   4.179   1.470   0.307 -2.3918 -3.2285  1.3010
 9355TIP3    H249557   4.280   1.393   0.389  0.8976  0.4792  1.0755
 9356TIP3   OH249558   2.078   5.379   4.883  0.2968  0.3767  0.2221
 9356TIP3    H149559   2.167   5.348   4.867 -0.4828 -2.3592  0.7758
 9356TIP3    H249560   2.040   5.315   4.943 -2.3391  0.9365 -0.7102
 9357TIP3   OH249561   3.481   3.614  15.188 -0.0296  0.2580 -0.2764
 9357TIP3    H149562   3.457   3.706  15.174  1.3211  0.4676 -1.4670
 9357TIP3    H249563   3.576   3.613  15.181  0.1266 -0.9897  1.3718
 9358TIP3   OH249564   4.057   4.014   6.483 -0.0079  0.2178  0.1463
 9358TIP3    H149565   4.026   3.934   6.526  1.3502  0.4633  1.6921
 9358TIP3    H249566   3.978   4.066   6.469 -0.6071 -0.2194  1.6647
 9359TIP3   OH249567   0.057   6.786   4.229 -0.0177 -0.0868 -0.7038
 9359TIP3    H149568   0.101   6.869   4.248  0.2153  0.2992 -2.7745
 9359TIP3    H249569  -0.036   6.809   4.224 -0.0868 -0.2016 -0.0609
 9360TIP3   OH249570   0.940   5.963   1.676 -0.1716  0.1976  0.2362
 9360TIP3    H149571   0.996   6.005   1.740  0.0078  0.2804  0.0237
 9360TIP3    H249572   0.997   5.901   1.631 -0.4392 -0.2952  0.5669
 9361TIP3   OH249573   6.205   5.606   2.951 -0.2406 -0.0330 -0.3221
 9361TIP3    H149574   6.213   5.664   2.876 -0.5531 -1.0420 -1.1680
 9361TIP3    H249575   6.218   5.662   3.027  0.8123  0.8819 -1.1472
 9362TIP3   OH249576   0.802   4.895   3.091  0.6642  0.5702  0.1154
 9362TIP3    H149577   0.758   4.814   3.114 -0.7974  0.9143 -1.2844
 9362TIP3    H249578   0.749   4.964   3.133 -0.3141  0.9968 -1.6981
 9363TIP3   OH249579   6.291   0.443  14.850  0.0629  0.2409 -0.2830
 9363TIP3    H149580   6.240   0.376  14.897 -1.0533  1.0242 -0.3510
 9363TIP3    H249581   6.231   0.477  14.784  1.3035 -0.1570 -1.6624
 9364TIP3   OH249582   6.809   0.195  11.906  0.3347  0.0075 -0.6979
 9364TIP3    H149583   6.804   0.118  11.962 -1.1864  0.7943  0.3175
 9364TIP3    H249584   6.717   0.221  11.893  0.8128  1.6743 -0.9531
 9365TIP3   OH249585   3.041   6.220   3.557  0.4672  0.3387 -0.0438
 9365TIP3    H149586   2.987   6.151   3.595 -1.4076  2.6997  1.8924
 9365TIP3    H249587   3.024   6.215   3.463  1.9406 -2.9872 -0.2819
 9366TIP3   OH249588   0.441   0.353   3.379 -0.1931 -0.6594  0.0108
 9366TIP3    H149589   0.489   0.307   3.448 -2.2860 -0.3906  1.7399
 9366TIP3    H249590   0.477   0.442   3.380  0.2687 -0.8446  0.2696
 9367TIP3   OH249591   2.199   2.814  15.849  0.9890  0.0242 -0.2371
 9367TIP3    H149592   2.284   2.823  15.806  1.0715 -1.1112 -0.3251
 9367TIP3    H249593   2.135   2.830  15.779  1.1249 -0.1081 -0.3913
 9368TIP3   OH249594   5.682   4.269   3.726 -0.3220  0.6490  0.2276
 9368TIP3    H149595   5.680   4.357   3.764 -3.0735  0.2755  1.1825
 9368TIP3    H249596   5.710   4.213   3.798 -0.0154  0.5826  0.0551
 9369TIP3   OH249597   6.732   1.450   2.542  0.2132  0.4108  0.1873
 9369TIP3    H149598   6.793   1.457   2.616  0.7577 -0.0001 -0.2131
 9369TIP3    H249599   6.717   1.541   2.515  1.1623  0.4922 -0.1163
 9370TIP3   OH249600   2.918   2.410   2.613 -0.3454  0.0462 -0.6637
 9370TIP3    H149601   2.841   2.371   2.654  0.3655 -0.4581  0.2361
 9370TIP3    H249602   2.972   2.335   2.587  0.0911  0.4012 -0.7913
 9371TIP3   OH249603   6.115   2.075  12.618 -0.6859  0.2155  0.1262
 9371TIP3    H149604   6.052   2.078  12.689 -0.8331 -0.6661  0.0418
 9371TIP3    H249605   6.197   2.107  12.657 -1.2133  1.5665  0.1748
 9372TIP3   OH249606   2.032   5.775  14.274 -1.0312  0.4539  0.0227
 9372TIP3    H149607   2.077   5.854  14.302 -1.4049  0.5754  0.2922
 9372TIP3    H249608   2.042   5.773  14.179  0.9818 -0.4111  0.2024
 9373TIP3   OH249609   3.168   6.515  16.892 -0.5942 -0.4835 -0.0045
 9373TIP3    H149610   3.259   6.498  16.917 -0.2474 -1.7639 -1.8841
 9373TIP3    H249611   3.127   6.428  16.890 -2.2881  0.1616  2.0915
 9374TIP3   OH249612   5.892   5.847  11.425  0.1828 -0.5868 -0.6107
 9374TIP3    H149613   5.840   5.771  11.449  1.5966 -1.2787  0.4032
 9374TIP3    H249614   5.863   5.869  11.336 -3.0022  0.1371  0.4846
 9375TIP3   OH249615   1.000   4.601   4.541 -0.5548  0.4187 -0.0996
 9375TIP3    H149616   0.973   4.596   4.450 -1.5834 -0.9636  0.2385
 9375TIP3    H249617   0.932   4.554   4.589  0.2447  0.6296  1.3146
 9376TIP3   OH249618   5.522   2.363   2.736 -0.3293  0.0431  0.2179
 9376TIP3    H149619   5.516   2.381   2.642 -0.2252  1.2640  0.4281
 9376TIP3    H249620   5.598   2.412   2.765 -1.1814  0.8325  1.1878
 9377TIP3   OH249621   4.460   6.813  13.713 -0.2771 -0.3501 -0.3781
 9377TIP3    H149622   4.500   6.842  13.795 -0.0770  0.8445 -0.8899
 9377TIP3    H249623   4.534   6.781  13.660  0.0108  1.5749 -1.2045
 9378TIP3   OH249624   0.613   5.490  11.786 -0.0663  0.1915 -0.2905
 9378TIP3    H149625   0.642   5.504  11.695  0.9680  0.6291  0.0903
 9378TIP3    H249626   0.685   5.524  11.839 -0.5511 -0.3051  0.7000
 9379TIP3   OH249627   0.410   0.637  14.338 -0.3506  0.4125 -0.1437
 9379TIP3    H149628   0.417   0.606  14.248  1.4115 -0.2538  0.1718
 9379TIP3    H249629   0.489   0.603  14.381 -1.8347 -0.5272  2.0242
 9380TIP3   OH249630   5.722   2.774  11.526 -0.5054  0.0945 -0.4612
 9380TIP3    H149631   5.750   2.865  11.522 -0.7185  0.2466  0.8996
 9380TIP3    H249632   5.802   2.724  11.545 -0.9223  0.4895  3.0464
 9381TIP3   OH249633   0.019   2.885  13.380 -0.2928  0.0392 -0.1915
 9381TIP3    H149634   0.064   2.917  13.458  1.7398  1.3218 -1.8020
 9381TIP3    H249635  -0.046   2.952  13.360  0.1056  0.3700 -0.3709
 9382TIP3   OH249636   0.236   6.489  16.545 -0.2657  0.3666 -0.5924
 9382TIP3    H149637   0.291   6.539  16.485 -1.7929  0.4057 -2.0521
 9382TIP3    H249638   0.239   6.399  16.510 -1.8543  0.5568 -1.3017
 9383TIP3   OH249639   6.787   6.730   4.753 -0.3229 -0.4102  0.1705
 9383TIP3    H149640   6.791   6.804   4.693 -2.6654 -0.2694  0.0828
 9383TIP3    H249641   6.780   6.653   4.697  0.3477 -0.5401  0.2631
 9384TIP3   OH249642   5.439   4.724  11.628 -0.2530  0.0754  0.2648
 9384TIP3    H149643   5.353   4.744  11.590 -1.2643  0.6496  2.6639
 9384TIP3    H249644   5.464   4.804  11.674  1.7419  0.0039 -0.5890
 9385TIP3   OH249645   5.469   3.512  15.412 -0.4491 -0.0637 -0.1408
 9385TIP3    H149646   5.411   3.548  15.346 -1.7025  0.9002  1.4296
 9385TIP3    H249647   5.411   3.470  15.475  0.3920  1.8140  2.0180
 9386TIP3   OH249648   2.877   2.676  16.233  0.2466 -0.1243 -0.1218
 9386TIP3    H149649   2.826   2.596  16.219  0.3058  0.0802 -1.6211
 9386TIP3    H249650   2.813   2.737  16.271 -0.0364 -0.5694  0.1411
 9387TIP3   OH249651   3.762   5.492  15.323  0.0846  0.1993  0.1739
 9387TIP3    H149652   3.831   5.547  15.361  0.7380  1.4349 -2.5302
 9387TIP3    H249653   3.809   5.428  15.270 -0.7891 -0.0682 -0.2917
 9388TIP3   OH249654   6.063   3.160   3.617  0.7190  0.4035  0.3540
 9388TIP3    H149655   6.125   3.215   3.666  0.9545 -1.2783  2.0500
 9388TIP3    H249656   6.117   3.113   3.554  0.7452  0.9458 -0.0340
 9389TIP3   OH249657   3.021   5.839   0.145 -0.1840  0.0384  0.3689
 9389TIP3    H149658   2.945   5.863   0.199  0.5813  1.9901  0.6656
 9389TIP3    H249659   3.083   5.911   0.158  0.9959 -0.6319 -1.2669
 9390TIP3   OH249660   3.265   0.615   1.520 -0.4248 -0.3179  0.1967
 9390TIP3    H149661   3.280   0.524   1.547  0.6627 -0.2248 -0.0389
 9390TIP3    H249662   3.191   0.610   1.459  0.0045 -1.1421 -0.2874
 9391TIP3   OH249663   0.175   4.579  14.702  0.0997 -0.4821 -0.0872
 9391TIP3    H149664   0.176   4.582  14.606  0.6131 -0.1061 -0.0748
 9391TIP3    H249665   0.164   4.486  14.722  0.2959 -0.6008 -0.5114
 9392TIP3   OH249666   3.485   4.466  13.168  0.3409  0.3270  0.0516
 9392TIP3    H149667   3.573   4.476  13.132 -0.0817  0.6483 -0.9108
 9392TIP3    H249668   3.457   4.379  13.140  0.2563  0.3260  0.1368
 9393TIP3   OH249669   3.701   1.019   1.024  0.7918  0.4540 -0.6504
 9393TIP3    H149670   3.702   1.062   1.109 -0.1310 -1.3660  0.3446
 9393TIP3    H249671   3.756   0.942   1.035  0.5784  0.1316 -1.6714
 9394TIP3   OH249672   0.055   0.904  12.718 -0.5359 -0.4801  0.3997
 9394TIP3    H149673   0.071   0.882  12.810 -2.3079  2.2449  1.4795
 9394TIP3    H249674  -0.001   0.832  12.686  0.3067 -1.5864  1.3263
 9395TIP3   OH249675   0.283   4.545  13.033  0.1685 -0.2956  0.2993
 9395TIP3    H149676   0.331   4.624  13.010  0.3844 -0.1351  1.2309
 9395TIP3    H249677   0.201   4.551  12.985  0.1698  0.5193  0.3857
 9396TIP3   OH249678   0.402   1.534  12.658  0.0107 -0.0404  0.4141
 9396TIP3    H149679   0.485   1.493  12.633 -0.1922 -1.3515  1.6989
 9396TIP3    H249680   0.365   1.566  12.576  1.6339  0.3086 -0.2222
 9397TIP3   OH249681   1.021   3.642   4.805  0.8278  0.1978 -0.0902
 9397TIP3    H149682   1.073   3.618   4.882 -1.9399 -2.6448  1.1321
 9397TIP3    H249683   0.933   3.657   4.840 -0.1404  0.6712 -2.5134
 9398TIP3   OH249684   3.836   3.339  14.845  0.4097  0.0624 -0.0124
 9398TIP3    H149685   3.825   3.433  14.830 -0.3311  0.3148  1.8601
 9398TIP3    H249686   3.870   3.333  14.935 -1.7430 -1.5110  0.7794
 9399TIP3   OH249687   5.670   3.825  13.279 -0.2343  0.5773  0.3356
 9399TIP3    H149688   5.714   3.797  13.359 -1.8367 -1.6940  0.5229
 9399TIP3    H249689   5.577   3.827  13.302 -0.7431 -0.1611 -1.4309
 9400TIP3   OH249690   5.849   2.576   4.766  0.1625 -0.0134 -0.0605
 9400TIP3    H149691   5.767   2.594   4.721  0.2034 -1.6730 -0.8694
 9400TIP3    H249692   5.916   2.580   4.698  0.6437  0.3691  0.4152
 9401TIP3   OH249693   2.963   3.791   1.184 -0.3611  0.2833 -0.1564
 9401TIP3    H149694   3.010   3.745   1.254  1.6697  3.6178  0.8874
 9401TIP3    H249695   3.023   3.789   1.110 -1.1392 -0.4338 -0.7880
 9402TIP3   OH249696   3.468   0.624   1.293 -0.8045  0.3455  0.2850
 9402TIP3    H149697   3.412   0.623   1.371  0.1979 -0.4532  1.0370
 9402TIP3    H249698   3.553   0.654   1.326 -0.2300 -0.4807 -0.4006
 9403TIP3   OH249699   5.294   1.175   6.141 -0.5840 -0.2567  0.0859
 9403TIP3    H149700   5.306   1.269   6.155 -0.8819 -0.3232  0.8299
 9403TIP3    H249701   5.240   1.147   6.215 -2.2071 -0.6386 -1.1970
 9404TIP3   OH249702   1.420   1.352  11.601 -0.4993  0.7945  0.4333
 9404TIP3    H149703   1.438   1.408  11.525 -0.3614 -1.2900 -1.1775
 9404TIP3    H249704   1.329   1.326  11.590  0.3410 -2.0505 -0.9388
 9405TIP3   OH249705   5.321   3.721  16.952 -0.1292 -0.2528  0.4664
 9405TIP3    H149706   5.361   3.766  17.026  0.0652  2.4438 -1.1411
 9405TIP3    H249707   5.228   3.742  16.958 -0.0513  0.3338 -0.2559
 9406TIP3   OH249708   6.066   6.792   3.004 -0.3723 -0.4509  0.3985
 9406TIP3    H149709   6.103   6.879   3.020  1.0573 -0.6257 -1.5779
 9406TIP3    H249710   6.050   6.756   3.092 -1.5286  1.9704  1.2660
 9407TIP3   OH249711   0.638   3.018   3.874  0.1490  0.4570 -0.0968
 9407TIP3    H149712   0.556   2.971   3.860  0.3960  0.4499 -1.6542
 9407TIP3    H249713   0.699   2.979   3.811  0.8772  1.6121 -0.1358
 9408TIP3   OH249714   2.762   6.114   2.090  0.0615 -0.4745 -0.1849
 9408TIP3    H149715   2.731   6.075   2.171  0.1065 -1.6741 -0.7225
 9408TIP3    H249716   2.698   6.087   2.024 -0.1169  0.6976 -0.5159
 9409TIP3   OH249717   1.797   2.790  15.111 -0.1141 -0.5343 -0.2574
 9409TIP3    H149718   1.717   2.820  15.154 -0.0246  1.1357 -1.1864
 9409TIP3    H249719   1.767   2.723  15.049 -0.6438 -0.6756  0.1392
 9410TIP3   OH249720   6.498   1.066   5.996  0.4250  0.0526 -0.5136
 9410TIP3    H149721   6.410   1.101   6.008  0.2355 -0.0295 -1.6238
 9410TIP3    H249722   6.514   1.014   6.075 -0.5353  0.0153 -0.3366
 9411TIP3   OH249723   3.201   0.627  10.452  0.0547  0.9334 -0.0647
 9411TIP3    H149724   3.247   0.697  10.405 -0.3764  0.1522 -1.7299
 9411TIP3    H249725   3.267   0.560  10.466  0.1322  1.0781  0.2781
 9412TIP3   OH249726   0.602   3.420   2.238 -0.1214  0.4446  0.7240
 9412TIP3    H149727   0.681   3.373   2.211  2.3531  1.4559  5.1973
 9412TIP3    H249728   0.616   3.510   2.207  0.4969  0.5934  1.4037
 9413TIP3   OH249729   0.523   0.864   3.870  0.7308  0.2466 -0.3672
 9413TIP3    H149730   0.516   0.917   3.791 -2.6899  1.2369  0.4216
 9413TIP3    H249731   0.457   0.795   3.859  0.5396  0.0991  1.3666
 9414TIP3   OH249732   0.393   4.945   5.602 -0.1700  0.1315 -0.2244
 9414TIP3    H149733   0.465   4.979   5.549 -2.1393  0.9172 -2.6062
 9414TIP3    H249734   0.359   5.022   5.648 -1.0714  0.3150 -1.1606
 9415TIP3   OH249735   0.978   3.008   0.037  0.0695 -0.0851 -0.3012
 9415TIP3    H149736   0.942   3.059   0.109  1.3354 -0.0977  0.3739
 9415TIP3    H249737   0.901   2.974  -0.009 -0.7766  0.0248  0.9643
 9416TIP3   OH249738   4.222   1.606   3.467  0.0765  0.0716 -0.2288
 9416TIP3    H149739   4.160   1.587   3.396 -0.2608 -0.8780  0.3031
 9416TIP3    H249740   4.289   1.660   3.426 -0.8757  0.7762 -0.9231
 9417TIP3   OH249741   1.490   6.286  12.715  0.7448  0.3108 -0.1453
 9417TIP3    H149742   1.525   6.247  12.795  2.1363 -0.2550 -0.9792
 9417TIP3    H249743   1.553   6.354  12.692 -0.2959  1.3131 -0.1114
 9418TIP3   OH249744   5.271   6.282  13.334  0.1851  0.0342 -0.5894
 9418TIP3    H149745   5.198   6.293  13.274  0.6856  4.6896 -0.6761
 9418TIP3    H249746   5.328   6.357  13.317  1.8166  0.0559  3.7450
 9419TIP3   OH249747   3.923   4.884  15.454  0.2535  0.0685 -0.5830
 9419TIP3    H149748   4.018   4.879  15.446  0.3381 -0.5073  0.4857
 9419TIP3    H249749   3.908   4.958  15.513  0.0431  0.1465 -0.7350
 9420TIP3   OH249750   5.552   4.914  15.889  0.1804  0.3713 -0.5942
 9420TIP3    H149751   5.473   4.922  15.835  0.6499  1.0503 -1.2030
 9420TIP3    H249752   5.520   4.891  15.976 -0.5999 -0.7334 -1.1560
 9421TIP3   OH249753   4.682   3.169  12.974  0.1075  0.0551  0.3685
 9421TIP3    H149754   4.673   3.208  12.887 -3.5132  1.4741  1.1939
 9421TIP3    H249755   4.760   3.212  13.011 -0.5458  2.3958 -0.7988
 9422TIP3   OH249756   2.301   0.163   4.529  0.1574 -0.1391  0.4400
 9422TIP3    H149757   2.282   0.225   4.600 -0.0582  0.0481  0.2199
 9422TIP3    H249758   2.393   0.178   4.509  0.0003  0.4050  0.1053
 9423TIP3   OH249759   6.074   4.724  11.578  0.3629  0.2458 -0.1821
 9423TIP3    H149760   6.161   4.732  11.619  0.2481 -0.1425  0.1419
 9423TIP3    H249761   6.035   4.647  11.620  0.8567 -1.1557 -2.1318
 9424TIP3   OH249762   5.334   6.519  11.435  0.1046 -0.4649  0.0013
 9424TIP3    H149763   5.288   6.601  11.452  0.1537 -0.5298  0.4574
 9424TIP3    H249764   5.410   6.545  11.382 -0.6832 -0.4189 -1.1380
 9425TIP3   OH249765   2.200   4.504  13.117  0.0450 -0.8345  0.0961
 9425TIP3    H149766   2.252   4.547  13.050  0.7835 -0.3095  0.9782
 9425TIP3    H249767   2.113   4.543  13.110  0.4835  0.2235  0.3414
 9426TIP3   OH249768   4.443   3.832   4.759  0.5192 -0.3122  0.0941
 9426TIP3    H149769   4.382   3.767   4.792 -0.3899  0.7989  0.7032
 9426TIP3    H249770   4.397   3.916   4.772  1.2215  0.3696 -1.5715
 9427TIP3   OH249771   3.251   0.496  15.019  0.9711 -0.2665 -0.0187
 9427TIP3    H149772   3.200   0.577  15.017  1.0161 -0.2142  0.6260
 9427TIP3    H249773   3.259   0.470  14.927  0.4826  0.1625 -0.1889
 9428TIP3   OH249774   0.517   3.972   2.992 -0.2304 -0.7863  0.3195
 9428TIP3    H149775   0.473   3.931   3.067 -3.2812  0.3474 -0.7001
 9428TIP3    H249776   0.488   3.921   2.916 -0.9994  0.8604 -0.5463
 9429TIP3   OH249777   3.791   2.506   5.554 -0.1964 -0.0864  0.6093
 9429TIP3    H149778   3.829   2.418   5.546 -0.4535 -0.2572  1.1514
 9429TIP3    H249779   3.750   2.505   5.641 -0.9352  0.2858  0.2670
 9430TIP3   OH249780   4.698   6.414   0.687  0.0210  0.2814  0.3208
 9430TIP3    H149781   4.664   6.416   0.598 -1.5620  2.2255  0.8928
 9430TIP3    H249782   4.621   6.402   0.742  0.7458  0.8992  1.5084
 9431TIP3   OH249783   1.469   1.194  13.194  0.1242  0.0183  0.7457
 9431TIP3    H149784   1.514   1.124  13.243 -2.0467 -0.7869  1.7270
 9431TIP3    H249785   1.474   1.166  13.103 -0.7221 -1.4918  1.1192
 9432TIP3   OH249786   1.820   1.388   5.749  0.5919 -0.0434 -0.7967
 9432TIP3    H149787   1.786   1.360   5.665 -0.1760 -0.4034 -0.3783
 9432TIP3    H249788   1.761   1.458   5.776 -0.8778 -1.7321  0.6714
 9433TIP3   OH249789   0.483   0.777   2.917  0.2790  0.0243 -0.3357
 9433TIP3    H149790   0.425   0.758   2.991  1.4592 -0.5917  0.4669
 9433TIP3    H249791   0.441   0.734   2.843 -0.5580  0.0323  0.1118
 9434TIP3   OH249792   1.594   1.692   2.795  0.0080  0.1425  1.0375
 9434TIP3    H149793   1.568   1.713   2.885  0.8313  0.9069  1.1112
 9434TIP3    H249794   1.512   1.669   2.751 -0.4056 -0.2432  1.9789
 9435TIP3   OH249795   3.694   2.777   4.294 -0.1241 -0.5107 -0.0139
 9435TIP3    H149796   3.762   2.795   4.229 -0.1642  1.5244  0.4512
 9435TIP3    H249797   3.649   2.860   4.305 -4.2494 -2.1796 -1.9534
 9436TIP3   OH249798   1.679   2.899   4.044 -0.0739  0.2130  0.2186
 9436TIP3    H149799   1.604   2.864   3.997  0.0860 -0.2142  0.2793
 9436TIP3    H249800   1.641   2.954   4.113 -0.3206  0.2776  0.0318
 9437TIP3   OH249801   3.827   6.795   0.532  0.6341 -0.1831  0.3659
 9437TIP3    H149802   3.895   6.736   0.563 -1.6608 -3.3828 -0.1864
 9437TIP3    H249803   3.854   6.817   0.443  1.6088 -0.2587  0.6304
 9438TIP3   OH249804   0.704   1.017  12.597  0.4198 -0.2034  0.3235
 9438TIP3    H149805   0.778   1.061  12.638  0.5851 -1.6430  1.6616
 9438TIP3    H249806   0.682   0.946  12.657 -1.3742 -0.4658 -0.5693
 9439TIP3   OH249807   4.703   6.571   1.662 -0.0183 -0.3866 -0.6077
 9439TIP3    H149808   4.668   6.492   1.620 -0.4310 -0.0399 -0.9201
 9439TIP3    H249809   4.658   6.574   1.747 -0.3609 -0.2226 -0.7955
 9440TIP3   OH249810   5.028   0.924  13.535  0.4622  0.9543 -0.2623
 9440TIP3    H149811   4.951   0.956  13.487  0.4742 -0.8600 -1.5787
 9440TIP3    H249812   4.992   0.890  13.617 -0.1394  0.2467 -0.8096
 9441TIP3   OH249813   5.224   5.347   3.537 -0.3852 -0.4522 -0.4811
 9441TIP3    H149814   5.145   5.295   3.553  0.7522 -2.0914  0.1443
 9441TIP3    H249815   5.262   5.309   3.459 -0.8244  1.1591 -1.5264
 9442TIP3   OH249816   2.403   6.262  14.977  0.6838  0.4084 -0.4700
 9442TIP3    H149817   2.310   6.274  14.998  0.8666  0.2780  0.4601
 9442TIP3    H249818   2.445   6.246  15.062  1.5090  0.1461 -0.9166
 9443TIP3   OH249819   1.557   5.834  15.888 -0.0678  0.1706  0.0410
 9443TIP3    H149820   1.511   5.844  15.805 -1.2029 -0.2275  0.6043
 9443TIP3    H249821   1.603   5.918  15.900 -1.6571  1.0880  0.0561
 9444TIP3   OH249822   5.389   5.032   3.349  0.6735 -0.0181 -0.6392
 9444TIP3    H149823   5.406   4.982   3.270  3.2110  1.4267 -1.1126
 9444TIP3    H249824   5.372   4.965   3.416  0.4979 -1.3420 -1.9475
 9445TIP3   OH249825   4.902   0.264   4.981  0.3733  0.2580  0.1919
 9445TIP3    H149826   4.922   0.353   4.952 -0.6809  0.1633 -0.8987
 9445TIP3    H249827   4.808   0.265   4.999  0.5067 -0.4280  0.9827
 9446TIP3   OH249828   0.178   3.344  12.309  0.7054  0.7338 -0.0021
 9446TIP3    H149829   0.083   3.335  12.319  0.9037  0.1941  1.9539
 9446TIP3    H249830   0.191   3.360  12.216 -1.1522 -1.2792 -0.7054
 9447TIP3   OH249831   2.975   0.585  13.491 -0.1369 -0.2213  0.3909
 9447TIP3    H149832   2.920   0.530  13.434  1.3598 -1.1177 -0.2574
 9447TIP3    H249833   2.926   0.593  13.572 -0.6635 -2.0865  0.2981
 9448TIP3   OH249834   0.399   5.443  11.542 -0.1925 -0.3447  0.2123
 9448TIP3    H149835   0.481   5.468  11.499 -0.3600 -1.4280 -0.7704
 9448TIP3    H249836   0.332   5.496  11.499 -0.0931  0.1379  0.6374
 9449TIP3   OH249837   2.669   3.815  12.507  0.0435  0.0493  0.6714
 9449TIP3    H149838   2.630   3.903  12.501  0.9308  0.4643  0.9307
 9449TIP3    H249839   2.702   3.809  12.596  2.2132  0.4281 -0.0447
 9450TIP3   OH249840   4.464   4.687   4.878  0.0657 -0.1210 -0.7154
 9450TIP3    H149841   4.439   4.634   4.954  0.7817 -1.5393 -1.4173
 9450TIP3    H249842   4.559   4.676   4.871  0.2675  1.4365 -0.7934
 9451TIP3   OH249843   0.195   3.551  15.427 -0.0081  0.8448 -0.3559
 9451TIP3    H149844   0.118   3.606  15.415 -0.3038  0.5130  0.0186
 9451TIP3    H249845   0.227   3.536  15.338 -1.0370  0.0407 -0.6001
 9452TIP3   OH249846   2.238   5.906   5.456  0.0803  0.0976 -0.8291
 9452TIP3    H149847   2.301   5.896   5.528  0.3028 -0.0294 -1.0409
 9452TIP3    H249848   2.249   5.827   5.404  0.1371  0.3331 -1.1773
 9453TIP3   OH249849   4.121   4.243   2.815  0.0724 -0.1191 -0.1482
 9453TIP3    H149850   4.182   4.213   2.748  0.9939  2.0869 -0.3858
 9453TIP3    H249851   4.099   4.333   2.790 -2.1204 -0.3426  0.7658
 9454TIP3   OH249852   0.881   5.409   4.067 -0.3170 -0.3164  0.4149
 9454TIP3    H149853   0.960   5.357   4.081 -0.8927 -0.8521  1.7902
 9454TIP3    H249854   0.849   5.382   3.980  1.1298  0.1025 -0.2747
 9455TIP3   OH249855   2.188   0.542  13.126 -0.5033 -0.5983  0.5795
 9455TIP3    H149856   2.277   0.553  13.159 -0.2513 -0.0067 -0.2856
 9455TIP3    H249857   2.142   0.621  13.153  0.1304  0.6666 -1.7994
 9456TIP3   OH249858   3.257   3.695  11.330  0.2944  0.0608 -0.1021
 9456TIP3    H149859   3.261   3.624  11.393  0.8400  0.0429 -0.1520
 9456TIP3    H249860   3.234   3.652  11.247 -0.2153  0.0577  0.0397
 9457TIP3   OH249861   2.108   1.785  12.410 -0.2709 -0.5968 -0.7310
 9457TIP3    H149862   2.036   1.819  12.464 -0.1925 -1.6556  0.0740
 9457TIP3    H249863   2.114   1.846  12.337 -0.4349  0.8607  0.4132
 9458TIP3   OH249864   1.997   5.407   5.753  0.4377  0.2185  0.5216
 9458TIP3    H149865   2.036   5.492   5.734 -0.1066  0.1408 -1.0909
 9458TIP3    H249866   1.905   5.416   5.728  0.3739 -0.8303  0.3256
 9459TIP3   OH249867   0.814   6.651   0.621  0.1424  0.1385 -0.2064
 9459TIP3    H149868   0.726   6.624   0.648  0.0828  1.4598  1.0431
 9459TIP3    H249869   0.836   6.592   0.549 -1.3136 -0.9448  0.1856
 9460TIP3   OH249870   5.015   4.541   5.571  0.3232  0.2396 -0.1260
 9460TIP3    H149871   4.986   4.617   5.520 -1.4730 -0.7875 -0.7180
 9460TIP3    H249872   5.104   4.563   5.598 -0.2260  2.6779 -0.0254
 9461TIP3   OH249873   2.102   6.184   3.733  0.0987 -0.0366 -0.0502
 9461TIP3    H149874   2.098   6.096   3.695 -0.5871  0.1946 -0.5336
 9461TIP3    H249875   2.025   6.191   3.788  1.4750 -0.6395  2.0749
 9462TIP3   OH249876   2.697   3.184   2.668 -0.5606  0.4014  0.2588
 9462TIP3    H149877   2.766   3.246   2.690 -0.2593  1.4917 -3.1757
 9462TIP3    H249878   2.741   3.098   2.672  1.1433  1.0676 -1.8813
 9463TIP3   OH249879   1.362   0.413   2.935 -0.3730  1.0369 -0.1445
 9463TIP3    H149880   1.339   0.434   3.025  1.7300  0.5640  0.5482
 9463TIP3    H249881   1.432   0.348   2.942  0.6123  1.7970 -2.0710
 9464TIP3   OH249882   3.563   1.047  15.928 -0.1732 -0.4933  0.0978
 9464TIP3    H149883   3.523   0.962  15.907 -0.5130 -0.5264  0.8411
 9464TIP3    H249884   3.606   1.074  15.847  0.3717 -1.6112 -0.0088
 9465TIP3   OH249885   0.406   0.933   4.657  0.1909  0.2657  0.4866
 9465TIP3    H149886   0.370   0.852   4.619  0.0949  0.5754 -0.0897
 9465TIP3    H249887   0.377   1.002   4.598  1.5102  0.5589  0.1479
 9466TIP3   OH249888   5.952   1.927   4.639  0.0216 -0.3726 -0.5108
 9466TIP3    H149889   5.982   1.850   4.591  1.4206 -0.6716  0.7578
 9466TIP3    H249890   6.025   1.989   4.633 -1.0389  0.8430 -1.4274
 9467TIP3   OH249891   2.821   6.486   1.185 -0.2446 -0.4301  0.1090
 9467TIP3    H149892   2.842   6.577   1.162  2.5214 -1.4058 -1.7343
 9467TIP3    H249893   2.838   6.480   1.279 -1.8914  1.2380  0.5765
 9468TIP3   OH249894   1.407   1.117   4.976 -1.1018 -0.2309 -0.0814
 9468TIP3    H149895   1.428   1.168   4.898 -2.6961  0.3059 -0.1806
 9468TIP3    H249896   1.473   1.144   5.041  0.0893 -0.5136 -1.1313
 9469TIP3   OH249897   6.273   0.314   4.141  0.0096 -0.0985 -0.4244
 9469TIP3    H149898   6.219   0.382   4.101  0.0792 -0.2431 -0.7628
 9469TIP3    H249899   6.215   0.239   4.149  0.0206 -0.0980 -0.3276
 9470TIP3   OH249900   2.775   6.365  11.491 -0.3358  0.4103 -0.2332
 9470TIP3    H149901   2.734   6.346  11.576  0.5149  2.8809  0.8282
 9470TIP3    H249902   2.835   6.292  11.477 -0.3745  0.0193  1.3756
 9471TIP3   OH249903   1.971   4.145   2.229 -0.1588 -0.1305  0.1204
 9471TIP3    H149904   2.055   4.101   2.226 -0.2386 -0.2650 -0.2251
 9471TIP3    H249905   1.988   4.233   2.194  0.1415  0.3624  1.4447
 9472TIP3   OH249906   4.813   3.458   5.646 -0.3924  0.5389  0.6136
 9472TIP3    H149907   4.834   3.407   5.725 -2.0099  0.8452  1.2611
 9472TIP3    H249908   4.898   3.469   5.603  0.5918  0.6711  2.4773
 9473TIP3   OH249909   2.775   6.553  14.731  0.3938  0.0607 -0.1199
 9473TIP3    H149910   2.806   6.486  14.792 -3.1004 -0.2989  1.4818
 9473TIP3    H249911   2.706   6.509  14.681  0.0736  1.6646 -1.1336
 9474TIP3   OH249912   2.178   3.571  10.579  0.0797 -0.7912 -0.4828
 9474TIP3    H149913   2.090   3.541  10.600  0.2917 -1.7387 -0.8898
 9474TIP3    H249914   2.166   3.660  10.546 -0.4591 -0.0408  1.6071
 9475TIP3   OH249915   5.119   3.241   3.946  0.0452 -0.0280  0.3296
 9475TIP3    H149916   5.040   3.243   3.999 -0.3497  1.1825 -0.2828
 9475TIP3    H249917   5.191   3.250   4.009 -0.3313 -0.3931  0.8149
 9476TIP3   OH249918   0.168   0.835   5.229  0.5040  0.2029 -0.0125
 9476TIP3    H149919   0.084   0.841   5.276 -0.2434  0.4086 -1.3381
 9476TIP3    H249920   0.195   0.926   5.218  0.3464  0.1868 -0.5513
 9477TIP3   OH249921   5.035   2.436  11.347  0.3802  0.4682  0.1234
 9477TIP3    H149922   5.017   2.408  11.257  0.5307  0.4803  0.0889
 9477TIP3    H249923   5.079   2.361  11.387 -0.3727  0.1649  0.4198
 9478TIP3   OH249924   5.197   4.476   4.620  0.0790  0.0224 -0.0822
 9478TIP3    H149925   5.271   4.517   4.575  2.1694 -2.1543  1.1728
 9478TIP3    H249926   5.234   4.443   4.701 -2.6095 -0.0389  1.2148
 9479TIP3   OH249927   2.294   4.853   0.011  0.6502 -0.6962  0.0016
 9479TIP3    H149928   2.311   4.837   0.104 -0.9514 -0.0435  0.4514
 9479TIP3    H249929   2.295   4.948   0.002 -0.6188 -0.6852 -0.3078
 9480TIP3   OH249930   0.819   5.510  12.960  0.4838 -0.4864 -0.1267
 9480TIP3    H149931   0.792   5.451  13.030 -2.5651  0.6683 -0.1680
 9480TIP3    H249932   0.854   5.587  13.005 -2.6455  0.8001  0.3412
 9481TIP3   OH249933   3.564   1.222  11.698 -0.2537 -0.0268  0.0689
 9481TIP3    H149934   3.651   1.188  11.677 -0.9987 -1.6977 -0.4921
 9481TIP3    H249935   3.523   1.152  11.749 -1.3932  0.5762  0.0031
 9482TIP3   OH249936   1.837   1.403  13.725 -0.5197  0.5583 -0.0718
 9482TIP3    H149937   1.926   1.438  13.720  0.0456 -0.8680 -0.5721
 9482TIP3    H249938   1.822   1.389  13.818  1.1502 -2.3844 -0.1287
 9483TIP3   OH249939   0.833   2.828  12.240  0.0526 -0.2322  0.0189
 9483TIP3    H149940   0.750   2.864  12.273  0.8348 -0.0389  1.9118
 9483TIP3    H249941   0.882   2.904  12.210  0.7226  0.0702  1.7444
 9484TIP3   OH249942   2.072   3.950   4.631 -0.0502  0.4218 -0.0097
 9484TIP3    H149943   2.143   4.012   4.614  1.8102 -1.6747 -0.3275
 9484TIP3    H249944   2.023   3.946   4.549  0.1140  1.0900 -0.1426
 9485TIP3   OH249945   5.056   4.247  16.855  0.0466  0.3102  0.4035
 9485TIP3    H149946   5.023   4.316  16.798  0.4701  1.0275  0.9975
 9485TIP3    H249947   5.135   4.215  16.811 -1.3030 -1.3160 -0.9493
 9486TIP3   OH249948   1.571   0.586   0.489  0.0505 -0.2452 -0.0057
 9486TIP3    H149949   1.589   0.547   0.403  0.4898  0.2533 -0.1435
 9486TIP3    H249950   1.556   0.679   0.471  0.5173 -0.0678  0.5030
 9487TIP3   OH249951   1.495   4.584   5.023 -0.3728  0.0273  0.4331
 9487TIP3    H149952   1.431   4.623   4.963 -0.4863  0.1794  0.6506
 9487TIP3    H249953   1.578   4.627   5.000 -0.4151  0.0793  0.3772
 9488TIP3   OH249954   5.065   3.990   3.570 -0.0359  0.1448 -0.2700
 9488TIP3    H149955   5.057   4.042   3.649  0.7862  3.5487 -2.2090
 9488TIP3    H249956   4.977   3.988   3.533 -0.4090 -1.3990  0.6426
 9489TIP3   OH249957   4.798   1.844  15.280 -0.0808  0.0970  0.2604
 9489TIP3    H149958   4.833   1.754  15.283  1.1554  0.5818  1.3115
 9489TIP3    H249959   4.822   1.875  15.193 -1.5357 -0.9489 -0.5664
 9490TIP3   OH249960   0.735   2.298   1.336 -0.8000 -0.3801  0.4947
 9490TIP3    H149961   0.743   2.358   1.410 -0.9795  2.6357 -1.7667
 9490TIP3    H249962   0.825   2.287   1.305 -0.7823 -1.2583  0.8262
 9491TIP3   OH249963   5.309   4.072  17.121 -0.1421  0.7516  0.4892
 9491TIP3    H149964   5.375   4.117  17.174  1.7144  0.3365 -1.3492
 9491TIP3    H249965   5.349   4.063  17.035 -1.4213 -2.1382  0.0655
 9492TIP3   OH249966   0.148   3.513   0.074 -0.2160  0.2530  0.5869
 9492TIP3    H149967   0.094   3.439   0.045  1.4784 -0.0547 -2.1352
 9492TIP3    H249968   0.104   3.590   0.039 -0.8941  0.3815  1.6819
 9493TIP3   OH249969   0.878   2.882  14.120  0.2398  0.2284 -0.2261
 9493TIP3    H149970   0.830   2.945  14.173  0.6004  0.7239 -0.4838
 9493TIP3    H249971   0.962   2.871  14.164  0.8599  1.2487 -1.0981
 9494TIP3   OH249972   2.711   6.111   0.621  0.1328  0.6003  0.4817
 9494TIP3    H149973   2.748   6.194   0.590  0.0255  0.8217  0.9446
 9494TIP3    H249974   2.662   6.078   0.545  0.5906  0.7056  0.1309
 9495TIP3   OH249975   5.011   2.354  16.870  0.1651 -0.0827  0.0721
 9495TIP3    H149976   4.951   2.342  16.943 -0.4181 -0.2244 -0.4226
 9495TIP3    H249977   5.081   2.410  16.905  1.4326 -2.4578  1.5882
 9496TIP3   OH249978   0.918   2.334   5.492  0.1482  0.3048  0.4803
 9496TIP3    H149979   1.007   2.316   5.522 -0.0745  0.4829  1.2954
 9496TIP3    H249980   0.925   2.419   5.447  0.7006 -0.5090 -1.0294
 9497TIP3   OH249981   4.388   3.877   5.040 -0.0347  0.3520  0.0295
 9497TIP3    H149982   4.364   3.891   4.948  0.1862  1.0218  0.0702
 9497TIP3    H249983   4.457   3.941   5.057 -0.7300  0.8900  0.9341
 9498TIP3   OH249984   2.194   2.458   3.536 -0.3358 -0.3405 -0.1734
 9498TIP3    H149985   2.147   2.379   3.560 -0.0931  0.0736  1.8508
 9498TIP3    H249986   2.286   2.432   3.534 -0.0883  0.1739  2.0809
 9499TIP3   OH249987   6.119   1.440   5.957 -0.9578 -0.1909  0.2283
 9499TIP3    H149988   6.152   1.526   5.929 -0.0747 -0.6092 -0.0666
 9499TIP3    H249989   6.027   1.441   5.933 -1.0046  0.7537  0.4082
 9500TIP3   OH249990   4.935   3.868  10.433  0.6174 -0.1593  0.1879
 9500TIP3    H149991   4.931   3.955  10.394  0.9191 -0.7013 -1.1148
 9500TIP3    H249992   5.028   3.853  10.450  0.5934 -0.3084  0.1972
 9501TIP3   OH249993   3.628   0.897   2.687  0.1644 -0.9317  0.0403
 9501TIP3    H149994   3.613   0.852   2.769 -0.3479 -1.8253 -0.5247
 9501TIP3    H249995   3.541   0.929   2.661  0.5174  0.3906  0.4297
 9502TIP3   OH249996   2.039   1.429   3.309  0.0190 -0.2872  0.8177
 9502TIP3    H149997   1.978   1.356   3.296 -1.3608  0.7499  1.1499
 9502TIP3    H249998   2.118   1.388   3.343 -0.1746 -1.7889 -0.4007
 9503TIP3   OH249999   5.266   5.630   0.345  0.2435 -0.6201 -0.0406
 9503TIP3    H150000   5.285   5.567   0.414  1.4061 -2.0602 -1.5785
 9503TIP3    H250001   5.268   5.578   0.264 -1.4417  0.9088 -1.1533
 9504TIP3   OH250002   0.672   3.301   3.082 -0.2354 -0.2100 -1.0041
 9504TIP3    H150003   0.580   3.323   3.097 -0.0189  1.0411 -1.3858
 9504TIP3    H250004   0.689   3.229   3.142 -0.4441  2.0753  2.0405
 9505TIP3   OH250005   3.440   1.186  10.775  0.5069 -0.3440  0.4240
 9505TIP3    H150006   3.402   1.267  10.741  1.3849 -0.3064 -0.5251
 9505TIP3    H250007   3.369   1.122  10.770  0.0328  0.1659  0.4582
 9506TIP3   OH250008   5.908   3.402   2.178 -0.4390 -0.7382 -0.3011
 9506TIP3    H150009   5.851   3.388   2.253 -0.5895 -2.9798 -0.7812
 9506TIP3    H250010   5.946   3.489   2.193 -1.3963 -0.6167  1.7208
 9507TIP3   OH250011   1.447   4.152   5.357  0.3206  0.2879  0.0967
 9507TIP3    H150012   1.450   4.207   5.279 -0.7472 -2.0452 -1.6872
 9507TIP3    H250013   1.364   4.106   5.351  1.8682 -2.7978  0.5623
 9508TIP3   OH250014   2.157   1.699  13.371  0.0541  0.2509 -0.2860
 9508TIP3    H150015   2.092   1.745  13.319  0.9722  0.1145 -1.6056
 9508TIP3    H250016   2.194   1.766  13.429 -0.0714  0.7060 -0.7311
 9509TIP3   OH250017   4.738   6.269  12.993 -0.0404  0.0233 -0.2125
 9509TIP3    H150018   4.648   6.239  13.006  0.2345 -1.0406 -0.6052
 9509TIP3    H250019   4.734   6.321  12.912 -0.1455 -0.8172 -0.7629
 9510TIP3   OH250020   3.833   1.024  12.270 -0.2968  0.0608 -0.5743
 9510TIP3    H150021   3.789   1.003  12.187  1.0131 -0.3388 -1.2098
 9510TIP3    H250022   3.789   0.969  12.335  0.3879 -1.6719 -1.5060
 9511TIP3   OH250023   3.698   3.407  10.746  0.3986  0.2768  0.0263
 9511TIP3    H150024   3.645   3.424  10.824 -0.6485  0.3286 -0.6805
 9511TIP3    H250025   3.635   3.407  10.674  1.4775  1.1262 -0.9446
 9512TIP3   OH250026   4.486   6.197  17.064  0.2151  0.3497  0.1923
 9512TIP3    H150027   4.416   6.134  17.080  0.1091  0.5024  0.3338
 9512TIP3    H250028   4.442   6.273  17.026  0.7978 -1.1604 -4.1114
 9513TIP3   OH250029   3.310   4.858  11.412 -0.0538  0.3197 -0.2840
 9513TIP3    H150030   3.271   4.927  11.465 -0.8868  0.5649 -1.1902
 9513TIP3    H250031   3.326   4.786  11.473 -0.9077  0.6312  0.3126
 9514TIP3   OH250032   0.081   1.507   5.203 -0.0508  0.5455  0.9194
 9514TIP3    H150033   0.083   1.510   5.107  1.3073 -0.1546  0.9134
 9514TIP3    H250034   0.037   1.425   5.224  0.4612  0.2689  0.8986
 9515TIP3   OH250035   0.876   2.318  11.329 -0.3157  0.7663 -0.0915
 9515TIP3    H150036   0.861   2.282  11.416 -0.5931  3.4308  1.0414
 9515TIP3    H250037   0.789   2.327  11.291 -0.3671  1.5612  0.2058
 9516TIP3   OH250038   2.988   2.724  16.524 -0.1392  0.2145  0.0192
 9516TIP3    H150039   2.948   2.656  16.579  0.3291  0.1409  0.2722
 9516TIP3    H250040   2.986   2.688  16.435 -1.1416  0.4420 -0.0631
 9517TIP3   OH250041   1.773   5.831   5.616 -0.2405 -0.3021  0.2253
 9517TIP3    H150042   1.857   5.845   5.659  0.1439  0.3521 -0.7148
 9517TIP3    H250043   1.763   5.906   5.557 -0.2325 -1.7037 -1.6559
 9518TIP3   OH250044   2.365   6.481   3.421  0.2557 -0.5891  0.9372
 9518TIP3    H150045   2.431   6.416   3.399  0.5868 -0.1058  0.4801
 9518TIP3    H250046   2.281   6.436   3.409  0.4749 -0.8390  0.3077
 9519TIP3   OH250047   6.107   0.985   3.443 -0.1786 -0.6645  0.0407
 9519TIP3    H150048   6.095   0.890   3.433 -1.5694 -0.7908  2.2052
 9519TIP3    H250049   6.049   1.009   3.516 -0.6975  2.0675 -1.1600
 9520TIP3   OH250050   1.711   3.500  11.950  0.1796 -0.0462 -0.1458
 9520TIP3    H150051   1.702   3.405  11.940  0.9633 -0.0808 -0.6040
 9520TIP3    H250052   1.623   3.534  11.934 -0.2086 -0.7305  0.4967
 9521TIP3   OH250053   5.991   1.754  14.268  0.1327  0.3666 -0.1851
 9521TIP3    H150054   5.951   1.788  14.188  0.1845  0.8967  0.0097
 9521TIP3    H250055   6.075   1.801  14.275  1.4545 -1.6669 -1.2983
 9522TIP3   OH250056   2.270   3.740   6.246 -0.2360  0.3445  0.0291
 9522TIP3    H150057   2.307   3.653   6.229  1.6103  1.3414 -1.5671
 9522TIP3    H250058   2.240   3.771   6.160 -0.8308  1.2979  0.5595
 9523TIP3   OH250059   2.162   4.090  16.703 -0.3507  0.1405 -0.2853
 9523TIP3    H150060   2.076   4.115  16.735  0.5075  2.1264  0.6808
 9523TIP3    H250061   2.145   4.038  16.624 -2.4249 -1.0409  0.8757
 9524TIP3   OH250062   0.088   2.811  11.239 -0.0298 -0.5273 -0.0275
 9524TIP3    H150063   0.039   2.750  11.294  0.3865 -0.9391 -0.1026
 9524TIP3    H250064   0.139   2.863  11.301 -0.1163 -0.4970  0.0183
 9525TIP3   OH250065   3.216   0.396   2.793  0.1504  0.3362  0.4340
 9525TIP3    H150066   3.190   0.305   2.779  0.4949 -0.0735  2.2057
 9525TIP3    H250067   3.296   0.406   2.743 -0.4897  0.0211 -0.6978
 9526TIP3   OH250068   4.616   5.960  11.988 -0.3696 -0.1022  0.2782
 9526TIP3    H150069   4.703   5.998  11.999 -0.5308  1.4724 -2.8333
 9526TIP3    H250070   4.560   6.014  12.044  0.5088 -0.7986  1.9067
 9527TIP3   OH250071   4.678   4.916  12.619 -0.6412 -0.2859 -0.1552
 9527TIP3    H150072   4.652   4.931  12.528  0.0568 -0.4122 -0.3839
 9527TIP3    H250073   4.766   4.954  12.625 -0.5780 -0.5122  0.3980
 9528TIP3   OH250074   3.798   0.642  15.780  0.4744  0.1645  0.3225
 9528TIP3    H150075   3.829   0.600  15.699  0.8165 -0.8830  0.9835
 9528TIP3    H250076   3.704   0.621  15.782 -0.1146  2.3244 -1.0618
 9529TIP3   OH250077   4.235   2.773  15.130 -0.1901  0.7693  0.2666
 9529TIP3    H150078   4.330   2.786  15.133 -0.0155 -0.3258 -0.0563
 9529TIP3    H250079   4.199   2.859  15.147  0.8683  1.4045 -0.5815
 9530TIP3   OH250080   4.018   6.756   3.166 -0.6456  0.9816  0.5832
 9530TIP3    H150081   3.934   6.710   3.173 -1.1653  1.8918  0.4151
 9530TIP3    H250082   4.035   6.761   3.072  0.4607 -0.7076  0.6555
 9531TIP3   OH250083   5.292   4.308  11.715 -0.1429  0.3546  0.0139
 9531TIP3    H150084   5.377   4.345  11.739 -0.7187  0.7849  1.5231
 9531TIP3    H250085   5.249   4.377  11.665 -0.8101  1.4167  1.9529
 9532TIP3   OH250086   4.573   5.067   1.255  0.2895  0.0613  0.2235
 9532TIP3    H150087   4.603   4.991   1.305  2.0749  1.4357  1.3243
 9532TIP3    H250088   4.513   5.113   1.314  0.2446  0.2224  0.0549
 9533TIP3   OH250089   1.665   3.311  12.603 -0.2112 -0.9030 -0.3893
 9533TIP3    H150090   1.710   3.303  12.687 -1.3542 -2.8065  0.0760
 9533TIP3    H250091   1.625   3.398  12.606  2.7710  0.6309 -0.5617
 9534TIP3   OH250092   5.563   4.918  15.367 -0.4409  0.2972  0.6507
 9534TIP3    H150093   5.477   4.954  15.346 -0.7141  0.5551  2.1469
 9534TIP3    H250094   5.550   4.870  15.449  0.5738 -0.7088  0.2522
 9535TIP3   OH250095   0.288   5.309  13.003 -0.7186 -0.3973  0.0422
 9535TIP3    H150096   0.200   5.273  13.014  0.7002 -4.3762 -0.0224
 9535TIP3    H250097   0.330   5.294  13.087  0.0282  1.2229 -0.0127
 9536TIP3   OH250098   4.913   1.217  11.821 -0.2553  0.2806  0.3072
 9536TIP3    H150099   4.900   1.304  11.858 -0.7526  0.6299 -0.6373
 9536TIP3    H250100   4.928   1.160  11.896 -0.2337  1.1320  0.9554
 9537TIP3   OH250101   5.270   4.804   3.831  0.0387  0.3718 -0.0135
 9537TIP3    H150102   5.304   4.857   3.903 -0.6092  0.4001  0.2827
 9537TIP3    H250103   5.176   4.798   3.849 -0.3700  1.5151 -1.6034
 9538TIP3   OH250104   3.384   4.202   0.922 -0.2622  0.3932  0.1136
 9538TIP3    H150105   3.476   4.226   0.919 -0.0132 -0.6157 -1.3700
 9538TIP3    H250106   3.341   4.263   0.862 -0.4174  0.2477  0.0765
 9539TIP3   OH250107   3.883   1.451   1.420  0.1849 -0.2908  0.5015
 9539TIP3    H150108   3.977   1.448   1.435  0.1764  1.4633  1.1334
 9539TIP3    H250109   3.873   1.434   1.326  1.2343  0.5811  0.2098
 9540TIP3   OH250110   6.626   0.556   3.325  0.5841 -0.1108 -0.1135
 9540TIP3    H150111   6.698   0.578   3.384 -1.7605 -0.9893  3.3669
 9540TIP3    H250112   6.634   0.462   3.310 -0.2512 -0.3748  0.9846
 9541TIP3   OH250113   3.431   2.587   2.250  0.0643  0.4220 -0.6570
 9541TIP3    H150114   3.378   2.513   2.279  0.1827  1.2055  1.8132
 9541TIP3    H250115   3.372   2.639   2.196 -0.7121 -0.3156 -0.5403
 9542TIP3   OH250116   1.317   0.588   5.668  0.0951 -0.5298  0.2583
 9542TIP3    H150117   1.411   0.587   5.650 -0.0383 -1.7057 -0.4725
 9542TIP3    H250118   1.280   0.526   5.605 -1.1834 -0.0338  0.4962
 9543TIP3   OH250119   4.667   4.829  12.149  0.2646  0.1757 -0.0302
 9543TIP3    H150120   4.744   4.867  12.108  0.5025 -0.6933 -0.4063
 9543TIP3    H250121   4.593   4.865  12.100  0.5532 -1.0335 -1.3971
 9544TIP3   OH250122   2.225   0.576  14.129  0.1472  0.6463 -0.0623
 9544TIP3    H150123   2.207   0.483  14.117  1.1230  0.3751  0.4597
 9544TIP3    H250124   2.195   0.617  14.048 -2.2452  0.1913  0.4954
 9545TIP3   OH250125   5.730   5.394   3.280 -0.2759  0.0990 -0.4292
 9545TIP3    H150126   5.670   5.464   3.304 -1.2106 -0.6417 -0.5512
 9545TIP3    H250127   5.798   5.437   3.228 -1.1524  0.8195 -1.0064
 9546TIP3   OH250128   6.462   0.372   3.173  0.2047 -0.1993 -0.1444
 9546TIP3    H150129   6.407   0.348   3.098  2.3402  0.3982 -1.9967
 9546TIP3    H250130   6.482   0.464   3.160 -0.7748  0.4085  2.1729
 9547TIP3   OH250131   4.972   0.082   5.273 -0.6994  0.5981 -0.6293
 9547TIP3    H150132   5.022   0.073   5.192  0.4360  1.6110 -0.0768
 9547TIP3    H250133   5.009   0.016   5.331 -0.2941  1.0582 -0.3612
 9548TIP3   OH250134   1.148   3.270  14.441  0.1232  0.0209  0.1612
 9548TIP3    H150135   1.214   3.313  14.386 -0.3884  0.1661 -0.3474
 9548TIP3    H250136   1.199   3.227  14.510  0.6590  1.3341  0.6234
 9549TIP3   OH250137   2.310   0.727   3.352 -0.4145 -0.5365  0.2005
 9549TIP3    H150138   2.370   0.790   3.311 -1.0464  1.8101  2.6040
 9549TIP3    H250139   2.365   0.679   3.413 -0.2165 -1.3690 -0.6097
 9550TIP3   OH250140   0.182   0.791   6.589  0.0027 -0.3631  0.0147
 9550TIP3    H150141   0.158   0.719   6.530 -0.9719  0.6126 -0.8445
 9550TIP3    H250142   0.227   0.854   6.532 -0.5616  0.4005  0.3940
 9551TIP3   OH250143   6.399   0.786   4.546  0.1539 -0.1932  0.3132
 9551TIP3    H150144   6.452   0.707   4.555 -0.3106 -0.4383  0.9417
 9551TIP3    H250145   6.330   0.777   4.612 -1.3715 -0.4314 -1.2465
 9552TIP3   OH250146   5.149   6.592   0.187 -0.0975  0.5497 -0.1270
 9552TIP3    H150147   5.136   6.548   0.103 -0.2764  1.6397 -0.6878
 9552TIP3    H250148   5.243   6.587   0.202  0.0947  1.3450 -0.9713
 9553TIP3   OH250149   5.681   3.235   3.146 -0.2633  0.2068 -0.3429
 9553TIP3    H150150   5.747   3.170   3.166 -0.6588 -0.3611 -0.8548
 9553TIP3    H250151   5.599   3.198   3.179 -0.1948  1.3491  1.2106
 9554TIP3   OH250152   3.330   4.955   1.942  0.4114 -0.7945 -0.2720
 9554TIP3    H150153   3.366   5.044   1.947 -0.4131 -0.4755  0.1667
 9554TIP3    H250154   3.264   4.960   1.873  0.3935 -1.0800 -0.2737
 9555TIP3   OH250155   6.799   0.986  14.745 -0.3531  0.8322  0.4091
 9555TIP3    H150156   6.720   1.037  14.765 -1.9124 -1.6285  0.9652
 9555TIP3    H250157   6.845   0.979  14.829 -1.5255 -0.8189  0.9584
 9556TIP3   OH250158   6.155   0.296   5.586 -0.4708 -0.4184 -0.2254
 9556TIP3    H150159   6.136   0.384   5.552  1.3987  0.0811 -0.0636
 9556TIP3    H250160   6.209   0.255   5.519 -2.3919 -2.0024 -0.9139
 9557TIP3   OH250161   4.133   6.776  16.446 -0.0538  0.0601 -0.3799
 9557TIP3    H150162   4.130   6.800  16.539 -1.8559  1.2852 -0.7002
 9557TIP3    H250163   4.143   6.681  16.447 -1.4458 -0.1237  1.1376
 9558TIP3   OH250164   4.265   5.247   2.313  0.8150 -0.3019 -0.3898
 9558TIP3    H150165   4.282   5.214   2.401 -0.6070 -1.9449 -0.6892
 9558TIP3    H250166   4.170   5.242   2.303  0.9279  0.0849 -1.9478
 9559TIP3   OH250167   3.906   5.542   3.021  0.2789 -0.0174  0.2054
 9559TIP3    H150168   3.845   5.490   3.073  0.3431 -1.1168 -0.7682
 9559TIP3    H250169   3.904   5.501   2.934  1.2384  0.8830 -0.2594
 9560TIP3   OH250170   2.173   0.346  10.439 -0.7905  0.2011 -0.5684
 9560TIP3    H150171   2.190   0.441  10.437 -1.7807  0.3700 -1.1069
 9560TIP3    H250172   2.252   0.310  10.480  0.6077  1.0281 -2.3666
 9561TIP3   OH250173   4.249   4.073   2.655 -0.3006 -0.0107  0.3039
 9561TIP3    H150174   4.322   4.048   2.711 -0.7400  2.1320  1.9665
 9561TIP3    H250175   4.182   4.007   2.672 -0.2066  0.2649  1.8866
 9562TIP3   OH250176   4.954   3.153  12.607 -0.6434 -0.1125 -0.3513
 9562TIP3    H150177   4.910   3.130  12.689 -0.2041  0.3017  0.0009
 9562TIP3    H250178   5.003   3.073  12.584 -2.5158 -1.0281 -1.4014
 9563TIP3   OH250179   4.689   4.336  16.107 -0.1916  0.6315  0.1184
 9563TIP3    H150180   4.709   4.405  16.045  2.2498  0.1759  0.3018
 9563TIP3    H250181   4.628   4.279  16.060 -0.5934  1.7641 -0.7949
 9564TIP3   OH250182   4.513   2.738  14.020 -0.0031 -0.1046 -0.0334
 9564TIP3    H150183   4.523   2.644  14.007  1.8710  0.2110 -1.2907
 9564TIP3    H250184   4.441   2.763  13.963  0.1247 -0.6405 -0.4356
 9565TIP3   OH250185   3.868   4.258   0.455  0.8383  0.0079 -0.6076
 9565TIP3    H150186   3.814   4.335   0.477  1.4709  0.5984 -1.0721
 9565TIP3    H250187   3.817   4.211   0.389 -0.1443 -0.6826  0.6030
 9566TIP3   OH250188   5.271   5.018  13.144  0.1465  0.3067  0.2065
 9566TIP3    H150189   5.360   5.055  13.150  1.0953 -2.0373  2.8111
 9566TIP3    H250190   5.214   5.087  13.177  1.4926  0.5904  2.0710
 9567TIP3   OH250191   0.856   5.790  15.685  0.7296 -0.2353 -0.9954
 9567TIP3    H150192   0.870   5.719  15.747 -2.0354 -1.3348 -1.4748
 9567TIP3    H250193   0.862   5.870  15.738 -0.0383 -1.0664  0.4221
 9568TIP3   OH250194   4.674   5.679  15.550  0.5186  0.0056 -0.6264
 9568TIP3    H150195   4.713   5.592  15.539  0.6207  0.2713 -2.6628
 9568TIP3    H250196   4.648   5.706  15.462 -2.3151  0.7808  0.3091
 9569TIP3   OH250197   0.190   4.227   2.268  0.0572  0.0649  0.3087
 9569TIP3    H150198   0.234   4.204   2.186  1.2186 -1.8772  1.4062
 9569TIP3    H250199   0.136   4.304   2.246  1.9193  0.8729 -1.7467
 9570TIP3   OH250200   6.326   5.810  15.201  0.0769 -0.3070 -0.1303
 9570TIP3    H150201   6.253   5.847  15.152  0.8008  0.4852 -0.6413
 9570TIP3    H250202   6.286   5.775  15.281 -1.0207 -1.0338 -0.9725
 9571TIP3   OH250203   0.620   5.617  17.155 -0.7671 -0.2774 -0.4628
 9571TIP3    H150204   0.667   5.602  17.237 -0.2846 -1.1795 -0.8817
 9571TIP3    H250205   0.534   5.578  17.169 -1.0290  0.4496 -0.0474
 9572TIP3   OH250206   0.204   4.783   0.909  0.1062 -0.0040 -0.5810
 9572TIP3    H150207   0.272   4.765   0.845  0.4865  1.2924 -0.5578
 9572TIP3    H250208   0.238   4.856   0.961 -0.3898 -0.7120  0.8025
 9573TIP3   OH250209   2.499   4.852  12.588  0.0461  0.5195  0.1975
 9573TIP3    H150210   2.482   4.888  12.675 -0.5088 -0.7994  0.6516
 9573TIP3    H250211   2.548   4.771  12.604  2.0971  1.4651 -0.8496
 9574TIP3   OH250212   5.712   4.468  16.475 -0.2986  0.2720  0.3431
 9574TIP3    H150213   5.625   4.499  16.451  0.5878  3.3689  0.7103
 9574TIP3    H250214   5.766   4.546  16.476  1.8325 -1.0418  3.1455
 9575TIP3   OH250215   3.544   4.983   2.945 -0.3866  0.3237 -0.5639
 9575TIP3    H150216   3.456   4.978   2.907  0.1373 -1.3834 -1.6913
 9575TIP3    H250217   3.597   5.026   2.877 -0.2457  1.0053 -0.0416
 9576TIP3   OH250218   0.429   2.396   2.349  0.2058 -0.2325  0.2270
 9576TIP3    H150219   0.343   2.412   2.389 -0.4816  0.9931 -1.6171
 9576TIP3    H250220   0.418   2.314   2.301  0.2189 -0.3151  0.3633
 9577TIP3   OH250221   2.241   0.393   5.978  0.2608  0.2473  0.3871
 9577TIP3    H150222   2.164   0.449   5.986  0.0725  0.0372  0.0501
 9577TIP3    H250223   2.268   0.378   6.069 -0.1545  0.2398  0.5146
 9578TIP3   OH250224   5.823   5.876  13.546  0.3822  0.4733  0.1901
 9578TIP3    H150225   5.840   5.836  13.460 -0.2267  0.1965  0.1898
 9578TIP3    H250226   5.744   5.832  13.577 -1.0083  2.4786 -0.3111
 9579TIP3   OH250227   3.238   1.900   4.787  0.5587 -0.1275 -0.3517
 9579TIP3    H150228   3.309   1.836   4.796  1.4809  0.9751  0.5709
 9579TIP3    H250229   3.180   1.881   4.861  0.8878  0.1784 -0.0165
 9580TIP3   OH250230   1.723   3.422   5.144 -0.6449  0.3733  0.4847
 9580TIP3    H150231   1.708   3.450   5.053  0.2656  1.8621  0.7559
 9580TIP3    H250232   1.650   3.363   5.163 -1.1790  0.4929 -1.0192
 9581TIP3   OH250233   4.497   0.397   3.845 -0.2179  0.2693  0.9981
 9581TIP3    H150234   4.574   0.443   3.880 -0.1021  1.0136 -0.2087
 9581TIP3    H250235   4.446   0.464   3.801 -0.8843 -0.4758  0.6121
 9582TIP3   OH250236   4.562   5.985  11.201  0.7574 -0.3240  0.2771
 9582TIP3    H150237   4.581   6.076  11.177  0.6103 -0.0580  1.1508
 9582TIP3    H250238   4.516   5.950  11.125 -3.7564  1.8149  1.6501
 9583TIP3   OH250239   1.639   5.862  14.004  0.1323 -0.4069  0.1031
 9583TIP3    H150240   1.554   5.904  14.020  0.8291  0.6213  1.1682
 9583TIP3    H250241   1.620   5.768  14.011 -0.5098 -0.1534  2.6127
 9584TIP3   OH250242   2.375   0.909  15.878  0.0646  0.3312  0.1166
 9584TIP3    H150243   2.400   0.951  15.961  0.7382  0.4584 -0.1474
 9584TIP3    H250244   2.279   0.916  15.876 -0.0142 -0.2250  1.1729
 9585TIP3   OH250245   0.501   3.763   4.549 -0.0802  0.1998  0.5322
 9585TIP3    H150246   0.513   3.674   4.580 -1.8891 -0.4282 -0.4070
 9585TIP3    H250247   0.568   3.775   4.481  0.4685 -0.2665  0.9916
 9586TIP3   OH250248   4.491   4.356  13.646  0.4040  0.4630  0.0145
 9586TIP3    H150249   4.581   4.322  13.651  0.1661 -0.8502 -2.5823
 9586TIP3    H250250   4.488   4.400  13.561 -1.1021  1.5164  0.5831
 9587TIP3   OH250251   4.197   0.565  14.882 -0.5322  0.4065  0.1102
 9587TIP3    H150252   4.262   0.589  14.947  0.4425 -0.7463 -0.4026
 9587TIP3    H250253   4.197   0.469  14.882 -0.6888  0.3853 -1.4070
 9588TIP3   OH250254   4.803   1.554   3.750 -0.3942  0.1187  0.2141
 9588TIP3    H150255   4.872   1.615   3.725 -0.9628  0.8497  0.4117
 9588TIP3    H250256   4.741   1.606   3.800  0.0542 -1.0259  2.0373
 9589TIP3   OH250257   2.202   2.146  16.195 -0.4036  0.1540  0.0616
 9589TIP3    H150258   2.152   2.167  16.116 -0.4862 -2.4957 -0.6968
 9589TIP3    H250259   2.136   2.117  16.258 -0.1264 -0.1413  0.2197
 9590TIP3   OH250260   6.608   0.704  11.520 -0.2506  0.3426 -0.3036
 9590TIP3    H150261   6.553   0.752  11.458 -2.3350 -0.5806  0.7275
 9590TIP3    H250262   6.697   0.717  11.488 -1.2216 -0.5456 -3.8233
 9591TIP3   OH250263   6.388   2.463   5.578 -0.1009  0.5312  0.1252
 9591TIP3    H150264   6.436   2.408   5.640  1.1814  1.3618 -0.0763
 9591TIP3    H250265   6.399   2.419   5.494  0.4143  0.7623  0.0652
 9592TIP3   OH250266   0.442   0.203   0.190  0.0325  0.3043 -0.7820
 9592TIP3    H150267   0.368   0.203   0.130 -1.0336 -0.7108  0.4601
 9592TIP3    H250268   0.471   0.112   0.192 -0.3722  0.1777  0.6935
 9593TIP3   OH250269   2.439   0.663   3.755  0.4967  0.1616  0.2013
 9593TIP3    H150270   2.412   0.626   3.672  0.8720  1.0667 -0.3414
 9593TIP3    H250271   2.535   0.654   3.755  0.5246  0.4510  0.3895
 9594TIP3   OH250272   1.699   0.579  13.592 -0.0436 -0.4984  0.2688
 9594TIP3    H150273   1.617   0.597  13.546 -1.0267 -1.0173  1.7581
 9594TIP3    H250274   1.732   0.665  13.616 -1.4322 -0.3290  1.7610
 9595TIP3   OH250275   1.400   2.038   0.032  0.2812  0.4868  0.0040
 9595TIP3    H150276   1.314   2.011   0.062 -0.8490  1.1740 -2.3653
 9595TIP3    H250277   1.393   2.133   0.019  1.5184  0.6193  0.1229
 9596TIP3   OH250278   1.595   5.277   4.898  0.3453  0.5588  0.3428
 9596TIP3    H150279   1.634   5.231   4.972  0.5927  0.0069 -0.1299
 9596TIP3    H250280   1.665   5.334   4.866  0.0346  1.2983  0.9377
 9597TIP3   OH250281   2.922   6.218  11.915  0.4447 -0.5325 -0.6140
 9597TIP3    H150282   2.886   6.288  11.861 -0.8828  1.1469  2.2336
 9597TIP3    H250283   2.890   6.137  11.876 -4.4783  0.7414  0.1773
 9598TIP3   OH250284   4.618   2.544   1.848  0.2773  0.0939  0.0696
 9598TIP3    H150285   4.556   2.573   1.915 -0.8274  0.7795 -1.2014
 9598TIP3    H250286   4.573   2.472   1.804  1.5515 -1.2448  0.9125
 9599TIP3   OH250287   2.398   1.050   2.698 -0.2031  0.1752 -0.4882
 9599TIP3    H150288   2.440   1.098   2.769 -0.6762 -0.2998  0.1245
 9599TIP3    H250289   2.352   1.117   2.647 -0.9820  0.3785  0.4479
 9600TIP3   OH250290   2.816   1.979  15.368 -0.1012  0.4367 -0.2521
 9600TIP3    H150291   2.829   1.984  15.463 -0.0171  1.1912 -0.2980
 9600TIP3    H250292   2.842   2.065  15.336 -0.2976  0.2414 -0.9422
 9601TIP3   OH250293   1.952   6.469  16.439  0.0435 -0.0755 -0.3705
 9601TIP3    H150294   1.870   6.444  16.481  0.4283  1.5027  1.4596
 9601TIP3    H250295   1.940   6.445  16.347 -1.3013 -2.5538  0.3575
 9602TIP3   OH250296   2.788   1.505  11.205 -0.7866 -0.2200  0.3228
 9602TIP3    H150297   2.861   1.537  11.258 -1.1799  0.6269  0.3752
 9602TIP3    H250298   2.732   1.459  11.268 -0.0427 -1.3347  0.1839
 9603TIP3   OH250299   3.081   0.780  11.138  0.1112 -0.2897 -0.0456
 9603TIP3    H150300   3.122   0.847  11.082  1.8016 -0.6109  0.7312
 9603TIP3    H250301   3.090   0.699  11.087 -1.1970 -0.0842 -0.6329
 9604TIP3   OH250302   5.947   2.515   0.132  0.2072  0.4764  0.3237
 9604TIP3    H150303   5.960   2.421   0.145 -1.2482  0.4709  2.1064
 9604TIP3    H250304   5.934   2.525   0.038  0.1243 -1.1473  0.1422
 9605TIP3   OH250305   4.758   2.975  13.318 -0.5242 -0.1670 -0.1209
 9605TIP3    H150306   4.802   2.991  13.234 -0.0645 -0.5946  0.0350
 9605TIP3    H250307   4.758   2.880  13.327  2.0115 -0.0873  1.6959
 9606TIP3   OH250308   1.499   5.428  14.137 -0.3541 -0.0959 -0.6997
 9606TIP3    H150309   1.408   5.419  14.164  0.2901  0.4470  1.9341
 9606TIP3    H250310   1.499   5.405  14.044 -3.0364 -0.8001 -0.6032
 9607TIP3   OH250311   3.998   2.659  10.741 -0.1575 -0.1190 -0.4657
 9607TIP3    H150312   4.080   2.692  10.705 -0.9889  1.7195 -0.7622
 9607TIP3    H250313   3.951   2.624  10.664 -0.8631  1.5179 -0.8227
 9608TIP3   OH250314   4.658   3.301   4.546  0.9196 -0.4142  0.2289
 9608TIP3    H150315   4.591   3.312   4.613  1.2645 -1.9768  0.8634
 9608TIP3    H250316   4.712   3.229   4.577  2.1279 -0.0345 -0.9038
 9609TIP3   OH250317   2.289   2.978   5.633 -0.2080  0.1693 -0.0379
 9609TIP3    H150318   2.241   3.043   5.582 -0.5466  0.6319  0.8510
 9609TIP3    H250319   2.380   2.988   5.604 -0.3871  0.4506 -0.5163
 9610TIP3   OH250320   0.017   4.728   3.436  0.2351 -0.3885 -0.5468
 9610TIP3    H150321   0.112   4.732   3.449  0.1346 -0.0691  0.1385
 9610TIP3    H250322   0.005   4.660   3.369  0.9698 -0.0991 -0.9846
 9611TIP3   OH250323   5.893   3.704  15.971 -0.2675  0.0874 -0.6180
 9611TIP3    H150324   5.831   3.633  15.956 -0.0074 -0.3475  0.2678
 9611TIP3    H250325   5.953   3.669  16.038  0.4294  0.7960 -0.8598
 9612TIP3   OH250326   6.360   1.748   1.816  0.0843  0.0114  0.0902
 9612TIP3    H150327   6.386   1.668   1.862 -0.0838  0.1834  0.4845
 9612TIP3    H250328   6.391   1.819   1.872  0.8755  0.2379 -0.6042
 9613TIP3   OH250329   3.749   4.724   3.305 -0.1014  0.5004  0.2240
 9613TIP3    H150330   3.756   4.785   3.233 -0.4954  0.0740 -0.1785
 9613TIP3    H250331   3.660   4.689   3.300  0.7840 -1.7849 -0.9438
 9614TIP3   OH250332   4.655   0.276   0.584 -0.1633 -0.3825  0.2166
 9614TIP3    H150333   4.694   0.197   0.623 -0.1497 -0.4812  0.0038
 9614TIP3    H250334   4.731   0.326   0.553 -0.2234 -0.8225 -0.6761
 9615TIP3   OH250335   4.945   0.412  15.871 -0.2141 -0.3538 -0.1653
 9615TIP3    H150336   4.885   0.392  15.799  0.1099  0.0789 -0.5657
 9615TIP3    H250337   5.006   0.339  15.872 -0.7184 -0.7776  0.2197
 9616TIP3   OH250338   0.092   0.550  15.547  0.0878  0.3383 -0.0815
 9616TIP3    H150339   0.058   0.606  15.478 -1.0540  0.9484  0.9400
 9616TIP3    H250340   0.029   0.478  15.552  1.9764 -1.5845 -1.9576
 9617TIP3   OH250341   3.921   2.807   5.905 -0.0849  0.5411 -0.1776
 9617TIP3    H150342   3.864   2.861   5.958 -0.4153  0.0531 -0.0257
 9617TIP3    H250343   3.877   2.722   5.901  0.5150  0.2225 -0.2458
 9618TIP3   OH250344   3.974   5.603   5.644  0.4584 -0.0491  0.0403
 9618TIP3    H150345   3.909   5.567   5.704  0.0544  1.5876  0.6381
 9618TIP3    H250346   3.939   5.584   5.556 -1.0927  1.1731  0.3412
 9619TIP3   OH250347   0.143   2.185  16.067 -0.5523 -0.8958  0.3827
 9619TIP3    H150348   0.203   2.220  16.132 -0.7539  0.6075 -0.2025
 9619TIP3    H250349   0.071   2.147  16.119 -1.1821  1.1075  1.0810
 9620TIP3   OH250350   4.388   0.313   3.196 -0.5330  0.3110 -0.1339
 9620TIP3    H150351   4.323   0.348   3.135 -0.1847 -0.4241 -0.9428
 9620TIP3    H250352   4.339   0.248   3.247 -0.6100  0.2969 -0.2261
 9621TIP3   OH250353   6.102   3.451   0.249 -0.7643 -0.4700 -0.2957
 9621TIP3    H150354   6.014   3.470   0.281 -1.1988 -1.4113 -0.8697
 9621TIP3    H250355   6.156   3.523   0.281 -1.7913  0.2509 -0.1422
 9622TIP3   OH250356   1.328   5.760   2.746  0.1260  0.5925  0.2332
 9622TIP3    H150357   1.325   5.672   2.708  0.4242  0.4420  0.5529
 9622TIP3    H250358   1.315   5.819   2.672  1.7578  0.3476 -0.2904
 9623TIP3   OH250359   6.133   6.671  16.326  0.3970  1.0105  0.2202
 9623TIP3    H150360   6.195   6.650  16.396 -0.0300 -0.5490  0.1695
 9623TIP3    H250361   6.176   6.641  16.246 -1.2297 -2.1863  0.3960
 9624TIP3   OH250362   2.181   5.736   2.979 -0.1288  0.0006 -0.0204
 9624TIP3    H150363   2.175   5.675   2.906  0.9866 -0.1869  0.0182
 9624TIP3    H250364   2.091   5.755   3.004 -0.4905 -2.0612  0.3455
 9625TIP3   OH250365   2.559   3.053  12.720  0.0984  0.3394 -0.4603
 9625TIP3    H150366   2.624   2.996  12.763 -0.8351 -1.7077 -1.6054
 9625TIP3    H250367   2.609   3.129  12.692  1.7074 -0.4948 -0.0212
 9626TIP3   OH250368   0.891   6.386  10.696 -0.0226  0.3746 -0.2600
 9626TIP3    H150369   0.914   6.422  10.781  0.5798 -0.7889  0.0987
 9626TIP3    H250370   0.862   6.461  10.644  1.9086  1.4938  0.1863
 9627TIP3   OH250371   4.186   2.710   1.737 -0.2957  0.0059 -0.5781
 9627TIP3    H150372   4.145   2.793   1.710 -0.2056 -0.3509 -1.8718
 9627TIP3    H250373   4.261   2.701   1.678 -1.0810 -1.6642 -1.3843
 9628TIP3   OH250374   4.210   1.168   2.175 -0.0274  0.0194 -0.5673
 9628TIP3    H150375   4.293   1.206   2.147 -0.4533  1.1608 -0.3130
 9628TIP3    H250376   4.230   1.124   2.258  0.2330  0.6739 -0.2805
 9629TIP3   OH250377   6.323   5.448   0.790 -0.4230  0.1844 -0.4620
 9629TIP3    H150378   6.235   5.486   0.789 -0.3379  0.4119 -2.1737
 9629TIP3    H250379   6.367   5.493   0.862 -1.5854  0.3397  0.1743
 9630TIP3   OH250380   6.325   1.882  15.275  0.3726  0.4125  0.6327
 9630TIP3    H150381   6.374   1.948  15.324 -0.9077  1.6685  0.2893
 9630TIP3    H250382   6.241   1.923  15.256  0.7924  0.0434 -2.6587
 9631TIP3   OH250383   5.930   2.956   4.848 -0.3723  0.3125  0.4918
 9631TIP3    H150384   5.881   2.991   4.774 -0.8966 -0.2772  0.5549
 9631TIP3    H250385   6.001   2.905   4.808 -1.6587 -1.4379  0.3535
 9632TIP3   OH250386   3.225   3.698   4.602  0.3031  0.0565 -0.5392
 9632TIP3    H150387   3.253   3.737   4.684 -0.5156  0.5474 -0.4894
 9632TIP3    H250388   3.264   3.610   4.603  0.8383  0.2940  0.0654
 9633TIP3   OH250389   5.309   5.634  16.228 -0.5346  0.6556 -0.3508
 9633TIP3    H150390   5.235   5.594  16.274  0.7939 -1.1561  0.2990
 9633TIP3    H250391   5.269   5.673  16.150 -1.9336 -2.3676 -1.3094
 9634TIP3   OH250392   4.209   3.318  14.053  0.2455 -0.5486 -0.6784
 9634TIP3    H150393   4.131   3.288  14.099  1.3918  0.3525  2.0955
 9634TIP3    H250394   4.236   3.397  14.100  2.7009 -0.7055 -1.6454
 9635TIP3   OH250395   4.473   2.382   4.474  0.4604  0.4729  0.2803
 9635TIP3    H150396   4.527   2.373   4.552 -0.1039 -0.9307  0.5352
 9635TIP3    H250397   4.533   2.416   4.408  1.1228  0.9851  1.1298
 9636TIP3   OH250398   0.299   1.053  16.928  0.3208 -0.3270  0.2003
 9636TIP3    H150399   0.341   0.977  16.889 -0.2902 -0.4190 -0.2853
 9636TIP3    H250400   0.318   1.125  16.868 -0.4356 -0.4239 -0.1614
 9637TIP3   OH250401   4.811   5.031  12.039  0.4779 -0.3275 -0.2621
 9637TIP3    H150402   4.853   5.112  12.069 -0.4972 -0.3772  1.3887
 9637TIP3    H250403   4.878   4.986  11.988  0.9654  1.6390 -1.4554
 9638TIP3   OH250404   0.570   5.046  12.526  0.2383  0.3684 -0.2450
 9638TIP3    H150405   0.492   5.101  12.533  1.1617  1.5819  1.0840
 9638TIP3    H250406   0.641   5.108  12.510  1.5466 -0.1660  2.7723
 9639TIP3   OH250407   2.626   3.483   3.758 -0.3582 -0.2277 -0.2261
 9639TIP3    H150408   2.592   3.551   3.816  0.7992 -0.0978  0.3276
 9639TIP3    H250409   2.578   3.404   3.783 -0.1721 -0.0817  0.6248
 9640TIP3   OH250410   1.047   2.348  12.210  0.0663  0.2706 -0.5981
 9640TIP3    H150411   1.131   2.357  12.165 -0.0081 -0.7361 -0.9714
 9640TIP3    H250412   1.015   2.437  12.220  0.7119  0.5935 -1.3471
 9641TIP3   OH250413   3.275   0.646  15.623  0.2572  0.5545 -0.3530
 9641TIP3    H150414   3.273   0.676  15.532  0.9583  0.1917 -0.4888
 9641TIP3    H250415   3.256   0.725  15.674  0.4620  0.8887 -0.7864
 9642TIP3   OH250416   1.773   0.703   5.229  0.6635 -0.3040 -0.5384
 9642TIP3    H150417   1.776   0.776   5.168  0.4627 -0.2741 -0.5151
 9642TIP3    H250418   1.862   0.695   5.263  0.8460 -0.5120 -1.0564
 9643TIP3   OH250419   6.089   5.217  11.503 -0.6476  0.1210  0.8388
 9643TIP3    H150420   6.073   5.173  11.419  0.4236  1.7162 -0.2605
 9643TIP3    H250421   6.013   5.195  11.556 -2.2116  0.4145 -1.1450
 9644TIP3   OH250422   2.328   2.985   0.152  0.0549 -0.4517 -0.0527
 9644TIP3    H150423   2.309   3.044   0.225 -2.1413  0.9560 -1.6361
 9644TIP3    H250424   2.395   3.031   0.101 -0.2646 -0.2226 -0.2681
 9645TIP3   OH250425   5.399   0.985  15.830 -0.2419 -0.0775  0.0702
 9645TIP3    H150426   5.405   0.951  15.920  0.8812  0.6157  0.2820
 9645TIP3    H250427   5.318   1.036  15.830 -0.4890 -0.4550  0.5575
 9646TIP3   OH250428   5.388   2.668  12.681 -0.0446  0.5195 -0.3680
 9646TIP3    H150429   5.367   2.633  12.595 -0.8849  1.2547 -0.4676
 9646TIP3    H250430   5.304   2.685  12.723  0.3286 -0.7815  1.0138
 9647TIP3   OH250431   1.147   0.450  16.746  0.3071 -0.0672 -0.1129
 9647TIP3    H150432   1.198   0.393  16.804  1.1633 -0.2350 -1.0114
 9647TIP3    H250433   1.067   0.469  16.796  0.6408 -0.8953  0.7723
 9648TIP3   OH250434   0.852   6.539  12.873  0.1282  0.2312 -0.4101
 9648TIP3    H150435   0.867   6.620  12.922  0.2235  0.2813 -0.5222
 9648TIP3    H250436   0.931   6.487  12.887 -0.5766 -0.5448  1.0073
 9649TIP3   OH250437   1.208   2.193  16.463  0.2626  0.2319 -0.4418
 9649TIP3    H150438   1.241   2.159  16.546 -0.1155  0.0294 -0.3742
 9649TIP3    H250439   1.242   2.133  16.397  2.7856  1.8281 -0.7513
 9650TIP3   OH250440   6.125   3.347  13.334  0.0781  0.1308  0.7874
 9650TIP3    H150441   6.118   3.439  13.306 -1.6040 -0.2291 -0.1150
 9650TIP3    H250442   6.130   3.298  13.252  0.5815 -0.6119  1.2578
 9651TIP3   OH250443   6.426   5.336   2.942  0.5517  0.1024  0.0415
 9651TIP3    H150444   6.400   5.417   2.898 -0.6029 -0.7111 -0.8597
 9651TIP3    H250445   6.514   5.319   2.909  0.7383  0.8998  0.1062
 9652TIP3   OH250446   0.218   5.979   0.421 -0.2193  0.2306  0.8247
 9652TIP3    H150447   0.214   6.072   0.398  0.4816  0.1224  0.2201
 9652TIP3    H250448   0.129   5.957   0.449 -0.3321  1.1460  1.2377
 9653TIP3   OH250449   2.338   3.830  11.354  0.7594 -0.4413 -0.1587
 9653TIP3    H150450   2.395   3.778  11.410 -0.6074 -0.9577  0.8322
 9653TIP3    H250451   2.341   3.918  11.391  1.3320 -0.3428 -0.4426
 9654TIP3   OH250452   6.114   1.226   4.424  0.2687 -1.3437  0.0870
 9654TIP3    H150453   6.198   1.241   4.381 -0.7344  0.9698 -1.2491
 9654TIP3    H250454   6.113   1.288   4.497 -1.0472  0.1838 -1.1544
 9655TIP3   OH250455   3.390   4.031   3.259  0.0264 -0.1262 -0.0472
 9655TIP3    H150456   3.315   3.987   3.299  0.4072 -1.0916 -0.3512
 9655TIP3    H250457   3.371   4.124   3.267 -1.6889 -0.3569 -1.0131
 9656TIP3   OH250458   6.152   3.263   0.807  0.2118  0.1100 -0.0414
 9656TIP3    H150459   6.123   3.267   0.899 -1.6087  1.3529 -0.6007
 9656TIP3    H250460   6.076   3.229   0.760  0.9748 -0.0886 -1.1640
 9657TIP3   OH250461   4.107   0.543  13.904  0.3098  0.3494 -0.2617
 9657TIP3    H150462   4.030   0.596  13.927  0.1633 -0.0925  0.2636
 9657TIP3    H250463   4.137   0.507  13.987  0.5512 -0.2054 -0.5911
 9658TIP3   OH250464   6.162   5.559  16.953 -0.0346 -0.0200 -0.1407
 9658TIP3    H150465   6.197   5.638  16.912  0.2168 -0.6866 -1.2459
 9658TIP3    H250466   6.237   5.521  16.999 -0.0983  0.2577  0.1929
 9659TIP3   OH250467   4.104   3.517   1.393 -0.7030 -0.2579  0.4062
 9659TIP3    H150468   4.020   3.478   1.417  0.2707 -1.6207  1.8362
 9659TIP3    H250469   4.102   3.604   1.433 -2.2661  0.5961 -1.4386
 9660TIP3   OH250470   6.006   5.601   4.951 -0.3765 -0.4887 -0.0971
 9660TIP3    H150471   5.997   5.684   4.905  0.3378  0.1995  0.9641
 9660TIP3    H250472   6.034   5.625   5.040 -0.8359 -1.8200  0.4374
 9661TIP3   OH250473   2.801   1.616  15.696  0.3045 -0.0268 -0.3320
 9661TIP3    H150474   2.860   1.552  15.736  0.0210 -0.3489 -0.4312
 9661TIP3    H250475   2.852   1.697  15.694  1.0922 -0.5190 -1.2634
 9662TIP3   OH250476   2.894   0.043  11.159  0.7336 -0.1260 -0.2761
 9662TIP3    H150477   2.834   0.033  11.085  1.2270  0.0352 -0.7007
 9662TIP3    H250478   2.981   0.034  11.121  1.0014  0.2021  0.2487
 9663TIP3   OH250479   5.698   5.262  12.968  0.1444 -0.3847  0.8678
 9663TIP3    H150480   5.793   5.272  12.979  0.5454 -0.0683 -2.1011
 9663TIP3    H250481   5.678   5.314  12.890 -2.3938 -0.9055  1.1106
 9664TIP3   OH250482   5.107   2.560   4.212 -0.0910  0.0136 -0.1701
 9664TIP3    H150483   5.012   2.569   4.203 -0.2835  0.2650  1.7669
 9664TIP3    H250484   5.139   2.650   4.210 -0.1126  0.0622  1.0791
 9665TIP3   OH250485   4.337   4.539   5.052 -0.5100 -0.8483  0.6223
 9665TIP3    H150486   4.245   4.547   5.079 -0.5774 -0.8438  0.3959
 9665TIP3    H250487   4.355   4.445   5.056 -0.7268 -0.9198  0.0202
 9666TIP3   OH250488   0.973   2.862  13.837  0.5460  0.8636  0.7876
 9666TIP3    H150489   0.998   2.922  13.908  0.5538 -0.0104  1.5531
 9666TIP3    H250490   0.915   2.798  13.879  0.4002  0.4345 -0.0404
 9667TIP3   OH250491   5.526   0.403   0.952  0.3451 -0.4709  0.5151
 9667TIP3    H150492   5.462   0.453   1.003  0.0311 -1.7408  1.4093
 9667TIP3    H250493   5.609   0.419   0.998  0.3864 -0.1591  0.3373
 9668TIP3   OH250494   3.710   3.668   2.652  0.1162  0.3035 -0.0101
 9668TIP3    H150495   3.626   3.713   2.653 -0.1048  0.1116  3.4662
 9668TIP3    H250496   3.687   3.575   2.646 -0.3264 -0.0130  3.9896
 9669TIP3   OH250497   4.692   6.282   6.286  0.5364  0.4039 -0.2494
 9669TIP3    H150498   4.782   6.273   6.254  0.1412  2.2431 -2.1033
 9669TIP3    H250499   4.643   6.316   6.211 -1.2037  1.8354  1.4321
 9670TIP3   OH250500   0.607   6.005   4.812 -0.3710 -0.6864 -0.2479
 9670TIP3    H150501   0.684   5.972   4.767  0.5332  2.1429 -1.0140
 9670TIP3    H250502   0.638   6.032   4.898 -0.5138  0.2490 -0.4736
 9671TIP3   OH250503   6.240   5.322  13.842 -0.1484 -0.2027 -0.2258
 9671TIP3    H150504   6.291   5.401  13.822  0.0109  0.0467  1.1259
 9671TIP3    H250505   6.212   5.290  13.756  0.9731  0.5289 -0.8875
 9672TIP3   OH250506   4.767   3.440  15.027 -0.5134  0.0941  0.4168
 9672TIP3    H150507   4.840   3.489  15.066  1.5928 -1.2408 -1.5952
 9672TIP3    H250508   4.689   3.482  15.062  1.1225  4.3017 -0.3749
 9673TIP3   OH250509   0.827   6.395   3.752 -0.0175 -0.5744 -0.3001
 9673TIP3    H150510   0.811   6.458   3.823 -0.1912 -0.9912  0.0351
 9673TIP3    H250511   0.918   6.368   3.764  1.0190  1.7089 -2.1358
 9674TIP3   OH250512   3.453   5.126   5.461 -0.3962 -0.4657  0.2197
 9674TIP3    H150513   3.487   5.215   5.471  1.3074 -0.8265 -1.7603
 9674TIP3    H250514   3.435   5.097   5.551  0.0083  1.4896  0.9789
 9675TIP3   OH250515   2.051   5.159   1.982 -0.0654  0.3879 -0.3149
 9675TIP3    H150516   2.070   5.114   2.064  0.0483  0.0720 -0.5091
 9675TIP3    H250517   2.136   5.195   1.954 -0.4730  2.2771  0.7318
 9676TIP3   OH250518   5.002   3.719   5.094 -0.0929  0.3400  0.3576
 9676TIP3    H150519   5.067   3.698   5.162  1.3928  0.7644 -0.8633
 9676TIP3    H250520   4.963   3.801   5.123  0.0106  0.1505  1.0517
 9677TIP3   OH250521   2.485   3.189   3.831 -0.2378  0.0035  0.1497
 9677TIP3    H150522   2.544   3.115   3.847 -1.8025 -1.2139  0.5656
 9677TIP3    H250523   2.471   3.228   3.917  1.8239  1.8310 -0.2776
 9678TIP3   OH250524   1.279   1.511   4.377 -0.3107  0.2385 -0.3177
 9678TIP3    H150525   1.321   1.428   4.353 -2.6978 -0.8754 -1.0690
 9678TIP3    H250526   1.325   1.577   4.325  0.4328 -0.9044 -1.1745
 9679TIP3   OH250527   0.180   0.006   0.257  0.8104 -0.2278 -0.2537
 9679TIP3    H150528   0.167   0.101   0.261 -1.5493 -0.5081  0.5576
 9679TIP3    H250529   0.162  -0.017   0.166  0.2397 -0.0046 -0.2050
 9680TIP3   OH250530   1.601   3.995  15.844  0.1365  0.8362  0.1387
 9680TIP3    H150531   1.682   4.022  15.802  0.9315 -1.3189  0.1463
 9680TIP3    H250532   1.623   3.913  15.888 -1.7529  0.8239  1.1695
 9681TIP3   OH250533   2.352   6.791  16.544 -0.1432  0.7763 -1.1165
 9681TIP3    H150534   2.284   6.724  16.537 -0.3593  0.9734 -0.9428
 9681TIP3    H250535   2.399   6.786  16.461  0.5241 -0.3028 -0.6959
 9682TIP3   OH250536   5.593   1.958   0.204  0.1071  0.7272 -0.4587
 9682TIP3    H150537   5.628   2.019   0.270 -2.5288 -0.6439  2.4220
 9682TIP3    H250538   5.504   1.988   0.189 -0.7360 -1.4717 -0.1298
 9683TIP3   OH250539   3.830   5.099  10.937 -0.1634 -0.4231 -0.6583
 9683TIP3    H150540   3.758   5.141  10.890 -1.3437 -0.6214  0.8723
 9683TIP3    H250541   3.786   5.039  10.998  1.1371  1.0421  1.8934
 9684TIP3   OH250542   4.546   5.072   0.440  0.2357 -0.1793 -0.6914
 9684TIP3    H150543   4.563   4.982   0.412  2.3236 -0.4934  1.2654
 9684TIP3    H250544   4.578   5.075   0.530 -0.6617  2.2906 -0.3836
 9685TIP3   OH250545   4.463   5.724   4.439 -0.2628 -0.1881 -0.4758
 9685TIP3    H150546   4.412   5.759   4.366 -0.4440  1.7656  0.5123
 9685TIP3    H250547   4.398   5.704   4.506  0.0428 -0.2939 -0.2115
 9686TIP3   OH250548   0.524   0.352   5.915  0.3736 -0.3386  0.2155
 9686TIP3    H150549   0.534   0.329   6.007  0.8114  1.9620  0.8001
 9686TIP3    H250550   0.612   0.377   5.887  0.0298  0.1137 -0.4879
 9687TIP3   OH250551   6.461   6.242  14.715 -0.0511  0.2106  0.0535
 9687TIP3    H150552   6.412   6.181  14.770  0.1526  1.4203  1.6424
 9687TIP3    H250553   6.551   6.239  14.750  0.3730  0.1121 -1.0036
 9688TIP3   OH250554   3.287   4.984  17.192 -0.1119 -0.1789  0.1416
 9688TIP3    H150555   3.307   5.037  17.269 -0.2354  0.5349 -0.3137
 9688TIP3    H250556   3.193   4.968  17.197  0.0155 -0.8248  0.5690
 9689TIP3   OH250557   6.294   2.407   3.391  0.3337 -0.6055  0.0332
 9689TIP3    H150558   6.313   2.357   3.312  0.7093  0.2087 -0.4064
 9689TIP3    H250559   6.201   2.428   3.384  0.0590 -1.6193  0.4537
 9690TIP3   OH250560   1.936   0.929   0.491  0.3208  0.5058  0.4013
 9690TIP3    H150561   1.862   0.870   0.474  1.8357 -1.5704  0.6006
 9690TIP3    H250562   1.958   0.913   0.583  0.2590  2.0615  0.7173
 9691TIP3   OH250563   0.661   2.735  16.856 -0.0128  0.5697  0.1693
 9691TIP3    H150564   0.753   2.738  16.883  0.1779  3.2694 -0.4571
 9691TIP3    H250565   0.649   2.647  16.821  2.2343  0.0205  0.6037
 9692TIP3   OH250566   6.757   4.076  16.910 -0.0285  0.1714 -0.0966
 9692TIP3    H150567   6.667   4.048  16.929 -0.3274 -1.3296 -3.1543
 9692TIP3    H250568   6.752   4.172  16.908 -0.8284  0.2778  2.5293
 9693TIP3   OH250569   5.476   5.082   3.790 -0.6086  0.1101 -0.2511
 9693TIP3    H150570   5.553   5.039   3.827 -0.3367 -1.2927 -2.2729
 9693TIP3    H250571   5.485   5.071   3.695 -2.7765  0.8419 -0.6140
 9694TIP3   OH250572   6.466   6.567  15.962 -0.1300 -0.1346  0.1930
 9694TIP3    H150573   6.485   6.642  15.906 -1.1811 -0.1642 -0.2351
 9694TIP3    H250574   6.543   6.558  16.018  1.3537 -0.6332 -1.8100
 9695TIP3   OH250575   4.761   2.320   3.086  0.3168  0.7646  0.5115
 9695TIP3    H150576   4.767   2.352   2.996 -1.9292  0.2842  0.1333
 9695TIP3    H250577   4.832   2.256   3.094  0.5391  0.8052 -0.9298
 9696TIP3   OH250578   3.707   3.852  11.491 -0.2816 -0.3836 -0.4700
 9696TIP3    H150579   3.627   3.817  11.454 -0.4328  0.9786 -1.5142
 9696TIP3    H250580   3.744   3.907  11.422  0.8328  0.1147  0.4794
 9697TIP3   OH250581   0.212   3.182   3.967  0.0508 -0.1977 -0.3155
 9697TIP3    H150582   0.223   3.112   4.031 -2.1293 -0.4428 -0.1507
 9697TIP3    H250583   0.161   3.143   3.896  0.6924  0.6395 -1.2658
 9698TIP3   OH250584   6.023   2.412   3.556 -0.1253  0.1333  0.3097
 9698TIP3    H150585   6.057   2.323   3.552 -3.1282 -1.1303  0.4594
 9698TIP3    H250586   5.935   2.406   3.520 -1.2476  2.5905  2.3348
 9699TIP3   OH250587   4.799   2.543  14.381 -0.0810  0.4248  0.2232
 9699TIP3    H150588   4.794   2.620  14.437 -1.5546 -0.0621  0.8147
 9699TIP3    H250589   4.774   2.470  14.438  1.8605 -0.6004 -0.1546
 9700TIP3   OH250590   1.238   4.080  16.968  0.0357 -0.2954  0.0476
 9700TIP3    H150591   1.278   4.009  16.918  0.5273 -2.0548  2.7117
 9700TIP3    H250592   1.147   4.053  16.981  0.1752 -0.3868  0.9198
 9701TIP3   OH250593   1.920   0.503  14.689  0.5205 -0.0573  0.2067
 9701TIP3    H150594   1.901   0.500  14.782 -0.2821  0.6639  0.0782
 9701TIP3    H250595   1.957   0.590  14.674  1.1683 -0.3675 -0.0610
 9702TIP3   OH250596   4.033   6.810  12.243  0.0703 -0.1327  0.4416
 9702TIP3    H150597   4.038   6.727  12.195  0.0878  0.9536 -1.5186
 9702TIP3    H250598   3.946   6.845  12.221 -0.0838  0.2266  1.5504
 9703TIP3   OH250599   5.884   0.944  14.913  0.2151  0.3196  0.1174
 9703TIP3    H150600   5.893   1.040  14.911  0.5148  0.2809 -1.1566
 9703TIP3    H250601   5.941   0.917  14.985 -0.1444  1.1244  0.7216
 9704TIP3   OH250602   6.428   6.176  17.121  0.0038  0.4574  0.1870
 9704TIP3    H150603   6.420   6.249  17.182 -1.6872 -0.2639  0.9169
 9704TIP3    H250604   6.519   6.148  17.128  0.0894  1.0291  1.6652
 9705TIP3   OH250605   1.457   1.595   0.671 -0.0614  0.2110  0.5512
 9705TIP3    H150606   1.497   1.524   0.722  1.9029  0.5897 -0.3614
 9705TIP3    H250607   1.468   1.673   0.725 -0.3357  0.1674  0.6681
 9706TIP3   OH250608   3.947   1.855   0.148 -0.0121 -0.4322  0.0757
 9706TIP3    H150609   3.974   1.768   0.119  1.0238 -0.6101  1.4721
 9706TIP3    H250610   3.875   1.838   0.209 -2.4946 -0.0376 -2.5279
 9707TIP3   OH250611   3.292   3.296   4.135 -0.1501  0.1587  0.3900
 9707TIP3    H150612   3.234   3.283   4.210  1.6180 -3.9110  1.3686
 9707TIP3    H250613   3.374   3.328   4.173 -0.3094  1.4819 -0.3414
 9708TIP3   OH250614   6.815   6.341  12.221 -0.4890  0.7970  0.0171
 9708TIP3    H150615   6.864   6.334  12.303 -1.3757 -1.6185  0.4314
 9708TIP3    H250616   6.724   6.322  12.246 -0.7879  0.1192 -1.4958
 9709TIP3   OH250617   3.110   3.549   1.073  0.0669 -0.3026 -0.0613
 9709TIP3    H150618   3.167   3.506   1.137  1.3221  0.8726 -0.3352
 9709TIP3    H250619   3.032   3.494   1.070  0.2205 -0.7312  2.0133
 9710TIP3   OH250620   1.612   5.255   1.674  0.5023  0.3294 -0.1238
 9710TIP3    H150621   1.696   5.239   1.717  0.5072 -1.9070 -0.8248
 9710TIP3    H250622   1.636   5.272   1.583  0.2952  1.9199  0.0930
 9711TIP3   OH250623   1.330   3.467  14.330  0.0832 -0.0262  0.4672
 9711TIP3    H150624   1.315   3.506  14.416  3.2211 -0.8548  1.5237
 9711TIP3    H250625   1.330   3.541  14.269  1.2963  1.0350  1.7183
 9712TIP3   OH250626   3.887   4.838  13.807  0.2154  0.6226  0.2858
 9712TIP3    H150627   3.798   4.821  13.778  0.8456 -0.3816 -1.1725
 9712TIP3    H250628   3.892   4.933  13.815 -0.7880  0.7377 -0.2851
 9713TIP3   OH250629   6.740   3.924  15.885 -0.6730  0.8166 -0.4275
 9713TIP3    H150630   6.766   3.951  15.973  1.2304  0.4991 -0.8345
 9713TIP3    H250631   6.698   4.001  15.847  0.0816  1.5449  0.1693
 9714TIP3   OH250632   0.202   0.334  12.353 -0.1784 -0.8932  0.1033
 9714TIP3    H150633   0.220   0.331  12.259 -0.3082  1.1342 -0.0273
 9714TIP3    H250634   0.228   0.423  12.380 -0.0316 -1.4670  2.0111
 9715TIP3   OH250635   4.470   0.555  16.055 -0.3294  0.1048  0.5271
 9715TIP3    H150636   4.455   0.474  16.007 -0.0301 -0.6110  1.6233
 9715TIP3    H250637   4.557   0.544  16.094 -1.1292  0.0654  2.3943
 9716TIP3   OH250638   6.616   4.214   0.428  0.0027  0.3207  0.1489
 9716TIP3    H150639   6.547   4.247   0.485  0.1386  1.8837 -0.5180
 9716TIP3    H250640   6.571   4.193   0.346 -0.0635 -1.1115  0.5364
 9717TIP3   OH250641   4.126   3.982   5.520  0.8694 -0.1237  0.4649
 9717TIP3    H150642   4.197   3.956   5.461  0.5081  0.8785 -0.4544
 9717TIP3    H250643   4.097   3.900   5.560  1.2834 -0.8106 -0.5803
 9718TIP3   OH250644   6.807   4.013   4.486 -0.1053  0.2582 -0.0160
 9718TIP3    H150645   6.729   4.008   4.541 -0.1293  0.1782 -0.0569
 9718TIP3    H250646   6.876   3.971   4.537  0.1237  1.0993  0.3834
 9719TIP3   OH250647   2.603   4.282  13.425 -0.0363 -0.3441 -0.0326
 9719TIP3    H150648   2.631   4.364  13.465 -0.9753 -0.5276  1.0568
 9719TIP3    H250649   2.551   4.308  13.350  1.0223  0.0219 -0.6553
 9720TIP3   OH250650   1.741   5.293   5.575  0.2916  0.1425 -0.3466
 9720TIP3    H150651   1.771   5.366   5.521  1.5301  1.2339  1.6483
 9720TIP3    H250652   1.692   5.335   5.646 -0.8796 -1.1852 -0.3197
 9721TIP3   OH250653   2.436   1.488   0.158  0.1687 -0.0019  0.2977
 9721TIP3    H150654   2.401   1.470   0.071  1.4957  0.6119 -0.3944
 9721TIP3    H250655   2.434   1.584   0.165  0.2245 -0.0398  0.8836
 9722TIP3   OH250656   5.189   2.189  14.816  0.3782  0.8846 -0.1518
 9722TIP3    H150657   5.097   2.191  14.789 -0.0815  1.8646  1.3376
 9722TIP3    H250658   5.227   2.268  14.779  0.4553  0.8053 -0.2411
 9723TIP3   OH250659   6.591   5.687   6.272  0.1883 -0.0599  0.7541
 9723TIP3    H150660   6.551   5.621   6.329  1.6150  1.4524  3.7664
 9723TIP3    H250661   6.517   5.737   6.237 -0.7714 -1.3336  0.9038
 9724TIP3   OH250662   4.702   2.942   4.600  0.2240  0.0132 -0.0404
 9724TIP3    H150663   4.640   2.910   4.666  1.6066 -2.0039  0.3755
 9724TIP3    H250664   4.755   3.006   4.647 -0.7526  0.9052 -0.0957
 9725TIP3   OH250665   3.947   0.258  11.497 -0.6586  0.6646 -0.3738
 9725TIP3    H150666   4.039   0.254  11.471 -0.5783 -1.4044  0.0876
 9725TIP3    H250667   3.898   0.236  11.418 -0.5759 -1.6156  0.1513
 9726TIP3   OH250668   5.542   0.738   1.545  0.1589  0.4736 -0.1096
 9726TIP3    H150669   5.527   0.742   1.451 -0.8025 -2.0904 -0.1560
 9726TIP3    H250670   5.622   0.686   1.555  0.4264  0.9812  0.4940
 9727TIP3   OH250671   6.037   4.038  14.538 -0.3444 -0.3400 -1.0361
 9727TIP3    H150672   5.953   4.053  14.494 -0.0694 -2.4689 -2.4862
 9727TIP3    H250673   6.046   4.111  14.598 -3.8538 -0.6783  0.1515
 9728TIP3   OH250674   4.004   0.105  13.886  0.1000 -0.2415 -0.3435
 9728TIP3    H150675   4.024   0.173  13.822  0.8851 -0.4451 -0.3250
 9728TIP3    H250676   3.943   0.147  13.947 -0.8799 -0.1395 -1.3721
 9729TIP3   OH250677   5.866   4.749   4.680 -0.1721 -0.1202  0.1321
 9729TIP3    H150678   5.815   4.830   4.682 -0.1261 -0.0870  1.9783
 9729TIP3    H250679   5.955   4.777   4.661 -0.7272 -0.1937 -3.2961
 9730TIP3   OH250680   5.958   3.425  12.367 -0.2982 -0.2576  0.2198
 9730TIP3    H150681   5.870   3.461  12.356 -0.4409 -1.1253 -2.0014
 9730TIP3    H250682   5.986   3.456  12.453 -1.6102  2.4758 -0.2414
 9731TIP3   OH250683   0.460   3.460   3.452 -0.1800 -0.1293  0.4356
 9731TIP3    H150684   0.503   3.546   3.455  1.0404 -0.6834 -0.4590
 9731TIP3    H250685   0.525   3.400   3.490 -0.8946 -0.7096  0.7564
 9732TIP3   OH250686   2.332   6.301   0.900  0.1590 -0.5812 -0.4817
 9732TIP3    H150687   2.426   6.291   0.883 -0.1082 -1.4372 -1.5619
 9732TIP3    H250688   2.296   6.214   0.887 -0.6185 -0.5419  1.2186
 9733TIP3   OH250689   5.280   0.861   0.198  0.3006 -1.0558  0.0985
 9733TIP3    H150690   5.334   0.858   0.277  0.1013  0.0867  0.2975
 9733TIP3    H250691   5.342   0.880   0.128  0.1761  0.4831  0.3581
 9734TIP3   OH250692   4.643   5.200   4.919 -0.5278 -0.4763 -0.5955
 9734TIP3    H150693   4.657   5.153   5.001 -1.1263  0.4427  0.0544
 9734TIP3    H250694   4.634   5.131   4.853  1.8105 -1.2223 -0.2319
 9735TIP3   OH250695   2.486   5.414  15.061  0.1965 -0.1806 -0.1129
 9735TIP3    H150696   2.412   5.396  15.119  0.1769 -0.7097 -0.2929
 9735TIP3    H250697   2.544   5.470  15.112 -1.0263  1.5212 -0.4862
 9736TIP3   OH250698   0.481   5.570   1.583  0.9906 -0.4134 -0.2603
 9736TIP3    H150699   0.479   5.553   1.678  1.0243 -0.9408 -0.3542
 9736TIP3    H250700   0.557   5.627   1.571  2.1278 -1.8660 -0.2064
 9737TIP3   OH250701   1.058   0.862  13.177 -0.3979 -0.2291  0.4335
 9737TIP3    H150702   0.970   0.827  13.196 -1.5573  0.7719 -2.5770
 9737TIP3    H250703   1.088   0.811  13.102  1.0126  0.4068  0.5483
 9738TIP3   OH250704   2.375   2.411   5.931  0.0695 -0.1964 -0.3073
 9738TIP3    H150705   2.326   2.347   5.983 -0.3459  0.6456  0.3611
 9738TIP3    H250706   2.456   2.425   5.980  0.2508 -0.3423 -0.5580
 9739TIP3   OH250707   3.098   3.773  12.520 -0.1648 -0.1024 -0.2352
 9739TIP3    H150708   3.096   3.842  12.454  1.5482  0.5092  0.3066
 9739TIP3    H250709   3.178   3.724  12.502 -1.6164 -2.3788 -0.9763
 9740TIP3   OH250710   3.057   0.262  16.224  0.7632 -0.2213 -0.7873
 9740TIP3    H150711   3.009   0.180  16.234  1.8827 -0.9789 -1.3584
 9740TIP3    H250712   3.060   0.299  16.312 -1.0133 -0.0394 -0.7716
 9741TIP3   OH250713   2.941   2.037  13.944  0.0387 -0.2900 -0.2702
 9741TIP3    H150714   2.959   2.114  13.890 -1.2267 -0.5281 -1.0697
 9741TIP3    H250715   2.897   2.071  14.022 -1.6869 -0.2919 -1.2075
 9742TIP3   OH250716   0.530   3.111   3.206 -0.1583 -0.1223  0.0732
 9742TIP3    H150717   0.521   3.052   3.131 -0.6468  1.1925 -0.9432
 9742TIP3    H250718   0.440   3.136   3.227  0.0441  0.2515  0.5013
 9743TIP3   OH250719   2.755   1.713  12.160  0.2527  0.2627  0.0238
 9743TIP3    H150720   2.673   1.698  12.207 -0.3753 -0.8286 -1.3387
 9743TIP3    H250721   2.790   1.625  12.145  0.3091  0.5581 -1.7294
 9744TIP3   OH250722   1.981   0.638  11.591  0.0623 -0.0646 -0.7515
 9744TIP3    H150723   1.956   0.634  11.498  1.6258 -0.4327 -1.1953
 9744TIP3    H250724   2.060   0.693  11.592 -1.8348  2.8507  0.8568
 9745TIP3   OH250725   0.864   2.454   6.452 -0.1252 -0.4299  0.1931
 9745TIP3    H150726   0.893   2.525   6.509 -0.6903 -1.3387  1.6722
 9745TIP3    H250727   0.916   2.465   6.372 -1.0602  2.3457 -0.1306
 9746TIP3   OH250728   4.929   0.362  13.732 -0.0838 -0.2033  0.6378
 9746TIP3    H150729   4.984   0.428  13.690 -0.5165 -0.0939  0.2401
 9746TIP3    H250730   4.962   0.358  13.822 -0.1127  0.6192  0.6923
 9747TIP3   OH250731   0.261   1.134   5.454  0.1134  0.3682 -0.1321
 9747TIP3    H150732   0.314   1.128   5.375  0.9827  0.2784  0.4423
 9747TIP3    H250733   0.201   1.207   5.437  0.3154  0.3765 -0.8509
 9748TIP3   OH250734   0.821   0.102  15.439  0.1571 -0.3899 -0.4108
 9748TIP3    H150735   0.818   0.015  15.398  0.0856 -0.7721  0.3917
 9748TIP3    H250736   0.834   0.084  15.532 -0.1639  0.4523 -0.1968
 9749TIP3   OH250737   4.174   2.402   1.702  0.0565 -0.0150 -0.2434
 9749TIP3    H150738   4.201   2.411   1.611  0.2850  2.9845  0.0298
 9749TIP3    H250739   4.175   2.491   1.737  2.8860 -1.2356  3.5448
 9750TIP3   OH250740   0.833   3.862   0.903 -0.2478 -0.9380 -0.3194
 9750TIP3    H150741   0.751   3.847   0.949 -0.5578  1.1602 -0.0808
 9750TIP3    H250742   0.863   3.775   0.877 -3.2852 -1.6674 -1.7225
 9751TIP3   OH250743   2.838   3.517  12.955  0.2769  0.1945  0.4452
 9751TIP3    H150744   2.858   3.514  12.862  0.7491 -0.9735  0.5681
 9751TIP3    H250745   2.918   3.487  12.998  0.2138  1.1550  1.2567
 9752TIP3   OH250746   0.348   2.969   4.914 -0.1660 -0.0404  0.0532
 9752TIP3    H150747   0.437   2.948   4.941 -0.6565 -1.3781  0.7464
 9752TIP3    H250748   0.358   3.019   4.833  1.1908 -0.8677 -0.3242
 9753TIP3   OH250749   3.051   1.162  16.067 -0.0685  0.4493 -0.3723
 9753TIP3    H150750   2.965   1.145  16.029 -0.2994 -0.0566  0.3493
 9753TIP3    H250751   3.112   1.115  16.011 -0.5047 -1.1486  0.4262
 9754TIP3   OH250752   1.414   6.499  11.169 -0.0558 -0.1909  0.3467
 9754TIP3    H150753   1.391   6.508  11.076  2.5755 -0.4938 -0.4294
 9754TIP3    H250754   1.379   6.414  11.194  1.7918 -1.5284 -1.3132
 9755TIP3   OH250755   6.299   5.876   2.363 -0.0407  0.7298 -0.0615
 9755TIP3    H150756   6.291   5.780   2.365 -0.4393  0.7531 -0.4502
 9755TIP3    H250757   6.243   5.906   2.434 -1.8558  0.7858 -1.4545
 9756TIP3   OH250758   2.918   4.628  14.998  0.3422 -0.2321 -0.3239
 9756TIP3    H150759   2.937   4.551  14.944 -0.3810 -0.8826  0.3216
 9756TIP3    H250760   2.823   4.638  14.993  0.2726 -0.2792  0.7843
 9757TIP3   OH250761   3.604   1.056   0.640  0.6887  0.3346 -0.1525
 9757TIP3    H150762   3.622   1.101   0.723  0.8716 -2.0771  1.2060
 9757TIP3    H250763   3.512   1.032   0.645  0.9908 -0.8568 -0.0944
 9758TIP3   OH250764   2.288   5.541  14.850  0.0583  0.4106 -0.3747
 9758TIP3    H150765   2.305   5.464  14.905 -2.8249 -0.7795 -0.9415
 9758TIP3    H250766   2.230   5.596  14.902  1.4885  1.9107 -0.2811
 9759TIP3   OH250767   4.178   4.819  13.720  0.3653  0.5835 -0.1385
 9759TIP3    H150768   4.092   4.803  13.758  1.0826 -1.4301  0.7959
 9759TIP3    H250769   4.192   4.913  13.729 -2.1789  1.1537 -1.3592
 9760TIP3   OH250770   3.202   3.145  11.289  0.1044  0.4689 -0.5688
 9760TIP3    H150771   3.262   3.182  11.225  0.5920 -0.9476 -0.9652
 9760TIP3    H250772   3.130   3.208  11.293  0.2326  0.7674 -2.2397
 9761TIP3   OH250773   3.564   2.094  15.207  0.3969  0.1187  0.2341
 9761TIP3    H150774   3.470   2.088  15.227  0.3932  0.2403  0.2539
 9761TIP3    H250775   3.590   2.004  15.186 -0.0247  0.3018 -1.1532
 9762TIP3   OH250776   0.946   4.380  16.706  0.2800 -0.2227  0.2558
 9762TIP3    H150777   0.964   4.326  16.629  0.3980  0.6165 -0.3216
 9762TIP3    H250778   0.895   4.453  16.672  1.7300  1.0399  0.6517
 9763TIP3   OH250779   4.859   2.204   4.855  0.0071  0.1292 -0.7403
 9763TIP3    H150780   4.909   2.146   4.912  0.6648  0.4283 -1.0037
 9763TIP3    H250781   4.847   2.155   4.774 -0.0885  0.0737 -0.6925
 9764TIP3   OH250782   3.627   2.153  12.517  0.1829  0.8627 -0.1999
 9764TIP3    H150783   3.668   2.219  12.573  0.9592 -0.3116  0.6721
 9764TIP3    H250784   3.653   2.176  12.428 -0.5606  2.4057 -0.0444
 9765TIP3   OH250785   1.326   1.913   2.606  0.6912  0.2915 -0.6282
 9765TIP3    H150786   1.323   1.971   2.683  0.0656 -0.5674  0.0155
 9765TIP3    H250787   1.389   1.845   2.630 -0.2763 -0.5610 -0.4392
 9766TIP3   OH250788   4.173   1.851  15.256 -0.4077 -0.7220  0.5848
 9766TIP3    H150789   4.125   1.796  15.319  2.0137 -1.3268  2.0350
 9766TIP3    H250790   4.243   1.794  15.224  0.7788  0.8011  0.3650
 9767TIP3   OH250791   4.496   5.981  14.141  0.2717  0.2020 -0.4318
 9767TIP3    H150792   4.476   5.958  14.050  1.3173  1.2159 -0.9375
 9767TIP3    H250793   4.591   5.978  14.147  0.1880 -0.6756  0.8733
 9768TIP3   OH250794   0.171   4.653  15.455 -0.7798  0.1074 -0.0758
 9768TIP3    H150795   0.173   4.558  15.464 -1.2400  0.2844  2.7360
 9768TIP3    H250796   0.153   4.668  15.362  0.1573 -2.5064 -0.7602
 9769TIP3   OH250797   0.615   4.584   5.395  0.0701  0.0713  0.1708
 9769TIP3    H150798   0.560   4.608   5.470 -0.2619  1.6402 -0.5412
 9769TIP3    H250799   0.631   4.666   5.349  0.1580 -0.8507 -1.5549
 9770TIP3   OH250800   1.080   0.374   3.379 -0.2338 -0.0665  0.0089
 9770TIP3    H150801   1.099   0.324   3.299 -1.0509  1.1785 -1.0244
 9770TIP3    H250802   1.147   0.443   3.380 -0.9484  0.6541 -0.2988
 9771TIP3   OH250803   2.833   2.520  16.600  0.3961  1.1314  0.1647
 9771TIP3    H150804   2.820   2.430  16.571  2.2209  1.5803 -2.4346
 9771TIP3    H250805   2.745   2.553  16.618 -0.8245  0.1228 -3.2201
 9772TIP3   OH250806   2.458   5.231   5.781 -0.1467 -0.1147  0.0295
 9772TIP3    H150807   2.386   5.183   5.821 -0.8568 -0.4043 -1.5468
 9772TIP3    H250808   2.476   5.185   5.699  0.1020  1.4490 -0.8390
 9773TIP3   OH250809   0.100   1.153   2.674 -0.1586  0.2606  0.2807
 9773TIP3    H150810   0.094   1.167   2.579  3.3609  1.8227  0.1281
 9773TIP3    H250811   0.019   1.190   2.709 -1.7600 -0.7439 -2.0856
 9774TIP3   OH250812   4.100   1.986   2.221  0.1450 -0.0486  0.3680
 9774TIP3    H150813   4.020   1.944   2.252 -0.1251 -0.5735 -0.9525
 9774TIP3    H250814   4.140   2.022   2.299 -0.2257 -1.7550  1.3995
 9775TIP3   OH250815   6.367   6.799  14.270  0.2176  1.3619 -0.0006
 9775TIP3    H150816   6.278   6.811  14.301 -0.2949 -1.9921  0.2232
 9775TIP3    H250817   6.422   6.832  14.341 -0.9345 -1.2011  2.2567
 9776TIP3   OH250818   3.073   1.610   3.391  0.0367 -0.0582  0.3861
 9776TIP3    H150819   2.995   1.661   3.413 -1.9962 -2.8435  0.0421
 9776TIP3    H250820   3.080   1.544   3.459  0.4973 -1.5195 -1.0078
 9777TIP3   OH250821   3.830   1.147  13.978 -0.1338  0.0280  0.0458
 9777TIP3    H150822   3.758   1.209  13.973  0.5369  0.7708 -0.6219
 9777TIP3    H250823   3.900   1.194  14.024  0.5003 -0.0905 -0.7691
 9778TIP3   OH250824   2.309   3.925   3.702 -0.1029 -0.0097  0.4222
 9778TIP3    H150825   2.387   3.954   3.748  0.3550 -0.9862  0.2846
 9778TIP3    H250826   2.299   3.833   3.727  0.0333 -0.5054 -1.2149
 9779TIP3   OH250827   2.057   2.373  16.837 -0.2408 -0.1205 -0.0678
 9779TIP3    H150828   1.993   2.407  16.899 -1.1584 -0.3697 -0.8500
 9779TIP3    H250829   2.054   2.278  16.848  2.0132 -0.0525  1.8167
 9780TIP3   OH250830   4.016   3.174   1.214 -0.5258 -0.5484  0.2716
 9780TIP3    H150831   4.075   3.246   1.238 -1.0902  0.4599 -1.2475
 9780TIP3    H250832   4.042   3.151   1.125 -1.8351 -0.7193 -0.0761
 9781TIP3   OH250833   2.948   2.511  13.609 -0.0398  0.5466  0.5450
 9781TIP3    H150834   2.982   2.600  13.606 -0.5007  0.8166  2.3081
 9781TIP3    H250835   2.992   2.466  13.536  1.8989  1.6225  0.9809
 9782TIP3   OH250836   0.134   3.562  13.334  0.5068 -0.0989  0.2732
 9782TIP3    H150837   0.137   3.511  13.415  0.1844 -0.7097 -0.0856
 9782TIP3    H250838   0.090   3.504  13.271 -2.0033  1.4538  0.4659
 9783TIP3   OH250839   6.457   0.937  12.906 -0.1429 -0.4988  0.1540
 9783TIP3    H150840   6.538   0.896  12.937 -0.3308 -2.2230 -1.4794
 9783TIP3    H250841   6.466   1.029  12.932  0.7252 -1.3137  3.1035
 9784TIP3   OH250842   4.044   2.069   4.222 -0.0829 -0.0966  0.7274
 9784TIP3    H150843   4.040   2.024   4.138 -0.7264  1.8123 -0.3256
 9784TIP3    H250844   4.116   2.027   4.269  0.5674 -0.9083 -0.9346
 9785TIP3   OH250845   4.466   4.268   5.048 -0.1605 -0.4695  0.5546
 9785TIP3    H150846   4.441   4.258   5.140 -0.5197 -1.2850  0.3765
 9785TIP3    H250847   4.517   4.190   5.029 -1.2070 -0.9722 -0.2996
 9786TIP3   OH250848   2.220   0.352   1.546 -0.5124 -0.6780 -0.1191
 9786TIP3    H150849   2.264   0.418   1.599 -1.2664  0.1651 -0.5200
 9786TIP3    H250850   2.195   0.284   1.609 -0.9004  0.0394  0.5219
 9787TIP3   OH250851   2.928   3.951   4.335  0.1741  0.2685  0.0971
 9787TIP3    H150852   2.937   3.891   4.409  0.3207 -0.0913 -0.2142
 9787TIP3    H250853   2.882   4.027   4.372  2.5060  1.2395  1.2052
 9788TIP3   OH250854   5.848   6.318   4.290 -0.1431 -0.0107  0.4034
 9788TIP3    H150855   5.901   6.329   4.211 -1.8293 -0.6961 -0.8875
 9788TIP3    H250856   5.792   6.243   4.271 -0.9286  0.1014  2.0802
 9789TIP3   OH250857   2.908   4.421  14.336 -0.0260  0.2739  0.6075
 9789TIP3    H150858   2.818   4.396  14.356 -1.1172  2.2123 -1.4592
 9789TIP3    H250859   2.934   4.363  14.265  0.7430 -0.8556  1.7515
 9790TIP3   OH250860   2.112   6.528   1.860 -0.2872  0.1385  0.5275
 9790TIP3    H150861   2.057   6.558   1.933  1.8006  1.1281  1.8112
 9790TIP3    H250862   2.148   6.608   1.823  0.2934 -0.4767 -0.2639
 9791TIP3   OH250863   4.028   4.902  14.400 -0.2277 -0.1160  0.2040
 9791TIP3    H150864   4.042   4.815  14.439 -0.7089 -0.6368 -0.7362
 9791TIP3    H250865   4.112   4.946  14.409  0.1438 -0.8314  0.3574
 9792TIP3   OH250866   6.467   2.089   1.483  0.0087 -0.3580 -0.2716
 9792TIP3    H150867   6.414   2.016   1.515 -0.9143 -0.0818 -1.1269
 9792TIP3    H250868   6.490   2.065   1.393 -0.9366  0.7328 -0.8190
 9793TIP3   OH250869   2.956   5.795   2.499  0.7886 -0.0562 -0.4037
 9793TIP3    H150870   3.000   5.857   2.442  2.1091  1.2784  1.8987
 9793TIP3    H250871   2.875   5.839   2.525 -0.6425 -1.3437 -2.4256
 9794TIP3   OH250872   5.537   6.019   4.824  0.3730  0.1808 -0.5051
 9794TIP3    H150873   5.509   6.110   4.818  0.5225  0.1343 -3.3775
 9794TIP3    H250874   5.456   5.969   4.812  0.0373 -0.1776  2.5586
 9795TIP3   OH250875   5.065   6.495  12.566 -0.3641 -0.1226 -0.4116
 9795TIP3    H150876   5.052   6.589  12.574  0.7443  0.0448 -0.5590
 9795TIP3    H250877   5.153   6.479  12.598  0.1431 -0.8640 -2.0618
 9796TIP3   OH250878   3.311   0.955   5.174  0.1544 -0.3265 -0.0634
 9796TIP3    H150879   3.257   0.961   5.253 -0.1909 -0.1452 -0.3118
 9796TIP3    H250880   3.341   1.044   5.159 -0.6064 -0.1657 -0.7072
 9797TIP3   OH250881   0.104   4.975   5.101 -0.1782  0.4660  0.3181
 9797TIP3    H150882   0.107   4.941   5.012  0.5417 -0.6322  0.7349
 9797TIP3    H250883   0.010   4.983   5.121 -0.3414  0.5195 -0.4572
 9798TIP3   OH250884   3.444   6.222  15.403  0.1069 -0.1711  0.2172
 9798TIP3    H150885   3.517   6.219  15.340  0.3025  0.0578  0.4303
 9798TIP3    H250886   3.388   6.293  15.371  1.0331  1.0537  1.1804
 9799TIP3   OH250887   2.082   5.748   3.322 -0.1950 -0.7588  0.2374
 9799TIP3    H150888   2.077   5.654   3.341  1.2519 -1.3585 -2.0070
 9799TIP3    H250889   2.175   5.769   3.325 -0.3091  0.1214 -1.2732
 9800TIP3   OH250890   0.921   0.642  13.318 -0.4147 -0.0932  0.2815
 9800TIP3    H150891   0.834   0.679  13.302 -1.0596 -0.9574  1.6107
 9800TIP3    H250892   0.923   0.625  13.413  2.0501  1.9783  0.6933
 9801TIP3   OH250893   5.902   4.904  15.168 -0.3822 -0.0590 -0.1797
 9801TIP3    H150894   5.932   4.910  15.077 -1.0648  0.9768 -0.3517
 9801TIP3    H250895   5.812   4.871  15.161 -0.0563 -1.0410  0.1941
 9802TIP3   OH250896   6.407   3.585   1.880 -0.1370  0.1730  0.6167
 9802TIP3    H150897   6.370   3.668   1.908 -0.3100 -0.1532  1.3723
 9802TIP3    H250898   6.490   3.578   1.926 -0.3388 -0.2827  0.9181
 9803TIP3   OH250899   2.740   4.153   4.482 -0.2385  0.0250 -0.0392
 9803TIP3    H150900   2.688   4.214   4.430 -0.5567 -0.5104 -0.3594
 9803TIP3    H250901   2.679   4.118   4.546 -0.3651 -0.8198 -0.5958
 9804TIP3   OH250902   4.835   1.471  17.167 -0.3247 -0.1132  0.1685
 9804TIP3    H150903   4.906   1.435  17.220  0.8975  1.0028 -0.6498
 9804TIP3    H250904   4.806   1.398  17.112  0.0185 -0.6409  0.6815
 9805TIP3   OH250905   1.572   0.552   5.395  0.1498  0.1858  0.3026
 9805TIP3    H150906   1.641   0.588   5.338  0.7774 -0.6287  0.5280
 9805TIP3    H250907   1.587   0.594   5.480  0.3737  0.0118  0.3508
 9806TIP3   OH250908   1.293   5.191  13.061 -0.0240 -0.5321 -0.6859
 9806TIP3    H150909   1.218   5.244  13.032  0.5430  0.5104 -0.3225
 9806TIP3    H250910   1.254   5.113  13.100 -0.9024 -0.2667 -1.0021
 9807TIP3   OH250911   2.982   6.533  10.640 -0.4865  0.2590  0.3136
 9807TIP3    H150912   2.970   6.456  10.585 -0.2981  0.4466  0.0038
 9807TIP3    H250913   2.926   6.600  10.600 -1.5889 -0.0565  1.2765
 9808TIP3   OH250914   2.630   1.703   3.188  0.5134 -0.0881 -0.6006
 9808TIP3    H150915   2.588   1.784   3.216 -1.1304 -0.5525 -1.5731
 9808TIP3    H250916   2.657   1.719   3.098  1.7685 -0.0628 -0.2345
 9809TIP3   OH250917   0.479   2.170  16.276 -0.0098 -0.0788  0.1407
 9809TIP3    H150918   0.561   2.143  16.318  0.8278  1.0214 -0.7059
 9809TIP3    H250919   0.458   2.254  16.318  0.1032  0.3604 -0.6599
 9810TIP3   OH250920   0.108   2.748  13.971  0.3925  0.4230  0.6899
 9810TIP3    H150921   0.033   2.767  13.916 -0.2362 -1.9345  0.6170
 9810TIP3    H250922   0.106   2.815  14.039 -2.5925 -0.2910  1.4429
 9811TIP3   OH250923   5.055   5.233  13.626  0.4310  0.3995  0.2698
 9811TIP3    H150924   5.117   5.255  13.557  1.6487 -0.3221  1.0910
 9811TIP3    H250925   4.972   5.218  13.580  1.1375  0.2052 -0.9942
 9812TIP3   OH250926   6.802   1.641  16.868 -0.5563 -0.3885 -0.9129
 9812TIP3    H150927   6.896   1.657  16.869 -0.6477  0.1856  0.4796
 9812TIP3    H250928   6.762   1.728  16.868 -1.0783 -0.6124  0.1056
 9813TIP3   OH250929   3.228   0.667  13.404  0.3390  0.3171  0.1478
 9813TIP3    H150930   3.154   0.615  13.435  0.7412 -1.4376 -1.6398
 9813TIP3    H250931   3.192   0.721  13.334  0.6018 -0.0689 -0.2909
 9814TIP3   OH250932   6.576   1.851   0.657 -0.0803  0.0242 -0.0057
 9814TIP3    H150933   6.602   1.873   0.747 -1.6448 -1.0096  0.7499
 9814TIP3    H250934   6.655   1.815   0.618  0.8309  1.1746  0.7024
 9815TIP3   OH250935   3.229   4.099  11.025 -0.5133  0.0420 -0.6161
 9815TIP3    H150936   3.136   4.123  11.031 -0.3725  0.6817 -0.8857
 9815TIP3    H250937   3.241   4.076  10.932 -0.0796  1.3520 -0.8936
 9816TIP3   OH250938   1.610   4.138   1.483 -0.5613  0.5377 -0.1767
 9816TIP3    H150939   1.575   4.227   1.482 -2.1172 -0.0263 -2.2344
 9816TIP3    H250940   1.601   4.109   1.574 -0.6243  2.2311  0.3870
 9817TIP3   OH250941   2.006   6.141   1.317  0.4103 -0.0604 -0.4140
 9817TIP3    H150942   1.956   6.221   1.304  0.8370  0.0323 -1.6007
 9817TIP3    H250943   2.081   6.149   1.259  1.1450 -0.7618  0.3928
 9818TIP3   OH250944   1.111   2.804  12.014  0.0358  0.1196  0.0462
 9818TIP3    H150945   1.184   2.782  12.072 -0.4084 -0.5373  0.3568
 9818TIP3    H250946   1.140   2.884  11.969  0.5128  0.4525  0.9325
 9819TIP3   OH250947   5.902   2.152   0.213 -0.1699 -0.8860 -0.5130
 9819TIP3    H150948   5.819   2.142   0.260  0.6212 -1.1983  0.8646
 9819TIP3    H250949   5.876   2.165   0.122 -1.6669 -3.3159 -0.5271
 9820TIP3   OH250950   3.783   2.160  16.581  0.2519 -0.2943 -0.0565
 9820TIP3    H150951   3.790   2.067  16.602  0.8977 -0.5559 -1.3233
 9820TIP3    H250952   3.716   2.194  16.641  0.8009 -1.3287  1.1769
 9821TIP3   OH250953   5.038   4.969  13.361 -0.4395  0.3040 -0.9194
 9821TIP3    H150954   5.049   4.919  13.280 -0.5729 -0.3742 -0.5231
 9821TIP3    H250955   5.108   5.034  13.358 -1.3029  1.2212 -2.2604
 9822TIP3   OH250956   5.949   3.324  11.936 -0.4998 -0.0360  0.3050
 9822TIP3    H150957   5.931   3.291  12.024  1.0355  1.2378  1.1572
 9822TIP3    H250958   6.013   3.263  11.899  0.2623  0.4395  0.8153
 9823TIP3   OH250959   5.794   0.597  12.000 -0.4657  0.1000 -0.2298
 9823TIP3    H150960   5.701   0.618  12.014 -0.2272  1.5834 -0.7005
 9823TIP3    H250961   5.837   0.683  11.992  1.0097 -0.5618  0.3493
 9824TIP3   OH250962   2.419   0.988  16.159  0.3016  0.3389 -0.3984
 9824TIP3    H150963   2.370   1.070  16.154 -0.2734  0.0219  0.0266
 9824TIP3    H250964   2.360   0.926  16.201  1.1243 -0.0050  0.2859
 9825TIP3   OH250965   2.755   4.798  11.256 -0.4517  0.2735 -0.3102
 9825TIP3    H150966   2.715   4.751  11.183 -2.9792  1.0309  0.4849
 9825TIP3    H250967   2.682   4.817  11.315  0.8575  2.9884  0.5830
 9826TIP3   OH250968   5.757   3.211   1.000  0.1309 -0.3660 -0.0239
 9826TIP3    H150969   5.833   3.258   1.036  1.3463 -0.4074 -2.3422
 9826TIP3    H250970   5.707   3.278   0.955 -0.2526 -0.6456 -0.0153
 9827TIP3   OH250971   4.132   1.861  16.979  0.3086 -0.0245  0.1182
 9827TIP3    H150972   4.112   1.773  16.948 -0.5635  0.4240 -0.6641
 9827TIP3    H250973   4.186   1.899  16.910 -0.0751  0.3489  0.0149
 9828TIP3   OH250974   2.285   1.013  16.450 -0.8746 -0.1901 -0.1278
 9828TIP3    H150975   2.335   1.078  16.401  0.6102 -1.8605 -0.9403
 9828TIP3    H250976   2.345   0.982  16.518 -1.4750 -0.8522  0.1206
 9829TIP3   OH250977   4.326   1.991  15.823  0.1023  0.0249 -0.4443
 9829TIP3    H150978   4.361   2.079  15.815 -0.7127  0.4548  0.6040
 9829TIP3    H250979   4.287   1.987  15.910 -1.5646 -0.7425 -1.1742
 9830TIP3   OH250980   1.488   0.625  16.481 -0.1193  0.1554 -0.0736
 9830TIP3    H150981   1.571   0.654  16.520 -0.5388  1.2504  0.0440
 9830TIP3    H250982   1.443   0.579  16.552  0.2013 -0.0666 -0.0133
 9831TIP3   OH250983   0.612   5.199   5.585 -0.3292  0.1175  0.6439
 9831TIP3    H150984   0.706   5.215   5.589 -0.0388 -1.3509  0.2735
 9831TIP3    H250985   0.597   5.165   5.497 -1.3467  1.1168  0.4154
 9832TIP3   OH250986   6.413   0.900  12.628 -0.1078 -0.6512 -0.0184
 9832TIP3    H150987   6.377   0.986  12.605  0.8766 -0.1438  0.3076
 9832TIP3    H250988   6.464   0.916  12.707  1.2440 -1.2386 -0.7423
 9833TIP3   OH250989   3.050   5.610   5.462 -0.3214 -0.5883  0.3268
 9833TIP3    H150990   3.098   5.595   5.380 -0.5144  0.5033 -0.0073
 9833TIP3    H250991   3.116   5.599   5.530 -0.0587 -1.0864 -0.0006
 9834TIP3   OH250992   2.756   2.665   0.954  0.2084  0.1023  0.2978
 9834TIP3    H150993   2.813   2.598   0.917 -0.2435 -0.4157  0.5318
 9834TIP3    H250994   2.681   2.617   0.989 -0.8841  0.8376 -0.9154
 9835TIP3   OH250995   1.789   2.267  12.235 -0.5706  0.0191 -0.1115
 9835TIP3    H150996   1.838   2.212  12.174  0.8173  2.9099 -1.8398
 9835TIP3    H250997   1.852   2.290  12.303 -0.7218  0.5172 -0.1360
 9836TIP3   OH250998   5.445   5.426   2.716  0.3286 -0.0740 -0.0279
 9836TIP3    H150999   5.394   5.503   2.741  0.5456  0.2859 -0.6582
 9836TIP3    H251000   5.535   5.447   2.743  0.1135 -0.8314  1.3539
 9837TIP3   OH251001   4.657   2.975  12.336  0.5918  0.1310 -0.4592
 9837TIP3    H151002   4.605   2.897  12.318 -1.1153  0.6190  1.8399
 9837TIP3    H251003   4.612   3.045  12.289  2.0307 -0.1430 -2.3883
 9838TIP3   OH251004   5.230   4.904   0.302 -0.7332 -0.0268 -0.0402
 9838TIP3    H151005   5.308   4.895   0.357 -0.4470  0.0137 -0.4392
 9838TIP3    H251006   5.241   4.837   0.235 -1.0710 -0.0576 -0.0655
 9839TIP3   OH251007   3.292   5.519  13.982 -0.4908 -0.7602 -0.3802
 9839TIP3    H151008   3.226   5.505  14.050 -2.4225  2.6393 -1.3091
 9839TIP3    H251009   3.268   5.458  13.912 -0.6335 -1.8047  0.5577
 9840TIP3   OH251010   5.032   1.099  15.573 -0.3635 -0.3827  0.4305
 9840TIP3    H151011   5.070   1.017  15.540  1.0256 -0.2403  1.5518
 9840TIP3    H251012   5.044   1.162  15.501 -1.0014 -1.0228 -0.2533
 9841TIP3   OH251013   1.664   3.954  14.231 -0.1925 -0.0696  0.3478
 9841TIP3    H151014   1.689   4.025  14.171 -1.0900  0.2125  0.2800
 9841TIP3    H251015   1.583   3.986  14.272 -0.3450 -0.8592  0.6725
 9842TIP3   OH251016   1.090   4.434  14.538 -0.1827 -0.4193  0.2906
 9842TIP3    H151017   1.155   4.398  14.598 -1.5349  0.4916  2.4377
 9842TIP3    H251018   1.049   4.357  14.498  0.6875 -1.0596  0.5975
 9843TIP3   OH251019   3.469   3.804  12.848  0.2358 -0.0473  0.5833
 9843TIP3    H151020   3.545   3.843  12.804 -0.1545  1.5061  1.1976
 9843TIP3    H251021   3.479   3.710  12.835  0.3802  0.2722 -2.4150
 9844TIP3   OH251022   2.958   5.122   1.946 -0.6899  0.0939 -0.2777
 9844TIP3    H151023   2.969   5.200   2.000  0.3134  0.6265 -1.2123
 9844TIP3    H251024   2.935   5.155   1.860 -0.6619 -0.6596 -0.5821
 9845TIP3   OH251025   4.568   5.189  15.529 -0.1314  0.0221 -0.8786
 9845TIP3    H151026   4.657   5.178  15.496  0.4365 -1.8176  1.0306
 9845TIP3    H251027   4.516   5.125  15.481 -0.4063  0.8716 -1.7582
 9846TIP3   OH251028   6.623   0.506  12.482 -0.2643 -0.2968  0.4328
 9846TIP3    H151029   6.696   0.550  12.438  1.3365 -0.5831  2.6097
 9846TIP3    H251030   6.549   0.514  12.421  1.3345  0.7796 -1.4876
 9847TIP3   OH251031   5.097   0.659  16.494 -0.2515  0.4807 -0.0981
 9847TIP3    H151032   5.106   0.647  16.399 -0.1326  0.2993 -0.0622
 9847TIP3    H251033   5.179   0.628  16.531 -0.9860 -1.2072  0.2223
 9848TIP3   OH251034   1.150   3.876   4.460  0.1218 -0.0289 -0.7595
 9848TIP3    H151035   1.112   3.863   4.373  0.7709  0.8182 -1.1837
 9848TIP3    H251036   1.203   3.955   4.451 -0.9700  0.9299  0.7877
 9849TIP3   OH251037   6.496   4.451  14.419 -0.1106  0.3115  0.1866
 9849TIP3    H151038   6.562   4.448  14.489 -1.2113  1.6175  1.3202
 9849TIP3    H251039   6.443   4.373  14.433 -0.8993  1.0441  1.4183
 9850TIP3   OH251040   3.913   4.203  16.160  0.1071 -0.0647 -0.1617
 9850TIP3    H151041   3.952   4.272  16.214  1.0351  0.5109 -1.5234
 9850TIP3    H251042   3.903   4.129  16.219  0.3000  0.8163  1.0119
 9851TIP3   OH251043   2.307   5.756  16.950  0.3283 -0.2848 -0.2055
 9851TIP3    H151044   2.249   5.681  16.958  0.0635 -0.1121 -0.4961
 9851TIP3    H251045   2.391   5.719  16.923  1.2746 -0.9080  3.1321
 9852TIP3   OH251046   2.561   0.479   4.731 -0.7850  0.0467  0.1299
 9852TIP3    H151047   2.586   0.416   4.798  0.4604 -0.3249 -0.6558
 9852TIP3    H251048   2.582   0.564   4.770  0.3052 -0.1844  0.0760
 9853TIP3   OH251049   0.216   4.016   3.770 -0.2972  0.1761  0.7079
 9853TIP3    H151050   0.122   4.035   3.773 -0.4468 -0.6378  1.7171
 9853TIP3    H251051   0.237   4.011   3.677 -1.2813  0.2595  0.4779
 9854TIP3   OH251052   5.607   1.919   3.706  0.3679  0.0668  0.5498
 9854TIP3    H151053   5.619   2.003   3.663  0.4074 -0.3951 -0.3838
 9854TIP3    H251054   5.517   1.894   3.685  1.3185 -1.5979 -1.9900
 9855TIP3   OH251055   2.526   2.238   3.790 -0.3202  0.1536 -0.3549
 9855TIP3    H151056   2.505   2.240   3.884  0.3236  0.3630 -0.2093
 9855TIP3    H251057   2.477   2.163   3.757  0.1088 -0.4435  0.3219
 9856TIP3   OH251058   0.648   0.572  11.811 -0.1966  0.0021 -0.3729
 9856TIP3    H151059   0.655   0.666  11.826  1.8199 -0.1808  0.1437
 9856TIP3    H251060   0.690   0.532  11.888 -0.6618 -1.3148 -0.7734
 9857TIP3   OH251061   3.114   6.045  13.526 -0.1620  0.3227 -0.6076
 9857TIP3    H151062   3.069   5.995  13.594 -0.1460 -1.5961 -1.9066
 9857TIP3    H251063   3.070   6.129  13.524  1.1719  1.2722  3.1141
 9858TIP3   OH251064   3.163   2.849   2.366 -0.5554  0.4134  0.4809
 9858TIP3    H151065   3.088   2.792   2.386  0.4148 -0.2059  2.6476
 9858TIP3    H251066   3.202   2.811   2.288 -0.4368 -1.4489  1.3880
 9859TIP3   OH251067   3.552   0.326   3.279 -0.1181  0.0263  0.3385
 9859TIP3    H151068   3.514   0.394   3.335  1.0006  0.6324  0.3781
 9859TIP3    H251069   3.523   0.350   3.191  1.2222  1.2468  0.2002
 9860TIP3   OH251070   6.193   3.103  16.089  0.1081 -0.3780 -0.6451
 9860TIP3    H151071   6.157   3.038  16.030 -0.8321 -0.2120 -0.2708
 9860TIP3    H251072   6.134   3.103  16.164  0.6827  0.1677 -0.1765
 9861TIP3   OH251073   6.689   6.402   6.324  0.8387  0.6170  0.4948
 9861TIP3    H151074   6.776   6.426   6.354  0.8354 -0.3866  1.3318
 9861TIP3    H251075   6.630   6.454   6.379  0.8947  2.0356 -0.7221
 9862TIP3   OH251076   0.818   2.390  12.061 -0.1259 -0.3974 -0.2530
 9862TIP3    H151077   0.781   2.444  12.130  0.3631 -0.6465  0.2078
 9862TIP3    H251078   0.900   2.357  12.097 -0.1405 -0.9876 -0.7426
 9863TIP3   OH251079   4.081   6.752   1.557 -0.2611 -0.4671 -0.3770
 9863TIP3    H151080   3.986   6.743   1.543 -0.2982 -0.5484 -0.0751
 9863TIP3    H251081   4.112   6.795   1.478 -0.0963 -3.1399 -1.9184
 9864TIP3   OH251082   1.280   6.663  15.938 -0.6998  0.2164 -0.1646
 9864TIP3    H151083   1.231   6.586  15.909  0.0340 -0.7964  1.2002
 9864TIP3    H251084   1.215   6.719  15.979 -1.0824 -0.1156 -0.3132
 9865TIP3   OH251085   4.949   0.118  13.138  0.2446  0.5062  0.1936
 9865TIP3    H151086   4.987   0.202  13.114  1.2623 -0.6501 -2.6019
 9865TIP3    H251087   4.944   0.069  13.056 -0.1512 -2.2345  1.7319
 9866TIP3   OH251088   5.648   4.141  16.110 -0.1324 -0.2156  0.5007
 9866TIP3    H151089   5.613   4.219  16.069 -1.3545 -0.4774  1.0034
 9866TIP3    H251090   5.651   4.162  16.204 -0.6948 -0.8328  0.6689
 9867TIP3   OH251091   4.445   0.311   1.377 -0.1207 -0.3244 -0.0531
 9867TIP3    H151092   4.389   0.379   1.414  1.2845  0.0446  1.5019
 9867TIP3    H251093   4.464   0.253   1.450  0.7330 -0.9827 -0.7771
 9868TIP3   OH251094   2.402   4.454   1.326  0.1001  0.0138 -0.5843
 9868TIP3    H151095   2.396   4.474   1.419 -3.6155  0.8936 -0.8365
 9868TIP3    H251096   2.444   4.368   1.323 -0.1264 -0.2789  1.9445
 9869TIP3   OH251097   4.412   4.912  15.979  0.7508  0.5756 -0.3256
 9869TIP3    H151098   4.450   4.993  15.943 -0.6771  0.9180 -1.1199
 9869TIP3    H251099   4.435   4.845  15.914  2.0177  0.2999  0.3812
 9870TIP3   OH251100   6.254   2.561   4.348 -0.0454 -0.2468  0.1147
 9870TIP3    H151101   6.192   2.540   4.278 -0.6274 -1.8089  1.0566
 9870TIP3    H251102   6.319   2.491   4.345  0.6537  0.3824  0.3114
 9871TIP3   OH251103   4.481   4.867   6.342  0.5255  0.0458 -0.5363
 9871TIP3    H151104   4.505   4.806   6.271 -0.8516 -0.3611 -0.6772
 9871TIP3    H251105   4.406   4.826   6.384  0.8981  0.6302  0.7478
 9872TIP3   OH251106   0.966   5.992  14.270  0.2013 -0.0202 -0.2304
 9872TIP3    H151107   0.970   5.926  14.339  0.1469  0.0381 -0.1709
 9872TIP3    H251108   0.987   6.075  14.314 -1.7348  0.3263  0.1449
 9873TIP3   OH251109   2.101   4.387   6.208  0.2168  0.5477  0.2941
 9873TIP3    H151110   2.050   4.315   6.244  1.6541 -0.1549  1.0140
 9873TIP3    H251111   2.116   4.446   6.282 -0.0046  1.0273 -0.0348
 9874TIP3   OH251112   4.990   2.206   3.398  0.6436 -0.0891  0.1929
 9874TIP3    H151113   5.022   2.295   3.405 -0.3068  0.4300 -1.4948
 9874TIP3    H251114   4.912   2.204   3.454  0.9569 -0.0060  0.6306
 9875TIP3   OH251115   1.069   6.094  11.613 -0.3829 -0.0268 -0.0069
 9875TIP3    H151116   1.129   6.021  11.630 -0.9808 -0.5985 -0.3126
 9875TIP3    H251117   1.103   6.165  11.667  1.5272  0.1856 -1.3835
 9876TIP3   OH251118   5.960   5.340   1.612 -0.4869 -0.3183  0.7624
 9876TIP3    H151119   6.055   5.337   1.606 -0.2423  0.3980  3.2148
 9876TIP3    H251120   5.929   5.312   1.526  1.9224 -0.7624 -0.0159
 9877TIP3   OH251121   1.821   1.925  16.835  0.3437  0.1794 -0.2872
 9877TIP3    H151122   1.842   1.839  16.798 -1.6743 -0.0048 -1.1421
 9877TIP3    H251123   1.786   1.907  16.922 -0.7718  0.0389 -0.7492
 9878TIP3   OH251124   3.089   2.930   2.722 -0.1705 -0.0629 -0.0906
 9878TIP3    H151125   3.067   2.949   2.813 -0.6678 -0.6727 -0.0797
 9878TIP3    H251126   3.063   3.008   2.674  1.1628  0.7441  0.4307
 9879TIP3   OH251127   6.275   4.313  11.474  0.0310  0.0113  0.0092
 9879TIP3    H151128   6.292   4.395  11.428  1.1795 -0.3280 -0.1859
 9879TIP3    H251129   6.246   4.341  11.561  0.5935  0.6281  0.0108
 9880TIP3   OH251130   0.340   3.776   6.360 -0.0110  0.2218 -0.0925
 9880TIP3    H151131   0.389   3.799   6.438  1.7653  2.5944 -1.7705
 9880TIP3    H251132   0.248   3.790   6.384  0.3969 -0.0104  1.7801
 9881TIP3   OH251133   5.976   6.178  13.199 -0.0839  0.3905  0.4905
 9881TIP3    H151134   5.919   6.165  13.275  0.7107  1.4801  1.3056
 9881TIP3    H251135   5.971   6.271  13.181  1.0679  0.4271  0.2835
 9882TIP3   OH251136   5.149   2.089   1.554 -0.5102 -0.5784 -0.3066
 9882TIP3    H151137   5.223   2.115   1.498 -0.4613  0.3747  0.1775
 9882TIP3    H251138   5.111   2.013   1.510 -0.5985  0.2671 -1.7638
 9883TIP3   OH251139   1.077   0.236  10.555  0.0427  0.0968  0.4394
 9883TIP3    H151140   1.042   0.167  10.611  0.1088  1.4477  2.2133
 9883TIP3    H251141   1.150   0.195  10.509 -0.1664 -1.1181  1.1595
 9884TIP3   OH251142   2.066   1.099  15.795 -0.1289  0.4614 -0.1428
 9884TIP3    H151143   2.020   1.120  15.713 -1.5874  1.9281  0.9768
 9884TIP3    H251144   2.155   1.129  15.781 -0.1835  0.1009 -1.4103
 9885TIP3   OH251145   2.816   1.296  15.914 -0.1480 -0.7599  0.6615
 9885TIP3    H151146   2.773   1.260  15.837 -0.9182 -0.0962  0.7642
 9885TIP3    H251147   2.900   1.330  15.882 -0.1366 -1.1569  0.2661
 9886TIP3   OH251148   1.085   3.339   1.992  0.3887  0.1978  0.4664
 9886TIP3    H151149   1.155   3.380   1.941 -0.0977 -0.0231 -0.3997
 9886TIP3    H251150   1.093   3.377   2.079  2.6800 -1.0733  0.8931
 9887TIP3   OH251151   1.836   2.633   4.972  0.2918 -0.6030  0.2148
 9887TIP3    H151152   1.918   2.650   4.925 -1.3140 -0.9730 -2.9972
 9887TIP3    H251153   1.812   2.544   4.947 -0.9219 -0.6400  1.3905
 9888TIP3   OH251154   2.819   2.283  11.376 -0.1265  0.5606 -0.1627
 9888TIP3    H151155   2.780   2.220  11.436 -0.2618  2.0758  1.4117
 9888TIP3    H251156   2.760   2.284  11.300  0.7632 -2.3393 -1.0080
 9889TIP3   OH251157   3.417   1.019   4.346  0.1998  0.4466 -0.2780
 9889TIP3    H151158   3.404   0.991   4.255  0.1482 -1.6349  0.3198
 9889TIP3    H251159   3.511   1.009   4.361 -0.0342 -0.9708  0.3984
 9890TIP3   OH251160   6.647   0.923   0.657 -1.5373 -0.1107 -0.2469
 9890TIP3    H151161   6.659   0.831   0.635  0.1142 -0.2765  1.1149
 9890TIP3    H251162   6.617   0.964   0.576 -3.8463 -2.0767 -0.4854
 9891TIP3   OH251163   4.028   6.088  16.407 -0.0779 -0.2210 -0.8875
 9891TIP3    H151164   4.122   6.099  16.397 -0.0232 -0.9106 -1.1527
 9891TIP3    H251165   4.002   6.027  16.338 -0.5618 -0.7764 -0.2393
 9892TIP3   OH251166   3.354   3.888   2.101  0.0179  0.0217  0.0468
 9892TIP3    H151167   3.267   3.927   2.107  1.6425  4.0807  0.8211
 9892TIP3    H251168   3.362   3.861   2.009 -0.5020  4.1554 -1.4243
 9893TIP3   OH251169   0.784   2.995  17.042  0.3791 -0.0450  0.2810
 9893TIP3    H151170   0.810   3.064  16.981  3.8533 -1.0015  0.4585
 9893TIP3    H251171   0.779   2.916  16.988  1.5977 -0.5373  0.8319
 9894TIP3   OH251172   5.116   1.911  12.878  0.0356  0.1724  0.1459
 9894TIP3    H151173   5.074   1.995  12.861 -0.0387 -0.2295 -2.0164
 9894TIP3    H251174   5.144   1.881  12.791  0.9628 -1.5616  0.9979
 9895TIP3   OH251175   6.802   0.112  16.332  0.3187  0.4454  0.9955
 9895TIP3    H151176   6.725   0.164  16.353  1.4250  1.5384  2.5421
 9895TIP3    H251177   6.788   0.029  16.377 -0.8398 -0.1718 -0.4041
 9896TIP3   OH251178   5.690   0.091   4.604 -0.2511  0.0163  0.4985
 9896TIP3    H151179   5.694   0.107   4.509 -0.0139 -1.0463  0.3175
 9896TIP3    H251180   5.631   0.159   4.637 -1.6153 -0.5621 -0.6368
 9897TIP3   OH251181   3.600   4.249  14.995  0.3527 -0.0683  0.3418
 9897TIP3    H151182   3.515   4.270  14.955  0.9887 -1.1657 -1.7379
 9897TIP3    H251183   3.660   4.316  14.961  1.0802 -1.4969 -1.3659
 9898TIP3   OH251184   0.227   5.682   0.257 -0.0739  0.0635 -0.3291
 9898TIP3    H151185   0.172   5.664   0.333  0.8550  1.7700  0.8217
 9898TIP3    H251186   0.295   5.614   0.261 -0.4981 -0.3544 -0.1206
 9899TIP3   OH251187   6.446   6.248   1.822  0.5896  0.3551 -0.2139
 9899TIP3    H151188   6.370   6.273   1.874 -0.5872 -2.1542 -0.5828
 9899TIP3    H251189   6.430   6.287   1.736  0.3542  0.8788  0.0639
 9900TIP3   OH251190   4.160   3.693  16.531  0.0910 -0.1917  0.4599
 9900TIP3    H151191   4.108   3.763  16.570  1.5063  0.1838  1.7633
 9900TIP3    H251192   4.156   3.710  16.437 -2.0706 -0.1720  0.4956
 9901TIP3   OH251193   3.359   1.582   1.707 -0.8405  0.2249  0.1768
 9901TIP3    H151194   3.271   1.558   1.737 -1.0077  1.0996  0.4122
 9901TIP3    H251195   3.411   1.584   1.787 -0.3150 -1.4167 -0.0888
 9902TIP3   OH251196   3.535   6.773  11.975  0.3679  0.1492  0.2103
 9902TIP3    H151197   3.593   6.803  11.906 -0.9398  0.0633 -0.9758
 9902TIP3    H251198   3.467   6.841  11.981  0.8465  0.5258  1.9428
 9903TIP3   OH251199   6.673   6.225  15.636  0.0204  0.4411 -0.0936
 9903TIP3    H151200   6.598   6.239  15.694 -0.9822 -0.7442 -1.0437
 9903TIP3    H251201   6.641   6.249  15.549  1.2772  1.4828 -0.2960
 9904TIP3   OH251202   5.374   0.403   5.645 -0.5732 -0.6699  0.3699
 9904TIP3    H151203   5.460   0.392   5.688 -0.3909  1.0765  0.5191
 9904TIP3    H251204   5.312   0.367   5.708 -0.3334  2.0926  2.3739
 9905TIP3   OH251205   6.149   6.683  11.104  0.5719 -0.4586 -0.9453
 9905TIP3    H151206   6.144   6.593  11.073 -1.5016 -0.3976 -0.8799
 9905TIP3    H251207   6.065   6.721  11.081  0.8022  0.9972  0.4885
 9906TIP3   OH251208   4.739   4.806  14.367  0.3517  0.2995 -0.1011
 9906TIP3    H151209   4.649   4.833  14.348  0.6904  0.3849 -1.7721
 9906TIP3    H251210   4.773   4.874  14.425 -0.6099  0.3280  0.4545
 9907TIP3   OH251211   2.735   0.077  11.787  0.8676 -0.7306 -0.1314
 9907TIP3    H151212   2.725  -0.012  11.752  0.5436 -0.7316 -0.0313
 9907TIP3    H251213   2.649   0.100  11.820  0.4023  0.4595 -2.0796
 9908TIP3   OH251214   4.323   2.741   3.748 -0.5530  0.2621 -0.7027
 9908TIP3    H151215   4.285   2.700   3.826  1.8740 -0.5727  0.1453
 9908TIP3    H251216   4.346   2.830   3.777  0.0411  0.0615 -0.5341
 9909TIP3   OH251217   3.286   0.721   2.539  0.0171  0.2097 -0.0994
 9909TIP3    H151218   3.259   0.674   2.460 -1.0709  1.7631 -0.6942
 9909TIP3    H251219   3.208   0.721   2.595  0.0993  1.0063  0.0240
 9910TIP3   OH251220   1.908   1.798  14.045  0.0303  0.1029  0.0374
 9910TIP3    H151221   1.852   1.732  14.086  2.1546 -2.0166 -0.2916
 9910TIP3    H251222   1.853   1.837  13.977 -2.5170  1.4518  2.6576
 9911TIP3   OH251223   2.408   5.113   0.300 -0.3755  0.8124  0.2158
 9911TIP3    H151224   2.408   5.027   0.342  0.0557  0.9582  0.5182
 9911TIP3    H251225   2.435   5.095   0.209  1.2671  0.7998  0.6698
 9912TIP3   OH251226   4.559   3.550   3.273 -0.4491  0.1691  0.3784
 9912TIP3    H151227   4.509   3.472   3.250  0.3035 -0.0798 -0.5220
 9912TIP3    H251228   4.571   3.596   3.190  0.5078  0.3896  0.6213
 9913TIP3   OH251229   5.967   2.758  13.622  0.3689 -0.4091  0.1403
 9913TIP3    H151230   6.047   2.807  13.643  0.4452  0.1785 -1.4207
 9913TIP3    H251231   5.998   2.682  13.574  0.0202 -0.4333 -0.0446
 9914TIP3   OH251232   6.116   6.263   3.780 -0.0462  0.1881 -0.0481
 9914TIP3    H151233   6.026   6.238   3.760 -0.5559 -0.5691  2.7305
 9914TIP3    H251234   6.124   6.353   3.749 -1.1021 -0.3645 -2.0884
 9915TIP3   OH251235   4.873   2.766   2.131  0.6343 -0.1631 -0.0703
 9915TIP3    H151236   4.822   2.790   2.054 -0.7538 -1.3059  0.4365
 9915TIP3    H251237   4.923   2.845   2.153 -0.4906  0.8236 -0.9271
 9916TIP3   OH251238   5.174   1.879   3.003  0.3987 -0.0489 -0.3826
 9916TIP3    H151239   5.157   1.815   3.072  0.6647 -0.4145 -0.6583
 9916TIP3    H251240   5.089   1.921   2.988  0.3028 -0.0866  0.0453
 9917TIP3   OH251241   5.833   3.587  13.157 -0.2079  0.4204  0.0697
 9917TIP3    H151242   5.863   3.553  13.072 -1.5006  0.7375 -0.5303
 9917TIP3    H251243   5.912   3.588  13.211  0.5532 -0.2059 -0.9889
 9918TIP3   OH251244   0.117   4.041  13.747  0.0694  0.4312  0.5689
 9918TIP3    H151245   0.094   4.032  13.654 -1.0713 -1.9893  1.0169
 9918TIP3    H251246   0.213   4.044  13.747  0.3309 -3.0341 -0.5902
 9919TIP3   OH251247   5.942   5.371  13.852 -0.8158  0.6010 -0.6787
 9919TIP3    H151248   6.024   5.354  13.898 -1.6709  0.4035  0.8475
 9919TIP3    H251249   5.931   5.296  13.793  1.2923  1.8352 -2.7836
 9920TIP3   OH251250   3.468   6.819   2.264 -0.2879 -0.0667  0.3073
 9920TIP3    H151251   3.493   6.910   2.245 -0.7409 -0.2266 -1.1636
 9920TIP3    H251252   3.526   6.793   2.335  1.3365  0.6748 -0.6920
 9921TIP3   OH251253   4.307   3.857   4.290 -0.5343 -0.2281  0.1910
 9921TIP3    H151254   4.379   3.853   4.352 -0.4865  1.3885  0.2690
 9921TIP3    H251255   4.235   3.810   4.334 -0.2285  0.1173  1.0844
 9922TIP3   OH251256   6.441   6.006  11.659  0.2806 -0.6299  0.0786
 9922TIP3    H151257   6.431   6.100  11.667  1.2560 -0.6521  2.5370
 9922TIP3    H251258   6.359   5.969  11.692  0.1317 -0.6699 -0.3234
 9923TIP3   OH251259   1.049   1.196  11.869  0.1267 -0.1252 -0.3884
 9923TIP3    H151260   1.006   1.220  11.950 -0.0786 -0.7128 -0.3173
 9923TIP3    H251261   1.104   1.121  11.892  0.8849  0.3576 -0.5655
 9924TIP3   OH251262   5.705   0.352  14.450  0.0985  0.0448  0.4539
 9924TIP3    H151263   5.797   0.333  14.469  0.8474  2.0580 -0.8333
 9924TIP3    H251264   5.675   0.407  14.522  0.5732  1.1779 -0.2003
 9925TIP3   OH251265   1.326   2.501  13.011 -0.3372  0.2277  0.2757
 9925TIP3    H151266   1.294   2.587  12.984  1.1378  0.2740 -1.4976
 9925TIP3    H251267   1.421   2.510  13.012 -0.2098 -0.8809  1.9293
 9926TIP3   OH251268   4.701   3.561   2.499  0.0055  0.0233 -0.2488
 9926TIP3    H151269   4.625   3.541   2.445 -0.2190  1.6215 -0.5664
 9926TIP3    H251270   4.769   3.500   2.467  0.0341  1.2129 -2.7231
 9927TIP3   OH251271   4.539   6.023   3.093  0.2966  0.3069  0.4224
 9927TIP3    H151272   4.503   5.949   3.044  0.4504  0.2319  0.4245
 9927TIP3    H251273   4.474   6.093   3.081  0.5221  0.4140 -0.2168
 9928TIP3   OH251274   1.730   2.104  14.065  0.0769 -0.1849  0.0013
 9928TIP3    H151275   1.757   2.090  13.975 -1.0682 -3.2600  0.0090
 9928TIP3    H251276   1.810   2.093  14.116  0.6149  0.9818 -0.5538
 9929TIP3   OH251277   5.519   1.867  17.148  0.6298 -0.1640 -0.3265
 9929TIP3    H151278   5.430   1.892  17.174  2.1083  3.3431  2.1387
 9929TIP3    H251279   5.536   1.785  17.194 -1.4465 -1.2634 -1.3702
 9930TIP3   OH251280   2.244   0.970  14.398  0.0324  0.3073 -0.5983
 9930TIP3    H151281   2.167   0.916  14.412 -1.0272  1.8067 -0.3467
 9930TIP3    H251282   2.255   0.972  14.303  0.2772 -0.5933 -0.5940
 9931TIP3   OH251283   0.687   0.754  11.184  0.3743  0.1601 -0.3135
 9931TIP3    H151284   0.684   0.762  11.279  1.7715  0.4004 -0.2675
 9931TIP3    H251285   0.721   0.838  11.153 -0.2018  0.1394 -1.0375
 9932TIP3   OH251286   3.270   3.977  16.595  0.3028 -0.1178 -0.5715
 9932TIP3    H151287   3.186   3.985  16.640 -0.1613  0.0636 -1.4484
 9932TIP3    H251288   3.324   4.047  16.633  0.1980 -0.4934  0.2830
 9933TIP3   OH251289   2.641   4.470   4.914 -0.4172  0.0336  0.5450
 9933TIP3    H151290   2.581   4.468   4.839  0.3826  0.4479 -0.1289
 9933TIP3    H251291   2.589   4.441   4.988 -1.0944 -0.8700 -0.2728
 9934TIP3   OH251292   6.473   0.130   3.647  0.4073  1.0363  0.7051
 9934TIP3    H151293   6.454   0.036   3.652  0.5134  1.0534  1.7233
 9934TIP3    H251294   6.491   0.146   3.555  0.1476  0.0986  0.4803
 9935TIP3   OH251295   3.000   5.956  14.834  0.2491  0.1988 -0.1212
 9935TIP3    H151296   2.930   5.988  14.777 -0.0103  1.3903  0.8100
 9935TIP3    H251297   3.080   5.975  14.785 -0.0267 -0.1829 -0.7328
 9936TIP3   OH251298   1.631   0.216  14.410  0.1267 -0.2332 -0.0356
 9936TIP3    H151299   1.694   0.166  14.462 -0.2194  0.3749  0.9863
 9936TIP3    H251300   1.547   0.174  14.426 -1.0938  3.1407  4.5265
 9937TIP3   OH251301   4.216   6.480   3.930  0.3123 -0.4364  0.4360
 9937TIP3    H151302   4.143   6.464   3.990  0.6554  0.0090  0.9865
 9937TIP3    H251303   4.188   6.556   3.879  0.0956 -0.7042  0.1525
 9938TIP3   OH251304   4.559   6.772   2.139  0.1539  0.0540 -0.3184
 9938TIP3    H151305   4.616   6.709   2.184  0.9860  0.6146 -0.5683
 9938TIP3    H251306   4.619   6.833   2.097 -0.6380  0.5642 -0.7311
 9939TIP3   OH251307   4.971   3.156  15.229  0.0771  0.0511  0.5589
 9939TIP3    H151308   4.939   3.075  15.191 -1.4956  0.8472  0.0775
 9939TIP3    H251309   4.920   3.166  15.310  1.2322 -0.1091  1.3306
 9940TIP3   OH251310   0.427   6.245  13.107 -0.9956  0.1127  0.4774
 9940TIP3    H151311   0.377   6.314  13.063 -2.6603 -1.3486 -0.0229
 9940TIP3    H251312   0.385   6.236  13.193 -0.1007  0.4263  0.9609
 9941TIP3   OH251313   3.673   2.578  10.860  0.1313 -0.6930 -0.2983
 9941TIP3    H151314   3.753   2.530  10.879  1.3893  2.1038  2.4336
 9941TIP3    H251315   3.626   2.580  10.943  0.1377  2.5419 -0.2565
 9942TIP3   OH251316   5.075   2.541  14.585  0.1767  0.4042 -1.1646
 9942TIP3    H151317   5.074   2.603  14.658  1.1258 -0.2880 -0.5494
 9942TIP3    H251318   5.043   2.459  14.622  0.7921  0.0101 -1.4856
 9943TIP3   OH251319   2.528   5.873   0.040  0.0852 -0.2946 -0.2978
 9943TIP3    H151320   2.603   5.931   0.052 -0.4145  0.3237 -0.0815
 9943TIP3    H251321   2.564   5.795  -0.002  0.6857  0.4091 -1.1348
 9944TIP3   OH251322   0.942   6.782  15.018 -0.1051 -0.2029 -0.2663
 9944TIP3    H151323   1.033   6.805  15.000 -0.4095  0.5034 -0.9652
 9944TIP3    H251324   0.896   6.866  15.019 -0.5375 -0.4381  1.3715
 9945TIP3   OH251325   3.230   2.757   5.969  0.0894 -0.4364  0.3856
 9945TIP3    H151326   3.287   2.732   6.041  1.7044  0.3911 -0.5432
 9945TIP3    H251327   3.228   2.679   5.912 -0.6117 -0.8409  0.9486
 9946TIP3   OH251328   0.353   5.426  16.918  0.0531  0.3100  0.6070
 9946TIP3    H151329   0.383   5.337  16.936 -3.6854 -1.6846 -1.6765
 9946TIP3    H251330   0.371   5.438  16.824 -1.7742  0.8784  0.2969
 9947TIP3   OH251331   6.446   1.932  12.408 -0.3761 -0.4766 -0.5688
 9947TIP3    H151332   6.536   1.903  12.426 -0.0700  0.2109 -0.9674
 9947TIP3    H251333   6.449   2.027  12.421 -0.6790 -0.2485 -2.0335
 9948TIP3   OH251334   1.005   2.614   3.732  0.3062 -0.2950  0.3504
 9948TIP3    H151335   1.034   2.681   3.794  0.5554  0.0716 -0.1488
 9948TIP3    H251336   0.935   2.567   3.778 -0.8657  1.2139  0.2243
 9949TIP3   OH251337   3.277   3.134   5.470 -0.3786  0.4293 -0.3286
 9949TIP3    H151338   3.265   3.039   5.480  2.7437  0.0957  1.4827
 9949TIP3    H251339   3.291   3.166   5.560  1.6794  2.0532 -1.1355
 9950TIP3   OH251340   5.927   3.511   0.864 -0.0109  0.0112  0.3585
 9950TIP3    H151341   5.981   3.479   0.792 -1.2834 -0.0290 -0.6000
 9950TIP3    H251342   5.967   3.473   0.942 -0.0303 -1.9265 -0.5254
 9951TIP3   OH251343   4.395   1.522   2.012 -0.1650  0.0992  0.0016
 9951TIP3    H151344   4.390   1.587   2.082 -3.0658 -0.4953  0.4921
 9951TIP3    H251345   4.322   1.543   1.954  0.7657 -0.8382 -1.5905
 9952TIP3   OH251346   4.585   1.231  15.119 -0.6579 -0.0642 -0.0784
 9952TIP3    H151347   4.583   1.315  15.072 -2.9192 -0.0444 -0.0645
 9952TIP3    H251348   4.492   1.209  15.131 -0.1033 -2.2253  0.5430
 9953TIP3   OH251349   2.427   0.577  13.227  0.0666  0.9180 -0.1583
 9953TIP3    H151350   2.510   0.530  13.227 -0.0716  0.6695 -0.0718
 9953TIP3    H251351   2.437   0.645  13.161  0.3628  0.9302 -0.0990
 9954TIP3   OH251352   1.063   5.662   5.910  0.1016  0.0336  0.0545
 9954TIP3    H151353   0.986   5.718   5.916  0.5821  0.5844  1.4236
 9954TIP3    H251354   1.041   5.585   5.962 -0.5560 -1.1191 -1.8146
 9955TIP3   OH251355   2.151   0.796  15.571 -0.1320 -0.1092 -0.1771
 9955TIP3    H151356   2.068   0.798  15.618 -0.1356 -2.2822  0.0330
 9955TIP3    H251357   2.185   0.885  15.577 -0.1757 -0.1871  3.9000
 9956TIP3   OH251358   3.919   1.204   2.093  0.3809  0.2656 -0.7523
 9956TIP3    H151359   4.001   1.224   2.138 -1.5613  2.0279  2.3642
 9956TIP3    H251360   3.900   1.114   2.118  2.1298 -0.8618 -3.0510
 9957TIP3   OH251361   3.186   1.427  12.618 -0.8748  0.2800  0.0720
 9957TIP3    H151362   3.235   1.358  12.663 -1.6958  0.3168  1.0641
 9957TIP3    H251363   3.233   1.440  12.536 -0.1928 -0.8354  0.2617
 9958TIP3   OH251364   0.334   3.820   0.010  0.5674 -0.7867  0.4387
 9958TIP3    H151365   0.263   3.880   0.031  0.9670  0.2825 -0.9932
 9958TIP3    H251366   0.320   3.798  -0.083  2.5089  0.1286 -0.1327
 9959TIP3   OH251367   1.695   5.586   2.721  0.0650 -0.0890  0.0119
 9959TIP3    H151368   1.701   5.660   2.781  0.2550  0.2666 -0.4496
 9959TIP3    H251369   1.785   5.554   2.713  0.0840  0.0629 -0.3453
 9960TIP3   OH251370   5.466   1.317  11.790 -0.2332  0.0419  0.2771
 9960TIP3    H151371   5.473   1.232  11.833  1.1400  0.8230  1.7218
 9960TIP3    H251372   5.481   1.380  11.860 -0.8620  1.4696 -0.8310
 9961TIP3   OH251373   4.271   4.867   0.271  0.5437 -0.2589  0.2364
 9961TIP3    H151374   4.230   4.853   0.356 -1.4530  1.1287 -0.4423
 9961TIP3    H251375   4.272   4.780   0.231 -0.8250 -0.5040  0.6956
 9962TIP3   OH251376   3.494   5.363  11.200 -0.3620  0.8316 -0.1286
 9962TIP3    H151377   3.438   5.290  11.172  0.5026  0.1583 -0.1479
 9962TIP3    H251378   3.490   5.426  11.128  1.6905 -0.7823 -1.7741
 9963TIP3   OH251379   6.813   4.827  12.163  0.3607  0.6170 -0.0158
 9963TIP3    H151380   6.904   4.855  12.175  0.6064  0.4052 -1.2576
 9963TIP3    H251381   6.811   4.789  12.075 -0.6665 -0.4532  0.4429
 9964TIP3   OH251382   3.925   2.538   3.773 -0.2863 -0.0631  0.0511
 9964TIP3    H151383   3.831   2.526   3.761 -0.4568  1.9709 -1.1318
 9964TIP3    H251384   3.933   2.625   3.812  1.1201 -0.0668 -0.1950
 9965TIP3   OH251385   1.850   4.706  10.904  0.6579 -0.2327 -0.0408
 9965TIP3    H151386   1.921   4.642  10.893  0.2753 -0.4757 -1.2330
 9965TIP3    H251387   1.799   4.699  10.823  0.3414  1.2687  0.0036
 9966TIP3   OH251388   0.609   2.374  15.381  0.1318  0.4080  0.1340
 9966TIP3    H151389   0.564   2.454  15.405  0.5830  0.4470  0.8970
 9966TIP3    H251390   0.682   2.403  15.326 -0.2258  0.4316 -0.3311
 9967TIP3   OH251391   4.185   6.478   3.521 -0.0881 -0.4847 -0.0776
 9967TIP3    H151392   4.129   6.547   3.556 -1.5349 -2.2105  1.1380
 9967TIP3    H251393   4.245   6.525   3.462 -1.6736  1.6596 -0.1304
 9968TIP3   OH251394   2.869   0.215  15.849  0.2321  0.4799  0.6907
 9968TIP3    H151395   2.926   0.142  15.873  0.5797  0.1602 -0.9582
 9968TIP3    H251396   2.922   0.293  15.867  0.2072  0.3034  1.5791
 9969TIP3   OH251397   1.868   6.642   5.335 -0.1003 -0.0924  0.0383
 9969TIP3    H151398   1.822   6.702   5.392 -0.6278 -0.5530  0.1046
 9969TIP3    H251399   1.960   6.650   5.360 -0.0184  1.4214 -0.6435
 9970TIP3   OH251400   1.977   3.672   4.323 -0.6658  0.1092  0.0667
 9970TIP3    H151401   1.987   3.747   4.382  1.7498 -1.0235  1.2586
 9970TIP3    H251402   2.007   3.704   4.238 -0.9823  0.8372  0.2136
 9971TIP3   OH251403   2.118   3.839  10.746 -0.5524 -0.0374 -0.0501
 9971TIP3    H151404   2.158   3.830  10.833 -0.0433  0.8560 -0.1874
 9971TIP3    H251405   2.190   3.827  10.684 -0.8946 -0.5624 -0.3541
 9972TIP3   OH251406   5.067   5.327   5.097  0.2791 -0.1311  0.0906
 9972TIP3    H151407   5.153   5.355   5.128 -0.3287 -0.1778  1.9532
 9972TIP3    H251408   5.086   5.269   5.023  1.7919  0.5677 -0.1059
 9973TIP3   OH251409   2.647   1.836  16.066  0.4396  0.1973  0.5199
 9973TIP3    H151410   2.607   1.896  16.003 -0.1159 -0.0018  0.6817
 9973TIP3    H251411   2.692   1.893  16.129  2.5857  0.3782 -1.0561
 9974TIP3   OH251412   3.987   5.908   5.336 -0.5395  0.4996 -0.0371
 9974TIP3    H151413   3.903   5.878   5.300 -0.1827 -0.3259 -0.1980
 9974TIP3    H251414   3.967   5.932   5.426 -1.0272  0.6689 -0.1884
 9975TIP3   OH251415   6.635   4.238  11.035 -0.6686 -0.7030  0.3665
 9975TIP3    H151416   6.629   4.202  11.123 -1.0954  1.2554  1.1839
 9975TIP3    H251417   6.549   4.224  10.996 -0.5890 -1.2403  0.3759
 9976TIP3   OH251418   6.604   6.546   1.168 -0.2520  0.4320  0.2071
 9976TIP3    H151419   6.695   6.557   1.141 -0.0573 -1.3673 -0.0253
 9976TIP3    H251420   6.563   6.501   1.095 -0.7881 -0.6711  1.1581
 9977TIP3   OH251421   4.607   3.765   5.369 -0.3946  0.2529 -0.1506
 9977TIP3    H151422   4.568   3.692   5.417  0.9398 -0.8608 -0.7015
 9977TIP3    H251423   4.592   3.841   5.425 -2.0862 -0.3621  0.2963
 9978TIP3   OH251424   2.102   6.318  17.196  0.1107  0.1774 -0.0789
 9978TIP3    H151425   2.073   6.292  17.109 -0.6971 -2.4736  0.8939
 9978TIP3    H251426   2.033   6.378  17.227  0.1278  0.7018 -1.0239
 9979TIP3   OH251427   0.553   3.826  14.560 -0.2037 -0.1203  0.0666
 9979TIP3    H151428   0.640   3.851  14.590  0.1443 -0.8947 -0.2756
 9979TIP3    H251429   0.526   3.757  14.622 -0.3959 -0.1746 -0.0776
 9980TIP3   OH251430   4.828   2.964  16.461 -0.0777  0.0055  0.2002
 9980TIP3    H151431   4.778   2.883  16.472  0.1408 -0.4895 -1.8782
 9980TIP3    H251432   4.778   3.030  16.509 -2.1767 -0.6828 -0.8860
 9981TIP3   OH251433   6.311   3.650   4.837  0.1340 -0.1119  0.1859
 9981TIP3    H151434   6.243   3.584   4.823 -1.0160  1.1855 -0.6057
 9981TIP3    H251435   6.390   3.612   4.800 -0.0941 -1.7028  1.2177
 9982TIP3   OH251436   5.862   1.108   5.402 -0.2488 -1.0419 -0.6917
 9982TIP3    H151437   5.827   1.018   5.408 -3.7850  0.0306 -2.3078
 9982TIP3    H251438   5.786   1.164   5.421  1.3197  1.6194 -1.7955
 9983TIP3   OH251439   4.087   1.399  11.581 -0.1475  0.1310  0.4572
 9983TIP3    H151440   4.100   1.310  11.549  1.1333 -0.0405  1.3938
 9983TIP3    H251441   4.091   1.454  11.503  0.6936 -0.4762  0.0670
 9984TIP3   OH251442   0.698   3.840  14.050  0.1766  0.2223 -0.0096
 9984TIP3    H151443   0.718   3.934  14.051 -2.3498  0.8347 -0.7987
 9984TIP3    H251444   0.633   3.829  14.120  0.3344 -0.9398 -0.0277
 9985TIP3   OH251445   6.236   5.105  16.184 -0.3137  0.6216 -0.8102
 9985TIP3    H151446   6.140   5.098  16.182 -0.4087  1.6619 -0.6049
 9985TIP3    H251447   6.253   5.199  16.178  0.6471  0.5666  0.5728
 9986TIP3   OH251448   5.880   1.772   5.881  0.0492  0.1803 -0.1516
 9986TIP3    H151449   5.842   1.692   5.919 -0.3286  0.7069  0.6090
 9986TIP3    H251450   5.919   1.743   5.799 -0.9571 -0.6120 -0.3808
 9987TIP3   OH251451   5.035   0.962   5.434  0.4759  0.0392 -0.3148
 9987TIP3    H151452   5.001   0.872   5.439  1.2218 -0.1944  1.2988
 9987TIP3    H251453   4.967   1.010   5.387 -0.6028 -1.0819  0.0214
 9988TIP3   OH251454   4.567   4.194   5.548 -0.4629 -0.2659  0.1423
 9988TIP3    H151455   4.631   4.124   5.564 -0.0875  0.5214  2.4650
 9988TIP3    H251456   4.493   4.173   5.606 -0.7129  0.7804  0.2210
 9989TIP3   OH251457   1.277   4.996  14.410  0.0178  0.3224  0.0667
 9989TIP3    H151458   1.296   4.957  14.325  1.5227  0.4353  0.3322
 9989TIP3    H251459   1.200   4.948  14.441 -0.2589 -0.0482 -1.1355
 9990TIP3   OH251460   0.766   2.727   5.803  0.0055 -0.0301 -0.2675
 9990TIP3    H151461   0.819   2.656   5.838  0.1673 -0.0322 -0.5110
 9990TIP3    H251462   0.705   2.749   5.873  0.5056  0.1518  0.1155
 9991TIP3   OH251463   2.947   6.429   3.712 -0.4441  0.7304 -0.2448
 9991TIP3    H151464   2.996   6.357   3.672 -0.8922 -0.0143  0.5222
 9991TIP3    H251465   2.999   6.507   3.692  0.2398  0.1540 -0.7710
 9992TIP3   OH251466   3.792   6.443  14.594  0.4395 -0.2196  0.1308
 9992TIP3    H151467   3.870   6.480  14.554  0.6365 -0.8110 -0.0387
 9992TIP3    H251468   3.786   6.354  14.558 -1.5637  0.5330 -1.6236
 9993TIP3   OH251469   2.468   3.438  15.502 -0.3367 -0.3394 -0.5817
 9993TIP3    H151470   2.550   3.478  15.475  0.0884 -1.4487 -0.9695
 9993TIP3    H251471   2.406   3.462  15.433 -0.0135 -0.5910 -0.9637
 9994TIP3   OH251472   5.555   1.485  17.057  0.1362  0.1902  0.0084
 9994TIP3    H151473   5.470   1.501  17.017 -0.7769 -1.1739  1.2925
 9994TIP3    H251474   5.592   1.572  17.070 -1.6728  0.9159  0.6708
 9995TIP3   OH251475   1.099   4.948  16.285 -0.2928 -0.0332  0.0758
 9995TIP3    H151476   1.005   4.934  16.280 -0.4642  0.6346  1.2241
 9995TIP3    H251477   1.137   4.861  16.270 -1.1601 -0.6860  1.4357
 9996TIP3   OH251478   6.311   0.708  15.797  0.5789  0.5183 -0.5407
 9996TIP3    H151479   6.326   0.779  15.734 -1.5786  0.2081 -1.5004
 9996TIP3    H251480   6.293   0.631  15.742 -2.2167  0.4226  0.3475
 9997TIP3   OH251481   2.969   2.310  14.753 -0.0476 -0.6827  0.8461
 9997TIP3    H151482   2.985   2.358  14.672 -0.6230 -0.8007  0.6592
 9997TIP3    H251483   3.055   2.279  14.780  0.2605  0.0488  0.7166
 9998TIP3   OH251484   0.633   1.312   4.203  0.2455 -0.0391 -0.2510
 9998TIP3    H151485   0.555   1.324   4.148  0.6852  0.4504 -0.7837
 9998TIP3    H251486   0.689   1.387   4.181  0.7188 -0.1991  0.3830
 9999TIP3   OH251487   2.636   1.402   3.990 -0.7536  0.0457  0.0844
 9999TIP3    H151488   2.650   1.412   3.895 -2.2229  0.4643 -0.1210
 9999TIP3    H251489   2.627   1.492   4.022  1.1151 -0.0176  0.8870
10000TIP3   OH251490   4.779   3.698  12.434  0.1907 -0.3344  0.0812
10000TIP3    H151491   4.753   3.655  12.352 -0.4256  1.6934 -0.8426
10000TIP3    H251492   4.729   3.780  12.436  1.7507  0.6574  1.4558
10001TIP3   OH251493   4.378   0.314  14.443 -0.2679  0.0123 -0.5273
10001TIP3    H151494   4.358   0.403  14.413 -2.0781  0.0540  0.6668
10001TIP3    H251495   4.305   0.261  14.412  1.1234 -1.2375 -1.8127
10002TIP3   OH251496   4.591   2.100   4.264  0.7904  0.0006  0.0268
10002TIP3    H151497   4.589   2.081   4.170  2.5212 -1.5127  0.2487
10002TIP3    H251498   4.681   2.124   4.283  0.5033  0.1599  1.3287
10003TIP3   OH251499   1.850   0.939   2.898  0.0115  0.3105  0.1269
10003TIP3    H151500   1.815   0.851   2.885  0.9314 -0.1509  0.6364
10003TIP3    H251501   1.934   0.939   2.852  0.8361  0.3363  1.5558
10004TIP3   OH251502   4.696   4.715  15.127  0.6732  0.0929  0.1511
10004TIP3    H151503   4.713   4.683  15.215  0.3891 -0.3896  0.0411
10004TIP3    H251504   4.605   4.688  15.109 -0.2123  2.5096  0.7052
10005TIP3   OH251505   0.496   4.898   5.937 -0.0531 -0.2483 -0.2166
10005TIP3    H151506   0.407   4.922   5.912 -0.2026 -0.4240  0.1427
10005TIP3    H251507   0.508   4.936   6.024  0.4717  0.3804 -0.5455
10006TIP3   OH251508   0.863   3.604   1.145 -0.0357  0.4276  0.1305
10006TIP3    H151509   0.889   3.606   1.053 -0.0248  2.2729  0.1255
10006TIP3    H251510   0.945   3.612   1.193 -0.1397  0.9301  0.2395
10007TIP3   OH251511   0.279   1.752  14.227 -0.0841  1.0200  0.3706
10007TIP3    H151512   0.241   1.839  14.220 -1.3732  0.3573 -2.0400
10007TIP3    H251513   0.211   1.699  14.269 -0.9786  0.3755 -1.7450
10008TIP3   OH251514   1.164   1.089   5.105  0.0748  0.3418  0.1060
10008TIP3    H151515   1.114   1.170   5.118 -1.1709 -0.6212  1.7703
10008TIP3    H251516   1.239   1.115   5.052 -0.8288  2.3770 -0.2673
10009TIP3   OH251517   3.906   6.183  14.773  0.0357  0.0014 -0.4639
10009TIP3    H151518   3.918   6.278  14.761 -0.8079 -0.1521 -3.2607
10009TIP3    H251519   3.957   6.143  14.703 -1.2843 -1.5133 -0.6131
10010TIP3   OH251520   5.894   4.196  12.791  0.4938 -0.1671 -0.4278
10010TIP3    H151521   5.943   4.176  12.711 -1.0388 -1.5961 -1.0859
10010TIP3    H251522   5.866   4.111  12.824  0.4786  0.4548  1.2473
10011TIP3   OH251523   4.213   4.642  11.734  0.1537 -0.3547  0.5391
10011TIP3    H151524   4.196   4.589  11.656 -0.9146  1.7350 -0.7514
10011TIP3    H251525   4.149   4.713  11.729  2.2427  1.7365  1.5005
10012TIP3   OH251526   1.300   5.855   5.429 -0.0588 -0.4403 -0.6649
10012TIP3    H151527   1.242   5.779   5.433  0.1145 -0.5581 -0.3719
10012TIP3    H251528   1.334   5.864   5.518  2.3060 -1.8585 -1.3300
10013TIP3   OH251529   6.765   2.167  10.995 -0.1130 -0.1737 -0.2726
10013TIP3    H151530   6.821   2.227  10.945  0.4440 -0.8740 -0.5131
10013TIP3    H251531   6.700   2.224  11.035  1.7812  0.9182  1.4502
10014TIP3   OH251532   0.125   6.422   6.412  0.8427 -0.1534  0.3409
10014TIP3    H151533   0.187   6.357   6.380  1.5838 -0.1020  1.5943
10014TIP3    H251534   0.167   6.459   6.490 -0.6564  0.0355  1.1006
10015TIP3   OH251535   5.061   2.495  14.948 -0.4352 -0.3111  0.2867
10015TIP3    H151536   5.017   2.423  14.903  0.2103 -1.1638  1.0004
10015TIP3    H251537   5.135   2.517  14.891 -0.0232 -0.9236  0.5776
10016TIP3   OH251538   0.148   4.678  15.176  0.2109  0.4888 -0.0377
10016TIP3    H151539   0.205   4.647  15.105  1.7006 -2.8987  2.3583
10016TIP3    H251540   0.074   4.617  15.176 -1.9120  2.8733 -1.0365
10017TIP3   OH251541   4.929   4.849  11.608  0.3724  0.5568 -0.3045
10017TIP3    H151542   4.897   4.936  11.586 -1.0822 -0.7178 -4.0166
10017TIP3    H251543   4.851   4.796  11.620  1.1768 -0.7013 -0.3832
10018TIP3   OH251544   0.269   5.407   4.883 -0.0811 -0.2363  0.2186
10018TIP3    H151545   0.208   5.473   4.848  0.3733  0.9145  1.4801
10018TIP3    H251546   0.293   5.354   4.807 -1.3248  0.3620 -0.6343
10019TIP3   OH251547   1.714   5.064   2.673  0.4743 -0.2670  0.0800
10019TIP3    H151548   1.644   5.127   2.687  0.4304 -0.3015  0.0171
10019TIP3    H251549   1.772   5.074   2.749  0.9805  0.5144 -0.4007
10020TIP3   OH251550   3.680   6.334  10.760 -0.0589 -0.4227  0.0277
10020TIP3    H151551   3.698   6.378  10.677  0.8413 -0.6104  0.1203
10020TIP3    H251552   3.758   6.282  10.778 -1.2766 -2.5029 -0.3405
10021TIP3   OH251553   0.527   6.485   5.101 -0.1147 -0.7461  0.3455
10021TIP3    H151554   0.515   6.482   5.006  0.3355  1.9583  0.1252
10021TIP3    H251555   0.444   6.517   5.135  0.8739  1.9039  0.4367
10022TIP3   OH251556   4.429   1.063   1.919  0.6921  0.6961  0.3790
10022TIP3    H151557   4.473   1.125   1.977 -0.5068 -0.0281  2.1421
10022TIP3    H251558   4.458   1.088   1.831  0.0110  3.9374  0.9420
10023TIP3   OH251559   0.941   4.474  17.034  0.6044  0.2909  0.2761
10023TIP3    H151560   0.848   4.484  17.055  0.6609 -0.9687  1.2561
10023TIP3    H251561   0.943   4.456  16.940 -0.1021  0.8208  0.1564
10024TIP3   OH251562   1.429   2.898  13.325  0.4479 -0.1859 -0.0833
10024TIP3    H151563   1.501   2.950  13.291 -1.1048  2.8126  0.9123
10024TIP3    H251564   1.383   2.866  13.247  1.0951  0.4118 -0.7236
10025TIP3   OH251565   4.288   3.753   1.254  0.4819  0.3215 -0.7193
10025TIP3    H151566   4.290   3.707   1.170  2.7493 -0.2272 -0.4511
10025TIP3    H251567   4.372   3.800   1.257  0.9375 -0.5017  1.6459
10026TIP3   OH251568   6.435   0.904   2.697  0.2502 -0.4175  0.6576
10026TIP3    H151569   6.429   0.998   2.682  0.4957 -0.3391  1.0114
10026TIP3    H251570   6.356   0.883   2.747 -1.0378 -0.8458 -1.4492
10027TIP3   OH251571   3.427   2.183  11.445 -0.6719 -0.0184 -0.6093
10027TIP3    H151572   3.400   2.125  11.516 -2.0556  1.6843  0.3116
10027TIP3    H251573   3.522   2.171  11.440 -0.2836  0.8900  2.5680
10028TIP3   OH251574   0.286   5.167  16.525  0.3345 -0.2241 -0.0205
10028TIP3    H151575   0.291   5.084  16.478 -1.2155  0.6295 -1.8619
10028TIP3    H251576   0.290   5.144  16.618  2.9574 -2.0514 -0.4844
10029TIP3   OH251577   3.429   5.300  15.312  0.5150  0.1639  0.0356
10029TIP3    H151578   3.427   5.231  15.245  2.7025 -0.3955  0.4782
10029TIP3    H251579   3.472   5.259  15.387  1.9770  2.0002  0.2761
10030TIP3   OH251580   5.201   5.760  11.038 -0.4829  0.0783  0.2970
10030TIP3    H151581   5.233   5.671  11.026  1.0360  0.7711 -1.2552
10030TIP3    H251582   5.145   5.755  11.115 -1.1936 -2.3867 -0.3013
10031TIP3   OH251583   2.153   6.376  13.170  0.2568  0.3425 -0.5864
10031TIP3    H151584   2.097   6.326  13.112  0.1863 -0.8838  0.4910
10031TIP3    H251585   2.093   6.415  13.233  0.3088  1.8437 -1.4226
10032TIP3   OH251586   0.315   2.280  14.041 -0.4788 -0.0405 -0.1969
10032TIP3    H151587   0.222   2.264  14.031 -0.5741 -0.4441  1.0709
10032TIP3    H251588   0.343   2.319  13.958 -2.0821  1.5396 -0.0598
10033TIP3   OH251589   5.896   4.920  15.959 -0.1944 -0.1937  0.2339
10033TIP3    H151590   5.854   4.941  15.875  1.8939  0.0601 -0.8280
10033TIP3    H251591   5.990   4.921  15.939  0.3634 -0.1308  2.5958
10034TIP3   OH251592   6.513   2.547   5.913 -0.5688  0.1092  0.1648
10034TIP3    H151593   6.525   2.476   5.977  1.5894 -0.0501 -0.3294
10034TIP3    H251594   6.514   2.504   5.828 -1.8657  0.4848 -0.0578
10035TIP3   OH251595   5.697   2.216  10.358  0.2062  0.0186 -0.3398
10035TIP3    H151596   5.718   2.279  10.426 -0.1978 -0.7203  0.4844
10035TIP3    H251597   5.668   2.270  10.284 -0.8316  0.7835  0.5915
10036TIP3   OH251598   2.591   5.458   2.488  0.0851  0.2355  0.0074
10036TIP3    H151599   2.685   5.468   2.471  0.2382 -1.6163 -0.4259
10036TIP3    H251600   2.579   5.495   2.575  0.9258  1.8356 -0.5038
10037TIP3   OH251601   5.970   2.548   1.208  0.0186 -0.3879  0.1738
10037TIP3    H151602   5.985   2.615   1.275  0.7263 -1.1663  0.8102
10037TIP3    H251603   5.942   2.471   1.257 -0.6021 -0.6322 -0.5390
10038TIP3   OH251604   0.377   0.363  15.282 -0.1595 -0.2780 -0.3893
10038TIP3    H151605   0.443   0.296  15.264 -1.4303 -1.0583 -2.4500
10038TIP3    H251606   0.319   0.323  15.348  1.4102  0.4729  1.5515
10039TIP3   OH251607   3.468   1.014  12.904  0.1913 -0.2387 -0.3907
10039TIP3    H151608   3.549   0.963  12.908  0.3959  0.1410  0.8647
10039TIP3    H251609   3.398   0.949  12.897  0.6043 -0.5516 -1.9422
10040TIP3   OH251610   4.624   3.193   0.137  0.2902 -0.6112 -0.3854
10040TIP3    H151611   4.718   3.210   0.146  0.4958 -1.7971 -0.1705
10040TIP3    H251612   4.610   3.185   0.042  0.4558 -0.7015 -0.4023
10041TIP3   OH251613   6.453   4.113   5.330 -0.2579 -0.1480  0.5981
10041TIP3    H151614   6.521   4.132   5.265 -0.2527 -1.6830  0.1167
10041TIP3    H251615   6.399   4.045   5.289 -2.5098  1.4636  0.7010
10042TIP3   OH251616   4.454   3.579   1.070 -0.1076  0.0229 -0.5442
10042TIP3    H151617   4.372   3.531   1.078 -0.0747  0.1474  0.8004
10042TIP3    H251618   4.472   3.580   0.976 -1.3574 -0.4764 -0.8141
10043TIP3   OH251619   3.206   0.265   4.849 -0.2945  0.2752 -0.3821
10043TIP3    H151620   3.131   0.312   4.811  0.7231  2.2508 -0.0764
10043TIP3    H251621   3.168   0.215   4.921 -1.5264  0.1608 -1.0776
10044TIP3   OH251622   0.962   6.408   0.084  0.3643  0.0252 -0.3512
10044TIP3    H151623   0.979   6.314   0.081  1.1609  0.1766 -2.5826
10044TIP3    H251624   1.003   6.443   0.005 -0.1274  2.2327  0.2742
10045TIP3   OH251625   4.309   6.165   3.094  0.3472  0.4525 -0.6068
10045TIP3    H151626   4.267   6.184   3.177  0.3393  0.7779 -0.6842
10045TIP3    H251627   4.241   6.125   3.041  0.8873 -1.7310  0.2513
10046TIP3   OH251628   5.229   3.469   2.826  0.5441 -0.4616  0.4768
10046TIP3    H151629   5.289   3.497   2.757  2.8570 -1.9634  1.7595
10046TIP3    H251630   5.173   3.545   2.841  0.8783  0.3811 -2.0450
10047TIP3   OH251631   0.410   6.079  10.848  0.7586  0.0128 -0.5341
10047TIP3    H151632   0.370   6.117  10.927 -1.5166 -2.4308 -0.3759
10047TIP3    H251633   0.502   6.068  10.871  0.5194  1.0504  1.0880
10048TIP3   OH251634   4.469   1.358  16.778 -0.5146 -0.6221 -0.1361
10048TIP3    H151635   4.392   1.311  16.746  0.0536 -1.7213  0.0511
10048TIP3    H251636   4.500   1.409  16.703  0.0497 -2.1533 -0.9848
10049TIP3   OH251637   5.843   1.395  16.795 -0.2371  0.6205  0.4480
10049TIP3    H151638   5.812   1.329  16.733  1.0822  0.3923 -0.0041
10049TIP3    H251639   5.773   1.460  16.798 -1.1860 -0.3733  0.2490
10050TIP3   OH251640   3.341   5.570  16.758 -0.5018  0.1800 -0.0272
10050TIP3    H151641   3.386   5.622  16.692 -0.5271 -0.0678 -0.2410
10050TIP3    H251642   3.411   5.528  16.807 -0.5083 -1.0042 -0.9978
10051TIP3   OH251643   6.669   4.847  13.140 -0.4776 -0.5613  0.0081
10051TIP3    H151644   6.686   4.812  13.227 -0.4113  1.6059  0.9445
10051TIP3    H251645   6.574   4.852  13.133 -0.5004 -1.4833 -0.3746
10052TIP3   OH251646   3.967   3.012   5.158  0.1990  0.0126 -0.1220
10052TIP3    H151647   4.013   3.049   5.083  0.0817 -1.8975 -1.2182
10052TIP3    H251648   3.952   3.086   5.217  2.5558  1.1025 -0.7948
10053TIP3   OH251649   2.770   2.037  10.595  0.5914  0.6384  0.1611
10053TIP3    H151650   2.811   1.952  10.577  1.5690  1.5845 -2.7192
10053TIP3    H251651   2.677   2.022  10.582  0.8479  0.1821 -1.3300
10054TIP3   OH251652   4.844   5.024  11.280 -0.4606 -0.0506 -0.2723
10054TIP3    H151653   4.854   5.087  11.208 -2.1636 -0.0916 -0.5778
10054TIP3    H251654   4.922   4.969  11.274  2.0885  3.0580  1.1446
10055TIP3   OH251655   6.804   3.616  11.410 -0.0968 -0.4006  0.1017
10055TIP3    H151656   6.853   3.685  11.455 -0.6993  1.0779 -1.4212
10055TIP3    H251657   6.737   3.662  11.361 -1.5525 -2.2188  0.2767
10056TIP3   OH251658   0.969   1.834  13.829 -0.3912 -0.0233 -0.6058
10056TIP3    H151659   0.996   1.744  13.813  0.1115  0.0839 -0.3592
10056TIP3    H251660   0.939   1.866  13.744  0.1287 -0.1843 -0.8492
10057TIP3   OH251661   0.061   5.616   0.490 -0.1648  0.1471 -0.5439
10057TIP3    H151662   0.087   5.569   0.570  0.8893 -0.8215 -1.4159
10057TIP3    H251663  -0.027   5.648   0.509  0.7610  1.6159  1.7063
10058TIP3   OH251664   0.629   2.331   2.599 -0.4684  0.0479 -0.0313
10058TIP3    H151665   0.721   2.311   2.578 -0.1801  0.3147  0.9178
10058TIP3    H251666   0.601   2.389   2.529 -0.7465 -2.1030 -1.8280
10059TIP3   OH251667   1.235   6.713  16.686  0.2337 -0.6510 -1.1660
10059TIP3    H151668   1.228   6.751  16.598  0.3618 -0.0018 -0.9079
10059TIP3    H251669   1.320   6.744  16.718  0.6233 -1.6826 -1.1774
10060TIP3   OH251670   2.995   4.974   5.117  0.4773  0.0802 -0.4340
10060TIP3    H151671   2.954   5.059   5.103 -0.3454 -0.2399 -0.0208
10060TIP3    H251672   2.948   4.936   5.190  2.4902  0.3141  1.0703
10061TIP3   OH251673   3.027   2.799   1.641 -0.1609 -0.5674 -0.1895
10061TIP3    H151674   3.097   2.745   1.603 -1.0806 -1.2369 -0.9870
10061TIP3    H251675   2.976   2.737   1.693  0.8876  0.2703  1.9550
10062TIP3   OH251676   2.311   6.754   6.170 -0.0179  0.2402 -0.1225
10062TIP3    H151677   2.349   6.667   6.180  0.7328  0.3345 -1.8084
10062TIP3    H251678   2.254   6.747   6.093 -3.2457  0.2053  2.0778
10063TIP3   OH251679   4.237   4.331   3.067 -0.0009 -0.3710 -0.5185
10063TIP3    H151680   4.291   4.251   3.071  1.0042  0.2166 -1.4987
10063TIP3    H251681   4.198   4.328   2.980 -2.1458 -1.1175  0.4143
10064TIP3   OH251682   1.224   3.261  10.559 -0.9232 -0.3460  0.8349
10064TIP3    H151683   1.221   3.198  10.487  1.5484 -1.1374  1.3034
10064TIP3    H251684   1.202   3.345  10.519  0.1777 -0.8086 -0.8259
10065TIP3   OH251685   2.587   5.525   3.762  0.5746 -0.0003  0.1101
10065TIP3    H151686   2.521   5.558   3.701  2.9177  0.8313 -2.1731
10065TIP3    H251687   2.633   5.603   3.792  1.4110 -0.6464  0.5618
10066TIP3   OH251688   6.789   3.016   0.418  0.2239 -0.2778 -0.1893
10066TIP3    H151689   6.708   2.967   0.429  0.7705 -1.8238 -2.3695
10066TIP3    H251690   6.820   3.032   0.507 -1.5473 -1.2092  0.6449
10067TIP3   OH251691   1.731   2.209  12.826  0.6368  0.3126  0.2356
10067TIP3    H151692   1.673   2.230  12.753  0.5857 -0.2862  0.0966
10067TIP3    H251693   1.790   2.143  12.791 -1.0207 -1.9427  1.4177
10068TIP3   OH251694   1.994   5.888   5.741  0.1771 -0.7031 -0.3618
10068TIP3    H151695   2.050   5.813   5.721 -0.4172 -0.6660 -2.3876
10068TIP3    H251696   2.051   5.949   5.788  1.5695 -1.0890 -1.5029
10069TIP3   OH251697   5.116   4.152   1.933  0.1232 -0.0087 -0.2581
10069TIP3    H151698   5.102   4.058   1.947  0.9115 -0.5070 -2.4707
10069TIP3    H251699   5.209   4.160   1.916 -0.1491  0.9714 -1.4015
10070TIP3   OH251700   5.583   4.612   3.039  0.1628  0.4139 -0.2916
10070TIP3    H151701   5.518   4.599   2.970  0.6703  1.3501 -0.9633
10070TIP3    H251702   5.561   4.697   3.077  1.2936  0.9837 -0.8802
10071TIP3   OH251703   0.519   4.625  15.136  0.3439  0.2036 -0.1671
10071TIP3    H151704   0.452   4.571  15.179  1.5982 -0.6195  0.8050
10071TIP3    H251705   0.520   4.706  15.186  0.0656  0.2300 -0.2024
10072TIP3   OH251706   5.379   4.324  16.077  0.0193  0.7092 -0.0349
10072TIP3    H151707   5.406   4.385  16.146  1.0467 -0.8758  0.9990
10072TIP3    H251708   5.438   4.343  16.004  0.5470  0.7267  0.3911
10073TIP3   OH251709   3.535   6.620   3.057  0.0604 -0.3384 -0.1607
10073TIP3    H151710   3.531   6.593   3.149  0.7384  4.1011  1.4334
10073TIP3    H251711   3.447   6.650   3.036  0.1140 -0.5390 -0.7032
10074TIP3   OH251712   2.330   5.797   3.705  0.4147 -1.2488 -0.7149
10074TIP3    H151713   2.404   5.853   3.682 -0.6219  0.0550 -1.0351
10074TIP3    H251714   2.353   5.711   3.670  1.3995 -0.6636 -1.5649
10075TIP3   OH251715   6.623   4.511   1.083 -0.2194  0.1030 -0.4975
10075TIP3    H151716   6.647   4.586   1.138  1.0763  0.8917 -2.0194
10075TIP3    H251717   6.699   4.499   1.025 -0.7260 -1.9072 -0.8163
10076TIP3   OH251718   3.268   1.176  14.558  0.2136  0.3129 -0.3217
10076TIP3    H151719   3.326   1.190  14.483 -1.7193  1.2475 -1.7272
10076TIP3    H251720   3.238   1.086  14.548 -0.1188  0.4664 -0.7671
10077TIP3   OH251721   1.524   3.100  17.120 -0.0804  0.4267  0.1496
10077TIP3    H151722   1.513   3.194  17.133  0.6557  0.2140  3.1430
10077TIP3    H251723   1.451   3.060  17.167  1.3500 -0.4690  1.7815
10078TIP3   OH251724   6.164   4.931  14.624 -0.1922  0.1044 -0.4865
10078TIP3    H151725   6.228   4.871  14.586 -0.1031 -0.4518  0.5042
10078TIP3    H251726   6.093   4.934  14.561  0.7409  0.6411 -1.5579
10079TIP3   OH251727   5.471   0.791  16.370 -0.2836 -0.1058 -0.0540
10079TIP3    H151728   5.434   0.733  16.437  0.6734 -0.2453  0.3727
10079TIP3    H251729   5.490   0.872  16.417  0.9716 -0.4146  0.0073
10080TIP3   OH251730   4.055   2.881  15.694 -0.3577  0.0415  0.0375
10080TIP3    H151731   4.075   2.896  15.786  2.3688  0.1674 -0.5004
10080TIP3    H251732   4.076   2.789  15.680 -1.3860 -0.1459 -0.3301
10081TIP3   OH251733   6.152   0.880   4.695 -0.5690  0.4270  0.4858
10081TIP3    H151734   6.107   0.928   4.764 -1.5386 -0.2770  0.3623
10081TIP3    H251735   6.083   0.830   4.651  0.5067 -1.8312  1.2158
10082TIP3   OH251736   0.411   6.743   4.116 -0.0832  0.1468 -0.4884
10082TIP3    H151737   0.442   6.779   4.199 -0.1563  1.4364 -1.0021
10082TIP3    H251738   0.480   6.763   4.054 -0.7035  0.5542 -1.0583
10083TIP3   OH251739   5.090   6.297   4.234 -0.0485  0.2623 -0.0769
10083TIP3    H151740   5.054   6.209   4.227 -0.7450  0.5760 -0.5564
10083TIP3    H251741   5.109   6.308   4.328  1.1975 -0.8288 -0.1833
10084TIP3   OH251742   5.007   1.895  15.994 -0.0986  0.4513  0.1558
10084TIP3    H151743   4.973   1.833  16.058 -2.8027  0.5889 -0.9783
10084TIP3    H251744   4.928   1.927  15.949  1.6017  0.9673 -2.6536
10085TIP3   OH251745   0.080   0.017  15.628 -0.2887 -0.4230  0.8073
10085TIP3    H151746   0.146   0.069  15.674  0.7999 -1.8381  0.9189
10085TIP3    H251747   0.096  -0.073  15.657 -0.8279 -1.0989 -0.8490
10086TIP3   OH251748   6.738   0.210   2.125 -0.5275 -0.3341 -0.1292
10086TIP3    H151749   6.786   0.135   2.159 -0.2454  1.1192  2.9702
10086TIP3    H251750   6.650   0.200   2.161 -0.1738  1.3579  1.2948
10087TIP3   OH251751   4.605   1.656  13.579 -0.1347  0.7855  0.3746
10087TIP3    H151752   4.609   1.752  13.581 -1.2315  0.8768 -0.5144
10087TIP3    H251753   4.511   1.636  13.589 -0.2389 -0.0800 -1.8306
10088TIP3   OH251754   5.403   0.745  14.139  0.1682  0.3857 -0.5165
10088TIP3    H151755   5.367   0.705  14.060 -1.1351  0.8676 -0.1995
10088TIP3    H251756   5.444   0.672  14.186 -0.1049 -0.1308 -1.0589
10089TIP3   OH251757   1.081   1.199  13.518  0.4819  0.1745  0.0219
10089TIP3    H151758   1.150   1.264  13.530 -0.7495  1.4772  0.2297
10089TIP3    H251759   1.020   1.239  13.456 -1.6036  0.3026  2.0388
10090TIP3   OH251760   2.587   6.037   1.901 -0.3404  0.3984  0.0938
10090TIP3    H151761   2.608   6.057   1.810 -0.0394 -0.4116 -0.0188
10090TIP3    H251762   2.514   5.976   1.896 -0.2331  0.2446  0.3953
10091TIP3   OH251763   3.720   1.594  11.658 -0.5018 -0.2514  0.5413
10091TIP3    H151764   3.691   1.667  11.711  0.3152  0.5857 -0.1213
10091TIP3    H251765   3.644   1.537  11.650 -0.3079 -1.1397  3.7246
10092TIP3   OH251766   1.924   3.244   3.345  0.6359  0.5603 -0.0191
10092TIP3    H151767   1.953   3.204   3.427  1.6712 -2.7130 -1.7969
10092TIP3    H251768   2.005   3.268   3.300  0.0703  2.8131  0.0355
10093TIP3   OH251769   0.703   6.809  17.150 -0.0678 -0.1521 -0.2479
10093TIP3    H151770   0.641   6.738  17.132 -3.6950  1.8725  2.7578
10093TIP3    H251771   0.729   6.795  17.241 -0.1147  1.8052  0.1097
10094TIP3   OH251772   1.717   6.239  11.594  0.0094 -0.0248  0.1612
10094TIP3    H151773   1.634   6.278  11.622  0.1101 -0.2493  0.8005
10094TIP3    H251774   1.746   6.188  11.670  0.2201 -0.7923 -0.4122
10095TIP3   OH251775   0.269   5.483  14.516  0.2383  0.5219  0.0999
10095TIP3    H151776   0.282   5.563  14.568  1.6145 -0.4147  1.2668
10095TIP3    H251777   0.175   5.466  14.522  0.2612  0.7905  1.8335
10096TIP3   OH251778   3.530   6.042  14.379  0.6122  0.3852 -0.1613
10096TIP3    H151779   3.564   6.004  14.298  0.2642  0.7183 -0.4717
10096TIP3    H251780   3.455   6.094  14.351  2.0650  2.7194 -0.0236
10097TIP3   OH251781   6.641   6.332   3.778  0.4564 -0.0120  0.4711
10097TIP3    H151782   6.550   6.322   3.806  0.3840 -1.4011 -0.2115
10097TIP3    H251783   6.673   6.406   3.830 -1.0227  0.4471  0.7885
10098TIP3   OH251784   5.856   5.072   2.441  0.1357 -0.2024  0.4367
10098TIP3    H151785   5.904   5.044   2.363 -1.1176  1.1783 -0.9037
10098TIP3    H251786   5.791   5.002   2.455  0.2546 -0.3752  0.1318
10099TIP3   OH251787   3.674   6.802   1.046  0.1564 -0.6206 -0.4318
10099TIP3    H151788   3.767   6.781   1.059 -0.1601 -1.5932  0.3607
10099TIP3    H251789   3.662   6.796   0.951  1.2102  0.9518 -0.7144
10100TIP3   OH251790   3.600   1.102   3.180 -0.0030 -0.2205  0.3814
10100TIP3    H151791   3.617   1.094   3.086  1.9611  0.5731  0.6316
10100TIP3    H251792   3.603   1.012   3.212 -0.7881 -0.5121 -0.2983
10101TIP3   OH251793   2.632   0.565   5.620 -0.3895 -0.4140 -0.2748
10101TIP3    H151794   2.650   0.633   5.555 -0.4870 -1.4776 -1.4420
10101TIP3    H251795   2.643   0.483   5.573 -2.2160 -1.1971  0.5838
10102TIP3   OH251796   4.179   4.054   0.333 -0.0041 -0.5709  0.0506
10102TIP3    H151797   4.132   4.041   0.416 -0.6436  0.5396 -0.1166
10102TIP3    H251798   4.231   4.133   0.347  3.3040 -2.6791  0.8400
10103TIP3   OH251799   0.114   1.049   1.185 -0.9962  0.2668 -0.1163
10103TIP3    H151800   0.022   1.034   1.162 -0.7286 -1.4718 -0.2420
10103TIP3    H251801   0.163   0.994   1.124  0.0757  0.4208  0.5726
10104TIP3   OH251802   6.464   0.390   1.810  0.1370 -0.3060  0.8121
10104TIP3    H151803   6.443   0.315   1.754 -2.3382 -0.4452  1.8184
10104TIP3    H251804   6.419   0.464   1.770 -0.0165 -0.0054  1.5252
10105TIP3   OH251805   4.051   3.574  13.852 -0.0994  0.1405  0.0830
10105TIP3    H151806   3.958   3.556  13.837 -0.1928  0.9992 -0.4174
10105TIP3    H251807   4.057   3.588  13.947 -0.9867  2.6118 -0.1346
10106TIP3   OH251808   5.055   0.234   2.366  0.3724 -0.5364 -0.9383
10106TIP3    H151809   5.011   0.273   2.290  0.9901  0.9230 -0.5836
10106TIP3    H251810   5.145   0.219   2.336  0.8463  0.8191 -0.2802
10107TIP3   OH251811   5.983   4.447  11.506 -0.6685 -0.5307  0.2814
10107TIP3    H151812   6.068   4.436  11.550 -0.3986  0.5197  0.0439
10107TIP3    H251813   6.005   4.458  11.414 -0.9333  1.1228  0.3814
10108TIP3   OH251814   0.958   4.684  12.551 -0.3767  0.2347 -0.6183
10108TIP3    H151815   0.869   4.649  12.557 -0.9338  1.3879 -1.6983
10108TIP3    H251816   0.997   4.665  12.636 -1.3604 -1.0538 -0.4247
10109TIP3   OH251817   0.896   4.144  14.711  0.4890 -0.0622 -0.5301
10109TIP3    H151818   0.988   4.168  14.727  0.0082  0.4154  1.8192
10109TIP3    H251819   0.901   4.056  14.673  1.8999 -0.3378  0.2073
10110TIP3   OH251820   5.777   2.476   3.449 -0.2576 -0.0958 -0.7000
10110TIP3    H151821   5.686   2.504   3.459 -0.0053  0.1301  1.3158
10110TIP3    H251822   5.773   2.399   3.392 -1.9805 -1.3399  0.9773
10111TIP3   OH251823   6.111   3.995  16.537 -0.2672 -0.4436 -0.5805
10111TIP3    H151824   6.179   3.932  16.517  1.5921  1.6465 -1.2317
10111TIP3    H251825   6.095   4.041  16.454  0.2563  1.5514  0.3516
10112TIP3   OH251826   2.438   3.948  14.225 -0.1496  0.6335 -0.1367
10112TIP3    H151827   2.528   3.980  14.216  0.6073 -1.1659  0.5769
10112TIP3    H251828   2.398   4.006  14.289  1.6382 -0.5875  2.2605
10113TIP3   OH251829   2.731   6.495   4.679  0.8166  0.0540 -0.0605
10113TIP3    H151830   2.748   6.512   4.772  0.0499  0.4103  0.0227
10113TIP3    H251831   2.766   6.572   4.634  1.5792 -0.3169 -0.1101
10114TIP3   OH251832   2.499   6.429   3.935 -0.2089 -0.6214 -0.0204
10114TIP3    H151833   2.579   6.440   3.985  0.4179  1.2959 -1.3031
10114TIP3    H251834   2.437   6.491   3.974  0.1652  0.6102 -1.2637
10115TIP3   OH251835   0.186   2.234   1.631  0.8093  0.4776  0.7158
10115TIP3    H151836   0.114   2.270   1.579 -1.1477 -1.8996  1.5611
10115TIP3    H251837   0.261   2.289   1.609 -0.6114  1.4695 -2.2579
10116TIP3   OH251838   4.412   0.267  11.549 -0.4990 -0.5110 -0.4470
10116TIP3    H151839   4.349   0.224  11.491  1.2485 -1.6479 -1.6150
10116TIP3    H251840   4.448   0.338  11.497 -0.7670  0.1112  0.1997
10117TIP3   OH251841   4.046   5.904   2.209  0.8267 -0.0951 -0.3725
10117TIP3    H151842   4.111   5.958   2.254  1.3347 -1.0553  0.0837
10117TIP3    H251843   4.069   5.814   2.233 -1.6033 -0.4170  1.0983
10118TIP3   OH251844   6.803   5.119  11.299  0.3217  0.0097 -0.3717
10118TIP3    H151845   6.782   5.060  11.371  1.1890  0.0486 -0.0820
10118TIP3    H251846   6.867   5.180  11.335  0.5837  0.1821 -1.1076
10119TIP3   OH251847   3.701   6.492  15.055 -1.2464  0.0041 -0.7713
10119TIP3    H151848   3.717   6.398  15.065 -1.9418  0.0369  1.1138
10119TIP3    H251849   3.744   6.515  14.973 -0.6017 -1.8569 -1.0080
10120TIP3   OH251850   0.008   5.240  13.071  0.1239 -0.4766 -0.2218
10120TIP3    H151851  -0.006   5.312  13.132  0.3836 -0.4507 -0.1921
10120TIP3    H251852  -0.077   5.227  13.029  0.1918  0.1535 -0.5685
10121TIP3   OH251853   5.445   1.817  12.721 -0.4449  0.7651 -0.0581
10121TIP3    H151854   5.390   1.812  12.643  0.7294  0.0192 -0.8811
10121TIP3    H251855   5.528   1.855  12.690 -0.1335  0.9175  0.9269
10122TIP3   OH251856   3.133   3.775   5.791  0.1133  0.1466  0.2210
10122TIP3    H151857   3.133   3.845   5.726  2.0592  0.3034  0.3295
10122TIP3    H251858   3.085   3.811   5.865 -3.6000 -0.5987 -1.5803
10123TIP3   OH251859   4.892   1.501  12.697  0.4707  0.1884  0.0900
10123TIP3    H151860   4.934   1.535  12.619  2.7209 -2.0497  0.1977
10123TIP3    H251861   4.810   1.462  12.665  1.0039 -0.0279 -1.0522
10124TIP3   OH251862   4.086   6.466  14.958  0.7001 -0.4223 -0.0632
10124TIP3    H151863   4.001   6.503  14.934  1.1524  0.0728 -0.9306
10124TIP3    H251864   4.111   6.413  14.883  1.5882  0.1905 -0.2126
10125TIP3   OH251865   3.460   3.443  12.292 -0.0356  0.2062 -0.4276
10125TIP3    H151866   3.556   3.439  12.294 -0.0816 -2.2197  0.0442
10125TIP3    H251867   3.434   3.358  12.257 -2.0200  1.1769 -1.4286
10126TIP3   OH251868   5.970   1.941  11.978 -0.1190  0.3907  0.0504
10126TIP3    H151869   5.913   1.990  11.919 -0.5252  1.5336  1.3461
10126TIP3    H251870   5.935   1.957  12.066  1.0176 -0.5027  0.7123
10127TIP3   OH251871   6.395   5.364   2.094 -0.1774 -0.1868  0.2278
10127TIP3    H151872   6.489   5.366   2.076 -0.2059 -1.3160 -0.1170
10127TIP3    H251873   6.354   5.376   2.009 -0.3250 -1.6531  0.0723
10128TIP3   OH251874   4.252   5.428  16.460  0.2066  0.1651  0.0735
10128TIP3    H151875   4.229   5.358  16.522 -0.8404  0.6800  0.2948
10128TIP3    H251876   4.171   5.446  16.413  0.4312  1.3152  0.1030
10129TIP3   OH251877   3.859   1.001  16.372  0.7373 -0.4069  0.0712
10129TIP3    H151878   3.809   1.052  16.308  0.4297  0.1126  0.7122
10129TIP3    H251879   3.794   0.976  16.438  1.0187 -1.0734  0.1017
10130TIP3   OH251880   5.740   0.529  15.659 -0.7394 -0.0994  0.2754
10130TIP3    H151881   5.688   0.524  15.739  1.6500  0.5164  1.9936
10130TIP3    H251882   5.757   0.438  15.636 -3.1070 -0.3541 -0.8096
10131TIP3   OH251883   0.939   5.744   3.453 -0.3781  0.1905  0.3690
10131TIP3    H151884   1.030   5.767   3.473  0.0871 -0.8627 -0.3902
10131TIP3    H251885   0.924   5.778   3.365 -0.3477 -0.5661  0.0585
10132TIP3   OH251886   1.961   1.635   4.696 -0.4147  0.0919  0.2180
10132TIP3    H151887   2.005   1.720   4.694  1.5045 -0.7988  1.5166
10132TIP3    H251888   1.875   1.654   4.733  0.1530  1.4243  0.9440
10133TIP3   OH251889   5.247   6.601  14.962  0.3065 -0.1168  0.2210
10133TIP3    H151890   5.200   6.623  14.882  1.4745 -0.2652 -0.5338
10133TIP3    H251891   5.190   6.631  15.033 -0.6265  0.2539 -0.6618
10134TIP3   OH251892   1.020   4.674   2.913 -0.5120  0.7560 -0.4051
10134TIP3    H151893   1.019   4.702   3.005 -2.2014  0.2186 -0.2186
10134TIP3    H251894   1.015   4.579   2.917  1.3898  0.5925 -1.0745
10135TIP3   OH251895   5.624   3.956   5.246  0.2861  0.0745  0.1584
10135TIP3    H151896   5.540   3.914   5.230  1.1010 -1.2211 -0.8975
10135TIP3    H251897   5.689   3.888   5.230  1.5644  1.1483  0.5715
10136TIP3   OH251898   1.833   2.583   5.791 -0.5664 -0.0553  0.5602
10136TIP3    H151899   1.768   2.639   5.750 -0.6099  0.2129  0.9860
10136TIP3    H251900   1.867   2.635   5.864  0.1236 -0.1882  0.3468
10137TIP3   OH251901   6.353   3.967   1.560  0.1086  0.1840  0.2883
10137TIP3    H151902   6.343   3.924   1.475  2.1895 -0.7916  0.4823
10137TIP3    H251903   6.280   4.029   1.564 -0.9894 -0.8971 -1.4916
10138TIP3   OH251904   3.689   3.726   0.717 -0.2426  0.3687 -0.0916
10138TIP3    H151905   3.604   3.682   0.709  1.3873 -3.1128 -0.2265
10138TIP3    H251906   3.685   3.798   0.655 -2.7902 -0.1915 -0.6881
10139TIP3   OH251907   0.306   6.352   4.960 -0.3838  0.0123  0.1919
10139TIP3    H151908   0.318   6.264   4.925  1.5199  0.3987 -0.2515
10139TIP3    H251909   0.333   6.345   5.051 -0.1792  0.1528  0.1414
10140TIP3   OH251910   6.407   2.864  13.110  0.0857 -0.0734 -0.1362
10140TIP3    H151911   6.473   2.899  13.050 -1.8499  1.6895 -1.3782
10140TIP3    H251912   6.431   2.900  13.196  1.9666 -1.3043 -0.0954
10141TIP3   OH251913   6.649   0.729  15.559 -0.0994 -0.0304 -0.1048
10141TIP3    H151914   6.657   0.633  15.560 -1.0399 -0.1179 -0.1656
10141TIP3    H251915   6.687   0.756  15.476 -1.9217 -0.5677 -1.1568
10142TIP3   OH251916   4.558   2.169  14.859  0.2775 -0.2066  0.0563
10142TIP3    H151917   4.489   2.123  14.907  0.9306 -2.1768 -0.8170
10142TIP3    H251918   4.552   2.136  14.769 -0.1995  2.5794 -1.0285
10143TIP3   OH251919   3.015   2.442  11.828 -0.0250  0.2570 -0.0069
10143TIP3    H151920   2.956   2.477  11.895  0.1232 -0.9883  0.8147
10143TIP3    H251921   3.099   2.432  11.873  0.1605 -0.3157 -0.4629
10144TIP3   OH251922   5.273   5.319  12.327 -0.1282  0.4808  0.4187
10144TIP3    H151923   5.354   5.306  12.376 -0.9401  0.4152  1.8044
10144TIP3    H251924   5.265   5.242  12.272  1.1489  0.8684 -0.3475
10145TIP3   OH251925   5.865   4.257   4.870 -0.2678  0.3188  0.1854
10145TIP3    H151926   5.915   4.285   4.794 -0.3900 -0.8994 -0.3702
10145TIP3    H251927   5.853   4.336   4.922  1.9252  0.7284  0.1565
10146TIP3   OH251928   6.692   2.091  14.505 -0.0783  0.4007 -0.1807
10146TIP3    H151929   6.646   2.008  14.493  1.1771 -0.4195  0.4825
10146TIP3    H251930   6.623   2.157  14.498 -1.1673 -0.7064 -0.3589
10147TIP3   OH251931   1.029   3.067  14.656  0.1390  0.0118  0.1595
10147TIP3    H151932   0.961   3.112  14.706 -0.1958 -0.2390 -0.0609
10147TIP3    H251933   1.007   3.086  14.565 -0.9290 -1.8541 -0.0201
10148TIP3   OH251934   3.696   1.582  16.238 -0.0540 -0.0480  0.2055
10148TIP3    H151935   3.719   1.490  16.251  0.5673 -0.1384 -1.3620
10148TIP3    H251936   3.749   1.629  16.302 -1.9874 -0.8801  2.5847
10149TIP3   OH251937   3.027   2.508  14.516 -0.4383  0.3244 -0.5404
10149TIP3    H151938   3.097   2.570  14.497  0.6782  0.0514  2.1497
10149TIP3    H251939   3.040   2.437  14.453  2.0155  0.1268  0.0439
10150TIP3   OH251940   2.158   3.410   4.195  0.0297 -0.7597 -0.8857
10150TIP3    H151941   2.144   3.469   4.269  0.1383 -2.7454  0.7939
10150TIP3    H251942   2.083   3.351   4.197  1.5810 -2.8135 -0.3695
10151TIP3   OH251943   3.535   3.864   2.729 -0.5733  0.1391  0.0812
10151TIP3    H151944   3.450   3.870   2.773  0.2264  1.8209  1.5322
10151TIP3    H251945   3.550   3.951   2.693 -0.4926 -0.7880 -2.2946
10152TIP3   OH251946   0.405   3.393   3.065 -0.6214  0.2121 -0.5664
10152TIP3    H151947   0.351   3.401   3.144  0.3499  0.1855  0.1186
10152TIP3    H251948   0.447   3.479   3.055 -0.9530  0.3050 -1.2224
10153TIP3   OH251949   6.094   4.702  14.927  0.4815 -0.1533  0.3640
10153TIP3    H151950   6.007   4.661  14.924 -0.1313  1.1516 -1.4171
10153TIP3    H251951   6.076   4.796  14.930  1.8507  0.1228  0.4959
10154TIP3   OH251952   6.566   5.980   2.410 -0.0888 -0.2687 -0.8005
10154TIP3    H151953   6.635   5.992   2.344  0.3048  0.2498 -0.3073
10154TIP3    H251954   6.491   5.948   2.360 -0.6789  2.6502 -2.0034
10155TIP3   OH251955   2.397   0.589  12.811 -0.1309  0.0159 -0.6596
10155TIP3    H151956   2.462   0.601  12.880  0.7478 -0.6191 -1.3537
10155TIP3    H251957   2.324   0.645  12.837 -0.0987 -0.7195  1.1286
10156TIP3   OH251958   1.504   1.693  11.219 -0.7291 -0.1363  0.6452
10156TIP3    H151959   1.572   1.720  11.157  0.1834 -0.5323  1.4460
10156TIP3    H251960   1.438   1.651  11.164 -0.5792  0.7050 -0.2121
10157TIP3   OH251961   1.771   6.264  12.164  0.5382 -0.1561  0.0193
10157TIP3    H151962   1.739   6.319  12.235 -3.5177 -0.8611 -0.9827
10157TIP3    H251963   1.742   6.308  12.084  0.2968 -1.9156 -0.9307
10158TIP3   OH251964   0.588   3.623  13.308  0.3612  0.0323  0.3387
10158TIP3    H151965   0.598   3.663  13.394  1.4198 -0.6224  0.5411
10158TIP3    H251966   0.675   3.589  13.288 -0.3350 -1.5558 -0.1221
10159TIP3   OH251967   6.795   3.869   3.110 -0.5392  0.6817 -0.0438
10159TIP3    H151968   6.866   3.867   3.046  0.6950  0.0707  1.2832
10159TIP3    H251969   6.722   3.824   3.067 -0.2939  1.6813 -1.5893
10160TIP3   OH251970   6.699   3.002  12.450  0.7812 -0.0410  0.4184
10160TIP3    H151971   6.783   3.042  12.474 -0.2304  1.0909  2.3592
10160TIP3    H251972   6.637   3.075  12.449 -0.2749 -0.9138 -0.5758
10161TIP3   OH251973   1.473   4.491  14.308  0.0116  0.4946 -0.1382
10161TIP3    H151974   1.441   4.407  14.341  0.2535  1.3186  2.3999
10161TIP3    H251975   1.568   4.486  14.321  0.0063  1.2066  0.1886
10162TIP3   OH251976   3.609   4.296   4.543  0.1163 -0.1913 -0.4339
10162TIP3    H151977   3.644   4.358   4.607  0.6672  0.4865 -1.3780
10162TIP3    H251978   3.517   4.287   4.567  0.8480 -2.1115  2.1875
10163TIP3   OH251979   4.007   1.749  15.489  0.5404  0.3305  0.3411
10163TIP3    H151980   3.929   1.804  15.479  0.6124  0.8244  2.1441
10163TIP3    H251981   4.065   1.801  15.544  1.9320 -0.2702 -0.5226
10164TIP3   OH251982   4.807   5.615   6.438  0.0013  0.2640 -0.2827
10164TIP3    H151983   4.793   5.548   6.371 -2.0527 -0.8053  1.1319
10164TIP3    H251984   4.725   5.664   6.442 -0.2644 -0.2814  2.0542
10165TIP3   OH251985   3.597   4.613   4.917  0.6950  0.7910  0.1475
10165TIP3    H151986   3.575   4.684   4.978  0.6241  0.0539  1.0021
10165TIP3    H251987   3.618   4.538   4.974  0.9553  0.1794 -0.7329
10166TIP3   OH251988   2.408   5.045  13.268 -0.2887  0.4297  0.0669
10166TIP3    H151989   2.424   4.954  13.294  3.0345  0.5039 -1.1472
10166TIP3    H251990   2.411   5.095  13.349  1.0877 -0.2630  0.4800
10167TIP3   OH251991   0.515   2.368  14.223  0.1533  0.0551 -0.0741
10167TIP3    H151992   0.568   2.288  14.228  0.0299 -0.0450 -0.3599
10167TIP3    H251993   0.436   2.341  14.177  0.1862  0.3836 -0.3197
10168TIP3   OH251994   2.596   3.277   4.316 -1.6684 -0.4874 -0.3062
10168TIP3    H151995   2.611   3.358   4.364  0.6054  0.0134 -1.6991
10168TIP3    H251996   2.646   3.211   4.364  1.6151  0.2488 -2.4273
10169TIP3   OH251997   4.556   3.152  11.193 -0.2376 -0.4835 -0.0895
10169TIP3    H151998   4.492   3.149  11.122 -1.3164 -0.1487  0.8505
10169TIP3    H251999   4.558   3.244  11.220  0.2371 -0.5903  0.2505
10170TIP3   OH252000   3.820   1.588  12.873  0.3582 -0.1724 -0.1507
10170TIP3    H152001   3.782   1.642  12.942  2.1265  0.8409  0.1013
10170TIP3    H252002   3.852   1.510  12.918 -0.7062 -0.6816 -0.2485
10171TIP3   OH252003   4.514   2.399  11.682  0.1576 -0.0363 -0.3177
10171TIP3    H152004   4.600   2.429  11.652  0.3738 -0.4679 -0.1456
10171TIP3    H252005   4.533   2.322  11.735 -0.4472 -1.1895 -1.6875
10172TIP3   OH252006   0.536   3.810  12.076  0.0823  0.9124 -0.2566
10172TIP3    H152007   0.452   3.821  12.032 -0.1663  0.4176  0.0888
10172TIP3    H252008   0.519   3.834  12.167 -0.2909 -1.4023  0.3540
10173TIP3   OH252009   2.977   0.683  14.096 -0.3164 -0.2280 -0.7858
10173TIP3    H152010   2.883   0.686  14.113 -0.3512 -0.7074 -0.8745
10173TIP3    H252011   2.993   0.594  14.064  0.7083 -1.3096  2.3601
10174TIP3   OH252012   0.113   3.239  15.059 -0.4898  0.3531 -0.3029
10174TIP3    H152013   0.186   3.267  15.113 -0.5438 -0.6584  0.3257
10174TIP3    H252014   0.125   3.144  15.049 -1.4620  0.2374 -0.5528
10175TIP3   OH252015   2.848   5.119  16.919  0.5607  0.5533 -0.9174
10175TIP3    H152016   2.762   5.156  16.939  0.3214 -0.2096 -0.4789
10175TIP3    H252017   2.846   5.032  16.959  1.2754  0.2538 -1.5180
10176TIP3   OH252018   5.277   5.266   1.043  0.3466 -0.1913  0.2830
10176TIP3    H152019   5.270   5.283   0.949  2.4029 -0.1323  0.0784
10176TIP3    H252020   5.264   5.172   1.052 -1.2607  0.0004  0.1424
10177TIP3   OH252021   2.620   6.757   6.135 -0.0612  0.4137 -0.1235
10177TIP3    H152022   2.657   6.781   6.220  0.6237  2.6501 -0.9737
10177TIP3    H252023   2.528   6.785   6.141 -0.2358 -0.1971  0.1437
10178TIP3   OH252024   4.112   2.057   2.483 -0.0565  0.5818  0.2285
10178TIP3    H152025   4.193   2.106   2.470  0.7132 -0.3968  1.0688
10178TIP3    H252026   4.049   2.121   2.515  0.7526  1.1456  0.7422
10179TIP3   OH252027   5.823   2.517   2.078  0.3624  0.2744 -0.0754
10179TIP3    H152028   5.825   2.597   2.130  2.1651  0.7532 -0.8201
10179TIP3    H252029   5.740   2.523   2.030  0.5671  1.8080 -0.2911
10180TIP3   OH252030   6.568   6.767  11.407 -0.3761 -0.4513  0.8385
10180TIP3    H152031   6.569   6.679  11.367  1.3685 -0.0402 -0.1549
10180TIP3    H252032   6.660   6.785  11.425 -0.4102  1.9845 -0.9223
10181TIP3   OH252033   1.348   4.377   0.860  0.3227 -0.2625 -0.3026
10181TIP3    H152034   1.299   4.307   0.817  1.2098  0.3998 -2.5818
10181TIP3    H252035   1.435   4.340   0.874 -0.0771 -0.6146  1.4177
10182TIP3   OH252036   5.487   2.659  15.783 -0.7753  0.0443 -0.2039
10182TIP3    H152037   5.467   2.631  15.694  0.3392 -0.0035 -0.4525
10182TIP3    H252038   5.528   2.745  15.772  0.4905 -0.4912  0.1523
10183TIP3   OH252039   2.689   2.520  13.722 -0.9667 -0.4050 -0.1456
10183TIP3    H152040   2.766   2.497  13.671 -0.0988  0.7855  0.5809
10183TIP3    H252041   2.711   2.493  13.812 -1.3597  0.0094  0.0808
10184TIP3   OH252042   6.064   0.709   1.981  0.0807 -0.1920 -0.1102
10184TIP3    H152043   6.098   0.624   2.009  0.7816  0.9447  2.9184
10184TIP3    H252044   6.096   0.719   1.892 -0.7565 -3.4061 -0.9221
10185TIP3   OH252045   0.666   3.425  12.088  0.4311 -0.1544 -0.1883
10185TIP3    H152046   0.581   3.459  12.064  1.2076  0.1351 -2.8050
10185TIP3    H252047   0.648   3.338  12.124 -0.9477 -0.1382 -0.7936
10186TIP3   OH252048   0.114   4.701   5.781  0.2228 -0.6973  0.4608
10186TIP3    H152049   0.066   4.737   5.706  1.1525 -1.7843 -0.6859
10186TIP3    H252050   0.070   4.618   5.800 -2.0069  0.9142  3.1932
10187TIP3   OH252051   4.955   1.783  16.993 -0.5552 -0.1651 -0.6878
10187TIP3    H152052   4.908   1.756  17.071  0.0596 -1.3810 -0.7149
10187TIP3    H252053   4.986   1.871  17.013 -1.2745 -0.0635  0.0277
10188TIP3   OH252054   6.212   2.991  14.023 -0.3375 -0.6450 -0.0843
10188TIP3    H152055   6.190   2.901  13.996  1.0955 -1.7040  2.0108
10188TIP3    H252056   6.130   3.039  14.017 -0.7872 -1.5528 -3.0332
10189TIP3   OH252057   0.550   1.609   3.407  0.0543  0.2284 -0.6631
10189TIP3    H152058   0.571   1.583   3.317 -0.3882  1.6541 -1.2020
10189TIP3    H252059   0.456   1.628   3.405  0.3483  1.8542 -0.3316
10190TIP3   OH252060   5.173   2.784  15.516 -0.1771  0.4745 -0.0400
10190TIP3    H152061   5.101   2.747  15.465  0.3511  0.9875 -1.1724
10190TIP3    H252062   5.250   2.775  15.461  0.2329  1.9018  0.2619
10191TIP3   OH252063   5.431   1.726  11.461 -0.1269  0.4307  0.2830
10191TIP3    H152064   5.506   1.669  11.480 -0.5184 -0.4777 -0.7865
10191TIP3    H252065   5.416   1.774  11.542 -0.3947 -1.6869  1.5726
10192TIP3   OH252066   4.468   5.223  16.517  0.1180  0.3315  0.0266
10192TIP3    H152067   4.421   5.282  16.575 -1.4860 -1.8949  1.1448
10192TIP3    H252068   4.543   5.193  16.569 -0.6075 -0.6799  0.5227
10193TIP3   OH252069   2.052   2.533  15.816  0.0625  0.1296 -0.0939
10193TIP3    H152070   2.132   2.536  15.764  1.4782 -0.5358  1.9281
10193TIP3    H252071   2.059   2.608  15.876 -1.4446  0.7888 -0.6870
10194TIP3   OH252072   4.605   5.396  15.711 -0.0321 -0.1307 -0.4164
10194TIP3    H152073   4.691   5.438  15.703 -0.7187  1.2393 -1.0356
10194TIP3    H252074   4.603   5.332  15.639  1.7576 -2.7327  1.6547
10195TIP3   OH252075   5.063   5.378   6.371  0.2497  0.3704  0.0344
10195TIP3    H152076   5.089   5.452   6.426  1.9029 -0.7302  0.8101
10195TIP3    H252077   4.995   5.414   6.314 -0.6011  1.9154  1.8843
10196TIP3   OH252078   1.616   0.506  11.926  0.1439 -0.2932  0.0731
10196TIP3    H152079   1.673   0.432  11.907 -0.4863 -0.6692 -0.4339
10196TIP3    H252080   1.580   0.531  11.840 -0.5746 -0.1807  0.3951
10197TIP3   OH252081   4.678   2.202  12.176 -0.4325  0.7551 -0.7412
10197TIP3    H152082   4.629   2.277  12.142 -0.8021  0.5310 -0.7045
10197TIP3    H252083   4.755   2.241  12.217 -1.7107  1.3289  1.2657
10198TIP3   OH252084   4.476   3.625   3.773 -0.4213  0.0230  0.5431
10198TIP3    H152085   4.479   3.635   3.678 -1.7594  1.0530  0.5657
10198TIP3    H252086   4.550   3.569   3.795  0.3860  0.4428 -1.0189
10199TIP3   OH252087   4.677   2.571   5.465 -0.2692  0.4804  0.0216
10199TIP3    H152088   4.582   2.568   5.455 -0.1984 -0.3870 -0.4861
10199TIP3    H252089   4.697   2.498   5.524  0.3090 -1.0839 -1.9940
10200TIP3   OH252090   6.803   4.660   4.954  0.4101 -0.1622 -0.1742
10200TIP3    H152091   6.835   4.749   4.937 -0.2611 -0.0694 -0.9825
10200TIP3    H252092   6.799   4.619   4.868  2.2554 -1.5300  0.3402
10201TIP3   OH252093   6.358   1.992  16.336 -0.0347 -0.3709 -0.1513
10201TIP3    H152094   6.393   2.081  16.332 -0.9633 -0.0188 -0.6770
10201TIP3    H252095   6.301   1.991  16.413  0.5467 -0.7335  0.2832
10202TIP3   OH252096   2.980   1.714   3.643 -0.4090 -0.5327  0.4263
10202TIP3    H152097   2.898   1.762   3.657 -0.9834 -1.0787 -0.9748
10202TIP3    H252098   3.009   1.690   3.731 -0.5197  1.6615  1.1317
10203TIP3   OH252099   4.461   1.978  14.664 -0.3368  0.2196  0.9138
10203TIP3    H152100   4.415   1.933  14.735  1.4691 -0.7732  1.5100
10203TIP3    H252101   4.484   1.908  14.603 -0.0428  0.7750  0.3811
10204TIP3   OH252102   1.654   3.455  15.380  0.4412 -0.3064  0.7472
10204TIP3    H152103   1.737   3.412  15.402  0.4909  0.2396  1.6516
10204TIP3    H252104   1.678   3.547  15.366  0.0883 -0.2706  0.3488
10205TIP3   OH252105   5.518   1.780   1.949  0.7634 -0.2292 -0.0613
10205TIP3    H152106   5.539   1.870   1.926 -0.0309  0.2080  0.8587
10205TIP3    H252107   5.560   1.767   2.035  2.0844 -1.2143 -0.8167
10206TIP3   OH252108   5.199   0.566  16.259 -0.6037  0.1753  0.0256
10206TIP3    H152109   5.214   0.472  16.272 -0.2452  0.5197  2.7049
10206TIP3    H252110   5.178   0.574  16.166 -1.5307 -2.6790 -0.1255
10207TIP3   OH252111   0.289   3.994   3.210 -0.6068 -0.1558  0.5814
10207TIP3    H152112   0.327   3.915   3.249 -1.4909  0.1638  2.1661
10207TIP3    H252113   0.218   3.961   3.154  0.5701 -0.6051 -0.7341
10208TIP3   OH252114   0.597   1.545   0.682  0.0607  0.2669 -0.7956
10208TIP3    H152115   0.662   1.529   0.751  0.2790  1.3688 -0.7172
10208TIP3    H252116   0.522   1.582   0.729 -1.1131 -2.0427 -0.7277
10209TIP3   OH252117   0.861   1.945   5.923 -0.0684  0.7229 -0.1887
10209TIP3    H152118   0.907   2.009   5.978 -0.4266  0.2843  0.6377
10209TIP3    H252119   0.768   1.962   5.938 -0.3241  2.7279 -3.1254
10210TIP3   OH252120   5.698   0.938   2.308  0.4905 -0.0051 -0.0198
10210TIP3    H152121   5.746   0.856   2.300  1.1470  0.5059 -2.0417
10210TIP3    H252122   5.606   0.913   2.313  0.6865 -0.8702 -0.6345
10211TIP3   OH252123   5.824   2.388  11.167 -0.2618 -0.3919  0.0422
10211TIP3    H152124   5.813   2.446  11.091 -1.1337 -0.5230  0.0552
10211TIP3    H252125   5.908   2.414  11.205  0.8398 -1.1881 -1.6954
10212TIP3   OH252126   6.693   3.566  16.154 -0.2435 -0.6663  0.0267
10212TIP3    H152127   6.681   3.585  16.060 -1.9815  0.0399  0.3477
10212TIP3    H252128   6.662   3.645  16.198  0.0568 -1.1961  1.2263
10213TIP3   OH252129   1.752   1.842  15.169 -0.5736  0.0253 -0.3328
10213TIP3    H152130   1.707   1.922  15.144  0.2735  0.2108 -1.3634
10213TIP3    H252131   1.845   1.867  15.172 -0.2378 -1.0277 -1.2283
10214TIP3   OH252132   2.008   4.904   1.471 -0.5295 -0.7924 -0.0383
10214TIP3    H152133   2.091   4.947   1.492 -1.3855  0.7227  0.4342
10214TIP3    H252134   1.988   4.932   1.382 -1.1966 -0.0217  0.3470
10215TIP3   OH252135   3.968   5.357  15.689 -0.2656 -0.6091  0.1431
10215TIP3    H152136   4.044   5.358  15.631  0.7654  1.8751  1.3667
10215TIP3    H252137   3.893   5.365  15.630  0.6362  0.1825 -0.9487
10216TIP3   OH252138   5.545   3.974   3.845  0.0165  0.5530  0.4997
10216TIP3    H152139   5.576   3.892   3.807 -2.3397  0.7230 -2.1167
10216TIP3    H252140   5.503   3.948   3.927 -1.0554 -0.9783 -0.4727
10217TIP3   OH252141   5.651   3.843  16.037 -0.1603 -0.2740 -0.1391
10217TIP3    H152142   5.641   3.938  16.045  1.6671 -0.1092  1.1324
10217TIP3    H252143   5.738   3.831  15.998 -0.3933 -1.4262 -0.3542
10218TIP3   OH252144   3.296   1.599   4.497  0.0635 -0.5351 -0.1810
10218TIP3    H152145   3.334   1.629   4.414  0.2498 -0.4854 -0.0778
10218TIP3    H252146   3.212   1.643   4.502 -0.6217 -1.7053 -1.0728
10219TIP3   OH252147   3.915   3.988  17.062 -0.1789 -0.0217  0.3399
10219TIP3    H152148   3.893   3.996  16.970  0.8573 -2.4949 -0.2079
10219TIP3    H252149   4.001   4.028  17.071  1.2205 -2.6194 -0.5551
10220TIP3   OH252150   6.524   2.813   5.002 -0.3560  0.2202  0.3534
10220TIP3    H152151   6.442   2.862   4.995 -1.0445 -1.0577 -1.1807
10220TIP3    H252152   6.527   2.784   5.093 -1.0233  1.2190  0.7164
10221TIP3   OH252153   5.338   1.363   4.712 -0.1674 -0.4205  0.1153
10221TIP3    H152154   5.420   1.314   4.709  0.1292 -0.0205  1.1756
10221TIP3    H252155   5.271   1.298   4.732 -0.1181 -0.7422 -0.7182
10222TIP3   OH252156   6.278   1.001  13.519  0.2827  0.0508 -0.1512
10222TIP3    H152157   6.235   1.086  13.508 -0.9387 -0.5295 -0.0289
10222TIP3    H252158   6.261   0.954  13.437  0.7195 -0.1753 -0.1162
10223TIP3   OH252159   6.183   6.197   3.482 -0.0648 -0.1616  0.3929
10223TIP3    H152160   6.202   6.112   3.521 -0.3429 -0.2237  0.3895
10223TIP3    H252161   6.222   6.260   3.543 -1.2758 -0.2097  1.2524
10224TIP3   OH252162   4.606   5.200   4.194 -0.3749  0.0140 -0.5505
10224TIP3    H152163   4.575   5.291   4.198 -3.2344 -0.6390 -3.5055
10224TIP3    H252164   4.698   5.207   4.168 -0.2389  2.0311  0.2900
10225TIP3   OH252165   2.929   1.126   5.577  0.1834 -0.0850  0.1596
10225TIP3    H152166   2.948   1.039   5.541  1.6220  0.5101 -0.5809
10225TIP3    H252167   2.972   1.126   5.663  1.5663  0.4126 -0.5005
10226TIP3   OH252168   6.248   2.571   5.979  0.1219  0.4931 -0.2617
10226TIP3    H152169   6.333   2.528   5.970  1.2069  2.5850 -0.5174
10226TIP3    H252170   6.221   2.551   6.069  0.9040 -0.1248 -0.1495
10227TIP3   OH252171   6.515   3.665   6.830 -0.1954  0.0981 -0.4517
10227TIP3    H152172   6.424   3.677   6.855 -0.4326 -1.7822 -0.3183
10227TIP3    H252173   6.564   3.672   6.913 -0.2068  1.0134 -0.5116
10228TIP3   OH252174   0.197   4.715   0.247 -0.4925 -0.0699 -0.1103
10228TIP3    H152175   0.279   4.686   0.207  0.5898  1.0175  1.2079
10228TIP3    H252176   0.207   4.810   0.254 -0.6747 -0.1872  2.5211
10229TIP3   OH252177   1.903   1.955   3.717 -0.1926 -0.0133  0.2303
10229TIP3    H152178   1.926   2.014   3.789  1.0854 -1.3157  0.9362
10229TIP3    H252179   1.956   1.877   3.732 -0.7420 -0.7655 -1.5155
10230TIP3   OH252180   1.719   2.891   3.267  0.4309  0.6255 -0.1708
10230TIP3    H152181   1.737   2.834   3.192 -0.0760 -1.0118  0.8968
10230TIP3    H252182   1.785   2.867   3.332 -1.5838 -0.9657  1.4244
10231TIP3   OH252183   3.780   3.554   6.029  0.3147 -0.3633 -0.1477
10231TIP3    H152184   3.688   3.543   6.053  0.1959 -0.7152 -0.7302
10231TIP3    H252185   3.824   3.581   6.109 -0.2550 -0.4482  0.1927
10232TIP3   OH252186   0.103   0.871   1.698  0.4267 -0.1707 -0.2593
10232TIP3    H152187   0.193   0.882   1.731  0.8619 -0.8962 -1.1566
10232TIP3    H252188   0.048   0.904   1.769  1.3474 -1.1668  0.9791
10233TIP3   OH252189   3.477   4.508  10.505  0.2006  0.1818 -0.1923
10233TIP3    H152190   3.457   4.536  10.595  0.0354 -1.0678  0.1815
10233TIP3    H252191   3.475   4.589  10.454  1.7805  1.1583  1.1730
10234TIP3   OH252192   6.175   2.579  10.911 -0.0959  0.2315 -0.0280
10234TIP3    H152193   6.240   2.539  10.968  0.5040  0.1907 -0.7401
10234TIP3    H252194   6.199   2.552  10.823 -1.5719 -0.4843 -0.2441
10235TIP3   OH252195   1.531   0.869  11.909 -0.2871  0.5399  0.4936
10235TIP3    H152196   1.508   0.802  11.845  1.2013 -0.2859  0.7774
10235TIP3    H252197   1.530   0.951  11.860 -1.4515  0.2387 -0.0175
10236TIP3   OH252198   2.887   0.368  13.305 -0.3320 -0.0103 -0.3781
10236TIP3    H152199   2.792   0.358  13.310 -0.3085 -0.9725 -1.5241
10236TIP3    H252200   2.922   0.279  13.311  0.5078  0.3369  0.1051
10237TIP3   OH252201   5.823   0.979  15.903  0.2620 -0.1682  0.0902
10237TIP3    H152202   5.784   0.919  15.966 -0.9144 -0.0739 -0.5292
10237TIP3    H252203   5.845   1.057  15.954 -0.9776  0.0374  0.3393
10238TIP3   OH252204   2.254   1.797  13.015 -0.1496  0.1628 -0.0419
10238TIP3    H152205   2.166   1.786  13.051  1.7893 -2.1237  4.8740
10238TIP3    H252206   2.254   1.744  12.935 -3.4769  1.4345 -1.0641
10239TIP3   OH252207   2.552   4.953   5.576  0.0225  0.2605 -0.1473
10239TIP3    H152208   2.518   5.038   5.545 -0.7512  0.5231  1.3021
10239TIP3    H252209   2.486   4.890   5.547 -0.4443  0.4369  0.5081
10240TIP3   OH252210   2.846   4.793  15.485  0.6072 -0.7442  0.0715
10240TIP3    H152211   2.933   4.768  15.517  1.5082  0.0200 -1.6566
10240TIP3    H252212   2.850   4.776  15.391 -0.4513  1.1587 -0.3501
10241TIP3   OH252213   4.485   0.603   1.504 -0.2991  0.0813  0.2381
10241TIP3    H152214   4.553   0.553   1.547  1.2966  1.1018 -0.9887
10241TIP3    H252215   4.409   0.594   1.561  1.1622 -0.1612  2.2465
10242TIP3   OH252216   2.052   2.846  14.659  0.6802 -0.4294 -1.2236
10242TIP3    H152217   1.973   2.836  14.711 -0.5335  3.6257 -1.9917
10242TIP3    H252218   2.033   2.800  14.577  0.5048 -2.2471 -0.2142
10243TIP3   OH252219   1.473   3.690   2.404  0.0965 -0.1110 -0.0303
10243TIP3    H152220   1.523   3.770   2.389 -1.6352  1.1961  0.8509
10243TIP3    H252221   1.510   3.653   2.484  0.2392  0.3480  0.1175
10244TIP3   OH252222   6.781   0.835   2.246 -0.0608  0.0343 -0.1239
10244TIP3    H152223   6.784   0.739   2.251  1.9943 -0.0196 -1.0407
10244TIP3    H252224   6.872   0.860   2.226 -0.9636  2.0103 -2.1751
10245TIP3   OH252225   5.846   0.710   4.050 -0.3647  0.0370 -0.2671
10245TIP3    H152226   5.844   0.620   4.019 -0.7546 -0.3702  0.8821
10245TIP3    H252227   5.754   0.734   4.062 -0.2961  0.8260 -1.1912
10246TIP3   OH252228   0.747   2.495  10.372  0.1148 -0.4326  0.1579
10246TIP3    H152229   0.694   2.436  10.319 -2.5917  2.0839 -0.1612
10246TIP3    H252230   0.704   2.495  10.458 -1.2067  2.4070 -0.3854
10247TIP3   OH252231   2.515   0.556  11.112  0.3047 -0.0331 -0.2442
10247TIP3    H152232   2.449   0.530  11.176  0.8342 -0.8311  0.0026
10247TIP3    H252233   2.489   0.643  11.084 -1.5669 -0.8047 -1.0919
10248TIP3   OH252234   5.632   0.821   5.118 -0.7160 -0.5460  0.0252
10248TIP3    H152235   5.610   0.754   5.183  0.2003  0.1943  1.1319
10248TIP3    H252236   5.727   0.814   5.108 -0.7230  0.0276 -0.4634
10249TIP3   OH252237   0.412   1.128  15.627  0.5136 -0.1235  0.4553
10249TIP3    H152238   0.505   1.128  15.647  0.9446  0.4351 -1.3264
10249TIP3    H252239   0.404   1.073  15.549 -0.7690 -0.7649  1.0017
10250TIP3   OH252240   1.079   3.356  11.294 -0.1705  0.4309  0.4869
10250TIP3    H152241   1.172   3.334  11.295 -0.0263  0.9104 -0.5770
10250TIP3    H252242   1.049   3.333  11.206 -1.3828 -0.9163  1.2093
10251TIP3   OH252243   5.484   3.607  12.767 -0.3757 -0.6437 -0.2611
10251TIP3    H152244   5.422   3.674  12.737 -0.3276  0.0943  1.2140
10251TIP3    H252245   5.511   3.636  12.854  1.0109 -1.6698 -0.3120
10252TIP3   OH252246   1.262   1.094  13.893 -0.0166  0.0610 -0.2706
10252TIP3    H152247   1.297   1.135  13.814 -0.3768 -0.9645 -0.9779
10252TIP3    H252248   1.340   1.062  13.940  0.1106 -1.1464 -1.2481
10253TIP3   OH252249   2.341   0.945  14.146  0.2068 -0.0904  0.1971
10253TIP3    H152250   2.330   0.891  14.068 -0.2037  0.4482 -0.1277
10253TIP3    H252251   2.387   1.023  14.116  0.8786 -0.2928  0.6820
10254TIP3   OH252252   3.614   2.589   0.430  0.2488 -0.1398  0.2714
10254TIP3    H152253   3.524   2.622   0.426 -0.3283 -1.7381 -0.7530
10254TIP3    H252254   3.629   2.571   0.523 -0.1856  0.8667  0.5544
10255TIP3   OH252255   3.149   3.270   4.349 -0.0311  0.2383 -0.3435
10255TIP3    H152256   3.197   3.232   4.422 -1.0876 -0.6920 -0.1145
10255TIP3    H252257   3.060   3.282   4.381  0.3021  3.3093 -0.2810
10256TIP3   OH252258   0.145   3.662   2.137  0.1056 -0.5377  0.0318
10256TIP3    H152259   0.152   3.758   2.129 -2.3753 -0.2570  0.2528
10256TIP3    H252260   0.207   3.638   2.205  0.5701  0.9662  0.1700
10257TIP3   OH252261   6.008   1.297   1.501  0.1301  0.4950  0.8524
10257TIP3    H152262   6.009   1.268   1.593 -0.2902 -0.6195  0.5186
10257TIP3    H252263   6.088   1.260   1.464  2.0985  3.6596  1.5145
10258TIP3   OH252264   6.232   0.892  11.913  0.2814 -0.2327  0.4126
10258TIP3    H152265   6.299   0.914  11.978 -1.7020  2.7398  1.6838
10258TIP3    H252266   6.238   0.961  11.847 -0.6555 -0.6569 -0.1427
10259TIP3   OH252267   5.230   2.019  13.754 -0.1920  0.1527 -0.4084
10259TIP3    H152268   5.273   2.100  13.781 -1.9323  1.6704 -1.9218
10259TIP3    H252269   5.254   1.955  13.822  0.2654  2.2412  1.5112
10260TIP3   OH252270   3.034   5.193   5.690  0.3166 -0.0738  0.1832
10260TIP3    H152271   2.966   5.135   5.655  0.8568 -1.6705  1.6042
10260TIP3    H252272   3.100   5.196   5.621 -1.8812  3.0207 -2.0300
10261TIP3   OH252273   5.143   4.464   5.874 -0.2765  0.2427  0.4620
10261TIP3    H152274   5.174   4.393   5.818 -0.7834  0.1185  0.3335
10261TIP3    H252275   5.176   4.442   5.962 -1.5058 -0.8455  0.6860
10262TIP3   OH252276   2.771   1.682   6.609  0.6714  0.2574 -0.2747
10262TIP3    H152277   2.741   1.725   6.528 -3.1534 -1.8478 -0.2524
10262TIP3    H252278   2.710   1.713   6.676  1.4164 -0.8757  0.9665
10263TIP3   OH252279   1.630   1.015   5.587 -0.6057 -1.3392  0.3734
10263TIP3    H152280   1.702   0.959   5.558  1.4168  1.3790 -0.1942
10263TIP3    H252281   1.619   1.079   5.518 -5.0792 -2.7189 -0.5576
10264TIP3   OH252282   1.323   3.556   3.224  0.0382 -0.0680  0.3740
10264TIP3    H152283   1.241   3.524   3.262  0.6552 -0.8352  1.0973
10264TIP3    H252284   1.327   3.514   3.138 -2.3467  3.2180 -1.5428
10265TIP3   OH252285   4.783   4.676   2.465  0.7198  0.1386 -0.1212
10265TIP3    H152286   4.805   4.598   2.516 -0.0237 -0.8709 -1.2848
10265TIP3    H252287   4.741   4.735   2.528 -1.9101 -1.8357  0.1211
10266TIP3   OH252288   1.948   1.500  14.272 -0.3339  0.0746 -0.0376
10266TIP3    H152289   1.956   1.586  14.313 -0.6608 -0.0155  0.2214
10266TIP3    H252290   1.865   1.503  14.226 -0.6661 -0.3256  0.5203
10267TIP3   OH252291   0.480   3.962   1.259 -0.6331 -0.2724 -0.2279
10267TIP3    H152292   0.519   4.050   1.257 -1.2811  0.2297  2.8709
10267TIP3    H252293   0.518   3.921   1.337 -2.5994 -1.5607  0.1411
10268TIP3   OH252294   4.999   0.526   3.160  0.1639 -0.2506  0.3796
10268TIP3    H152295   5.067   0.461   3.177  0.9389  0.4436  0.0092
10268TIP3    H252296   4.983   0.567   3.245  1.4962  0.7939  0.1542
10269TIP3   OH252297   1.895   2.543  17.004  0.9815  0.3121  0.1931
10269TIP3    H152298   1.804   2.557  16.981  0.8098  0.0854  0.7066
10269TIP3    H252299   1.922   2.625  17.046  0.9099  0.2509  0.3588
10270TIP3   OH252300   6.358   6.771  15.227  0.1100  0.3772  0.1139
10270TIP3    H152301   6.332   6.736  15.142 -0.9510  1.4050  0.0026
10270TIP3    H252302   6.291   6.738  15.288  0.6089  0.0240  0.4829
10271TIP3   OH252303   2.219   3.364  10.084 -0.2062  0.1645 -0.4566
10271TIP3    H152304   2.186   3.430  10.144 -2.9499  0.7759 -2.4000
10271TIP3    H252305   2.313   3.361  10.099 -0.6882  0.4556  3.5650
10272TIP3   OH252306   3.980   0.487  12.556 -0.2422  0.5543 -0.7040
10272TIP3    H152307   4.035   0.436  12.497 -1.3849  0.0126 -1.3240
10272TIP3    H252308   4.040   0.515  12.626  0.1771 -2.7401  0.4284
10273TIP3   OH252309   4.797   0.312   5.903 -0.1214  0.4790 -0.4422
10273TIP3    H152310   4.719   0.297   5.849 -0.7989 -0.1796  0.6733
10273TIP3    H252311   4.870   0.285   5.847 -0.6774  1.1973 -1.5390
10274TIP3   OH252312   5.243   1.556   3.930 -0.2326 -0.0029  0.3921
10274TIP3    H152313   5.307   1.606   3.980 -0.3943  1.0398 -0.4158
10274TIP3    H252314   5.295   1.491   3.884  0.1879  0.4946  0.1548
10275TIP3   OH252315   4.792   3.023   4.119 -0.3519 -0.3488  0.7927
10275TIP3    H152316   4.806   3.117   4.109  0.3969 -0.4872  0.4352
10275TIP3    H252317   4.742   3.014   4.200  0.6522  0.2843  1.5090
10276TIP3   OH252318   4.830   4.632  13.175  0.2429  0.0950 -0.0738
10276TIP3    H152319   4.854   4.683  13.097  0.5727  0.0587  0.0001
10276TIP3    H252320   4.908   4.636  13.230 -0.1597  0.5389  0.4765
10277TIP3   OH252321   3.352   1.315  13.992  0.2219 -0.1021  0.8826
10277TIP3    H152322   3.359   1.270  14.076  1.9970  2.6536  2.3936
10277TIP3    H252323   3.423   1.380  13.994 -0.9842  1.4916 -1.8696
10278TIP3   OH252324   6.699   1.234  13.634  0.0959 -0.1905  0.1960
10278TIP3    H152325   6.613   1.276  13.642  0.3434  0.1210  1.2740
10278TIP3    H252326   6.689   1.174  13.559 -0.1899  1.9198 -1.5364
10279TIP3   OH252327   2.577   2.287   1.790  0.0236  0.0405  0.2751
10279TIP3    H152328   2.538   2.357   1.737 -0.7102 -2.7558 -3.3154
10279TIP3    H252329   2.661   2.324   1.820 -0.4984  2.5812 -1.0801
10280TIP3   OH252330   0.810   0.755   1.020 -0.1149  0.3629 -0.0597
10280TIP3    H152331   0.738   0.802   1.062 -0.5296  0.4650 -0.8562
10280TIP3    H252332   0.768   0.679   0.979  0.4615 -0.3755  0.6988
10281TIP3   OH252333   3.157   2.769   5.197 -0.2437  0.3678  0.6052
10281TIP3    H152334   3.211   2.784   5.120  0.0389 -1.6338  0.3447
10281TIP3    H252335   3.088   2.834   5.192 -0.2945  0.2116 -1.4074
10282TIP3   OH252336   5.166   6.238   0.169  0.5322  0.2138  0.2803
10282TIP3    H152337   5.127   6.208   0.087 -0.3043 -1.4592  1.2329
10282TIP3    H252338   5.095   6.283   0.215  0.5868 -0.0867  0.6738
10283TIP3   OH252339   3.368   4.302   3.224 -0.0675 -0.0087 -0.0531
10283TIP3    H152340   3.329   4.308   3.311 -0.6024 -1.2506 -0.1808
10283TIP3    H252341   3.345   4.385   3.182 -1.2280 -0.0637  0.4228
10284TIP3   OH252342   0.453   1.432  11.370  0.0027 -0.2105 -0.2660
10284TIP3    H152343   0.544   1.407  11.379  1.0808  1.6231 -3.9775
10284TIP3    H252344   0.433   1.478  11.452  2.4865 -0.4336  0.5531
10285TIP3   OH252345   2.445   2.789  13.412  0.1804  0.1424  0.0411
10285TIP3    H152346   2.479   2.704  13.442  0.4775  0.6572  1.2017
10285TIP3    H252347   2.358   2.769  13.379  0.6787 -0.8031 -0.7680
10286TIP3   OH252348   5.135   1.044   3.287  0.2309 -0.3975  0.6238
10286TIP3    H152349   5.063   1.048   3.350  0.7812  0.7313  1.2226
10286TIP3    H252350   5.190   1.119   3.310  0.6877 -0.2327 -0.9270
10287TIP3   OH252351   1.770   1.201   0.618  0.0896 -0.0985  0.5119
10287TIP3    H152352   1.856   1.219   0.580 -0.3843 -0.6982 -0.8946
10287TIP3    H252353   1.777   1.113   0.653  0.1592 -0.0012  0.7453
10288TIP3   OH252354   2.208   0.390   2.250 -0.1527 -0.1792 -0.4181
10288TIP3    H152355   2.242   0.429   2.169 -2.2645  1.3923 -0.6328
10288TIP3    H252356   2.251   0.439   2.320 -1.3236  1.2819 -0.6742
10289TIP3   OH252357   5.178   2.614   1.945 -0.6299  0.2441 -0.1203
10289TIP3    H152358   5.241   2.682   1.966 -0.3402 -0.2994  0.8394
10289TIP3    H252359   5.125   2.605   2.025  0.9921 -2.4341  0.7959
10290TIP3   OH252360   4.137   6.214  13.824 -0.2399  0.4462  0.3859
10290TIP3    H152361   4.108   6.130  13.790  1.4010  0.0216 -0.0453
10290TIP3    H252362   4.229   6.221  13.799  0.1080  1.6581  1.7767
10291TIP3   OH252363   3.581   0.723  12.404 -0.3427 -0.4327 -0.8805
10291TIP3    H152364   3.671   0.730  12.371 -0.3242 -0.1919 -0.7833
10291TIP3    H252365   3.546   0.644  12.363 -0.3444 -0.1045 -1.5257
10292TIP3   OH252366   0.160   0.666  14.968  0.0458 -0.5953  0.3774
10292TIP3    H152367   0.070   0.659  14.938 -0.2825 -1.9049  1.5815
10292TIP3    H252368   0.165   0.609  15.044  1.8581 -0.4327  0.4297
10293TIP3   OH252369   1.285   4.004  14.154 -0.2616  0.6891  0.2050
10293TIP3    H152370   1.346   4.007  14.081 -0.4939 -1.3910 -0.1323
10293TIP3    H252371   1.206   4.048  14.122  0.2792  1.4620 -0.0973
10294TIP3   OH252372   5.931   0.593  13.108  0.1887 -0.1270 -0.7029
10294TIP3    H152373   5.874   0.667  13.087  0.3124  0.1652 -0.0149
10294TIP3    H252374   5.981   0.578  13.028 -0.2822  0.1290 -1.0481
10295TIP3   OH252375   5.697   3.123  15.521  0.2020 -0.1274 -0.4145
10295TIP3    H152376   5.754   3.199  15.517 -2.0745  1.6447 -1.4797
10295TIP3    H252377   5.725   3.069  15.447 -0.1942  1.2868 -1.6513
10296TIP3   OH252378   5.116   0.539  13.514  0.1748 -0.2269  0.0808
10296TIP3    H152379   5.196   0.561  13.465 -0.5601  2.2263 -0.1586
10296TIP3    H252380   5.046   0.585  13.467 -0.7603  1.0777  2.5660
10297TIP3   OH252381   1.987   5.937   4.141 -0.3706  0.2847  0.0565
10297TIP3    H152382   2.042   5.866   4.174 -0.7628 -0.8117 -1.5664
10297TIP3    H252383   1.948   5.975   4.220  0.6463 -0.6190  1.0272
10298TIP3   OH252384   5.238   3.795   3.984 -0.1001  0.2412  0.0280
10298TIP3    H152385   5.267   3.737   3.913 -0.8129  1.5998 -1.4310
10298TIP3    H252386   5.190   3.737   4.044 -0.1021 -0.8256 -0.9681
10299TIP3   OH252387   3.240   5.459  15.742  0.0168  0.0314  0.0442
10299TIP3    H152388   3.158   5.469  15.693 -0.4517  0.4954  0.8996
10299TIP3    H252389   3.268   5.369  15.726  0.2194  0.3401 -1.5859
10300TIP3   OH252390   0.786   2.284   5.733 -0.2594 -0.2007 -0.6863
10300TIP3    H152391   0.866   2.235   5.753 -0.2537 -0.3196 -0.9947
10300TIP3    H252392   0.805   2.329   5.651  0.1212  1.1902  0.1268
10301TIP3   OH252393   4.437   2.172   0.060  0.2572 -0.3691 -0.0788
10301TIP3    H152394   4.398   2.210   0.138  1.5645  0.2062  0.3247
10301TIP3    H252395   4.390   2.089   0.048 -2.5938  1.2391 -0.9484
10302TIP3   OH252396   1.923   5.109   2.477  0.4382 -0.3794  0.5072
10302TIP3    H152397   1.843   5.098   2.529  0.7594 -1.9838  0.7026
10302TIP3    H252398   1.950   5.020   2.455  0.9847  0.2145 -1.4099
10303TIP3   OH252399   1.457   0.282  16.522  0.1825  0.4698 -0.2489
10303TIP3    H152400   1.512   0.316  16.451 -0.4727  2.1344 -0.0042
10303TIP3    H252401   1.447   0.356  16.582 -0.5603 -0.4486  0.8010
10304TIP3   OH252402   1.098   4.904   0.002 -1.1380 -0.0964 -0.3769
10304TIP3    H152403   1.135   4.863  -0.076 -1.2616  2.0344 -1.6311
10304TIP3    H252404   1.170   4.954   0.039 -1.5391  0.3082 -0.1374
10305TIP3   OH252405   3.595   6.095   5.054  0.1078  0.2579  0.4259
10305TIP3    H152406   3.527   6.076   5.120  0.3374  1.7814  1.1621
10305TIP3    H252407   3.548   6.141   4.985  0.3406  1.2564  0.9062
10306TIP3   OH252408   2.141   1.907   3.228 -0.1736 -0.4104  0.0762
10306TIP3    H152409   2.098   1.893   3.143  2.3055 -0.1434 -1.2966
10306TIP3    H252410   2.127   2.000   3.247  0.8409 -0.0205 -0.9964
10307TIP3   OH252411   1.733   4.876   5.918  0.2813  0.0218 -0.0723
10307TIP3    H152412   1.721   4.895   6.011 -0.8758  1.0856 -0.4130
10307TIP3    H252413   1.822   4.907   5.899 -0.2237  1.7458  0.2274
10308TIP3   OH252414   0.184   4.154  10.909  0.4940 -0.0347  0.1748
10308TIP3    H152415   0.120   4.203  10.858  0.1049  0.5858  1.2247
10308TIP3    H252416   0.224   4.094  10.846  0.5175  1.1632 -1.0049
10309TIP3   OH252417   5.395   1.216  16.990  0.0568 -0.0898  0.0622
10309TIP3    H152418   5.313   1.253  17.024 -1.0115 -2.9659  0.8666
10309TIP3    H252419   5.464   1.265  17.035 -1.1841  1.8116  0.0312
10310TIP3   OH252420   3.995   3.194   1.961 -0.0851  0.1839  0.3978
10310TIP3    H152421   3.976   3.204   1.868  1.1620  1.3341  0.2384
10310TIP3    H252422   4.030   3.106   1.969 -1.6043 -0.4831  0.0525
10311TIP3   OH252423   2.942   0.944  14.380  0.6511  0.5436 -0.0820
10311TIP3    H152424   2.915   0.977  14.294 -1.0921 -0.0881  0.1623
10311TIP3    H252425   2.870   0.968  14.438  1.7713  0.8838  1.2008
10312TIP3   OH252426   2.103   2.086  12.933 -0.5630 -0.4387  0.0196
10312TIP3    H152427   2.070   2.146  12.866  0.7301 -1.2793 -1.4626
10312TIP3    H252428   2.170   2.034  12.887  0.7685 -0.6977  2.1106
10313TIP3   OH252429   6.207   0.898  16.610 -0.3087 -0.0028 -0.2468
10313TIP3    H152430   6.206   0.881  16.516  0.0196  0.3625 -0.3192
10313TIP3    H252431   6.265   0.973  16.621 -0.0858 -0.2422  0.2836
10314TIP3   OH252432   1.507   5.690  13.604  0.2115 -0.3113  0.3472
10314TIP3    H152433   1.446   5.618  13.589 -0.9816  0.6121  0.6853
10314TIP3    H252434   1.583   5.668  13.550 -1.2040 -0.5029 -1.6757
10315TIP3   OH252435   2.794   3.699  14.646 -0.4619 -0.5963  0.6131
10315TIP3    H152436   2.818   3.787  14.619  2.8382 -1.9724 -1.5683
10315TIP3    H252437   2.785   3.704  14.741 -0.7886  2.1247  0.4997
10316TIP3   OH252438   1.076   5.172  13.738 -0.0625 -0.4854 -0.3954
10316TIP3    H152439   1.018   5.195  13.810 -0.4013  2.1764 -1.4262
10316TIP3    H252440   1.164   5.177  13.776 -0.2983 -0.5812  0.1816
10317TIP3   OH252441   6.741   1.379   5.618  0.5503  0.0779 -0.2123
10317TIP3    H152442   6.779   1.371   5.706 -2.0610  0.2044  1.0403
10317TIP3    H252443   6.685   1.457   5.624  0.3160  0.0839 -2.0036
10318TIP3   OH252444   2.295   4.670   5.239  0.0152 -0.4150  0.0168
10318TIP3    H152445   2.288   4.578   5.214 -0.2861 -0.3096 -0.2993
10318TIP3    H252446   2.232   4.680   5.311  2.0115 -1.0905  1.9593
10319TIP3   OH252447   2.582   5.805  15.630  0.8424  0.1043 -0.5590
10319TIP3    H152448   2.549   5.720  15.600  1.6879 -1.4620  2.4881
10319TIP3    H252449   2.677   5.800  15.616  0.9904  0.2031  0.3686
10320TIP3   OH252450   1.568   1.784   4.587  0.5799  0.5764  0.7119
10320TIP3    H152451   1.632   1.766   4.655  1.7760 -2.3150 -1.0059
10320TIP3    H252452   1.484   1.792   4.633  1.3441 -1.2466  2.5474
10321TIP3   OH252453   1.642   6.704   0.750 -0.0317  0.3566 -0.4151
10321TIP3    H152454   1.736   6.722   0.742  0.0517 -0.3689 -1.2411
10321TIP3    H252455   1.627   6.698   0.844  0.9010 -0.2223 -0.2884
10322TIP3   OH252456   3.936   2.996  13.606 -0.0674  0.1073 -0.2221
10322TIP3    H152457   3.849   3.000  13.568 -0.1804 -1.1247 -0.1184
10322TIP3    H252458   3.982   2.929  13.556  0.3371 -0.3071  0.6732
10323TIP3   OH252459   1.859   6.804  15.833  0.0427  0.2295  0.0769
10323TIP3    H152460   1.765   6.793  15.823  0.0026  1.4495 -1.1608
10323TIP3    H252461   1.896   6.769  15.752  0.7248 -0.8355  0.8197
10324TIP3   OH252462   1.146   6.752  11.495 -0.1412  0.1422 -0.0104
10324TIP3    H152463   1.224   6.736  11.443 -1.1749  1.0680 -1.9368
10324TIP3    H252464   1.154   6.843  11.524 -0.6258  0.3350 -0.4674
10325TIP3   OH252465   1.601   3.946  12.899  0.4252  0.1020 -0.3897
10325TIP3    H152466   1.694   3.967  12.893  0.4771 -0.4958 -3.1854
10325TIP3    H252467   1.588   3.875  12.836 -2.0168  0.4860 -0.4322
10326TIP3   OH252468   5.214   2.984  14.336 -0.0971 -0.5656  0.2421
10326TIP3    H152469   5.201   2.970  14.243  1.2097  2.2069 -0.4706
10326TIP3    H252470   5.208   3.079  14.347  2.6892 -0.4877  2.4272
10327TIP3   OH252471   1.243   3.009  10.741  0.0428 -0.6381 -0.0008
10327TIP3    H152472   1.151   2.987  10.758 -0.3170 -0.2250 -1.2580
10327TIP3    H252473   1.239   3.091  10.691  1.1998  0.5891  1.8028
10328TIP3   OH252474   1.411   5.645   4.256  0.0402  0.3900 -0.2484
10328TIP3    H152475   1.348   5.698   4.207  1.2698  0.9893 -1.2206
10328TIP3    H252476   1.450   5.586   4.192 -0.4166 -0.8683  0.5896
10329TIP3   OH252477   5.022   2.062  14.575  0.0456  0.6994 -0.4703
10329TIP3    H152478   5.105   2.015  14.574 -0.6511 -0.5770 -0.3437
10329TIP3    H252479   4.969   2.017  14.641 -0.2813  2.3502  0.4479
10330TIP3   OH252480   2.730   1.241  16.341 -0.2309 -0.0732  0.2598
10330TIP3    H152481   2.794   1.246  16.411  0.8744  0.2194 -0.7358
10330TIP3    H252482   2.771   1.286  16.267 -2.5436  2.2228  0.2540
10331TIP3   OH252483   5.398   2.934  12.752  0.1482  0.3531 -0.1993
10331TIP3    H152484   5.412   2.852  12.703 -0.4738  0.4256 -0.5239
10331TIP3    H252485   5.467   2.936  12.817 -0.4675 -0.9955  0.5460
10332TIP3   OH252486   2.445   4.893  14.024 -0.6839  0.2579  0.5130
10332TIP3    H152487   2.484   4.900  14.111 -0.4717 -1.2867  0.5804
10332TIP3    H252488   2.459   4.801  13.999  0.3880  0.9589 -1.6956
10333TIP3   OH252489   6.010   1.256  16.529 -0.0763 -0.3447 -0.3518
10333TIP3    H152490   6.032   1.224  16.616 -0.0453 -3.8760 -1.5101
10333TIP3    H252491   5.945   1.325  16.545 -1.1066 -1.7796  2.4316
10334TIP3   OH252492   4.075   6.382  14.691  0.0472  0.5760 -0.3735
10334TIP3    H152493   4.139   6.313  14.708 -3.3949 -2.5476  1.2766
10334TIP3    H252494   4.058   6.377  14.597  1.1997  0.5231 -0.5909
10335TIP3   OH252495   2.420   0.074   3.350  0.0648  0.2008 -1.0202
10335TIP3    H152496   2.403   0.015   3.423 -1.7537  1.5752 -0.2393
10335TIP3    H252497   2.505   0.047   3.316  0.9960 -0.5073  1.6091
10336TIP3   OH252498   5.248   5.251  11.329  0.3851 -0.1764  0.1210
10336TIP3    H152499   5.182   5.291  11.385 -0.4993 -0.0444 -0.9855
10336TIP3    H252500   5.200   5.224  11.250  1.5337 -0.6388 -0.4472
10337TIP3   OH252501   4.841   1.449  15.890  0.2188 -0.5469  0.7646
10337TIP3    H152502   4.821   1.363  15.852  0.2479 -0.2805  0.1282
10337TIP3    H252503   4.880   1.498  15.818  1.5374 -0.4678  1.5108
10338TIP3   OH252504   5.231   2.448   0.823  0.1781 -0.4182  0.2600
10338TIP3    H152505   5.151   2.497   0.805 -0.0383 -0.7870  0.2099
10338TIP3    H252506   5.259   2.480   0.909  1.1250  1.2207 -0.6111
10339TIP3   OH252507   4.620   3.898  11.334  0.0005  0.4046  0.2102
10339TIP3    H152508   4.698   3.862  11.292  0.2376  3.0444 -1.8331
10339TIP3    H252509   4.641   3.899  11.428  1.4453 -1.0933 -0.0617
10340TIP3   OH252510   2.132   6.010  14.529 -0.1182  0.6089  0.0739
10340TIP3    H152511   2.168   5.997  14.441 -0.5716 -1.3192  0.1195
10340TIP3    H252512   2.121   6.105  14.537  1.2088  0.9307 -1.4215
10341TIP3   OH252513   0.313   0.991   3.240  0.1221 -0.2321 -0.2997
10341TIP3    H152514   0.309   1.050   3.165 -2.2372 -0.0955 -0.1538
10341TIP3    H252515   0.259   1.033   3.307 -0.0247 -1.6353  0.5169
10342TIP3   OH252516   4.248   2.243  12.066  0.8306  0.1677 -0.2687
10342TIP3    H152517   4.203   2.284  11.991  0.3732  0.6044  0.2402
10342TIP3    H252518   4.181   2.189  12.108  0.6774  1.0655  0.6769
10343TIP3   OH252519   4.111   6.318   0.890 -0.3783 -0.9391 -0.1481
10343TIP3    H152520   4.037   6.284   0.941 -0.7862  0.2538  0.0823
10343TIP3    H252521   4.073   6.386   0.834  0.4977 -0.5151 -0.2478
10344TIP3   OH252522   0.054   2.173   3.651 -1.0020  0.3230  0.0427
10344TIP3    H152523   0.119   2.231   3.612  0.1098 -0.1691  1.1122
10344TIP3    H252524   0.016   2.127   3.576  0.0222  0.4765 -0.5970
10345TIP3   OH252525   6.759   6.241   3.283  0.1076  0.1209  0.5005
10345TIP3    H152526   6.694   6.293   3.331  0.4540  0.9978  0.0476
10345TIP3    H252527   6.719   6.226   3.198  0.3456  0.3702  0.3409
10346TIP3   OH252528   5.114   1.662  13.831  0.5949 -0.1813 -0.4185
10346TIP3    H152529   5.188   1.722  13.842 -0.1887  0.8663 -0.7043
10346TIP3    H252530   5.051   1.710  13.778 -1.2541 -0.1721  1.6238
10347TIP3   OH252531   5.162   3.116   6.354 -0.4703 -0.6098  0.6423
10347TIP3    H152532   5.192   3.078   6.437 -0.0538  1.7402  1.6354
10347TIP3    H252533   5.076   3.153   6.374 -1.5880 -2.3156 -0.7225
10348TIP3   OH252534   0.950   4.266  14.370 -0.2771 -0.1266  0.1261
10348TIP3    H152535   0.863   4.240  14.401 -2.1348  1.9562 -2.8271
10348TIP3    H252536   0.994   4.184  14.350 -1.2712 -1.2556  2.2458
10349TIP3   OH252537   5.679   4.932   3.164  0.1310 -0.3444 -0.0339
10349TIP3    H152538   5.590   4.895   3.169 -0.1431  0.1233 -1.0423
10349TIP3    H252539   5.665   5.025   3.149  0.7987 -0.1948  0.2622
10350TIP3   OH252540   3.971   4.135  11.691 -0.6268 -0.1942 -0.1245
10350TIP3    H152541   4.021   4.088  11.624  2.7832 -0.9294  2.7015
10350TIP3    H252542   3.960   4.223  11.655  0.2047 -0.7936 -2.0020
10351TIP3   OH252543   6.225   1.119  11.449 -0.2865 -0.2744 -0.3274
10351TIP3    H152544   6.186   1.037  11.480  1.0132 -0.2040  1.7637
10351TIP3    H252545   6.274   1.094  11.370 -0.8137 -1.2778 -0.3574
10352TIP3   OH252546   3.616   2.513   0.743  1.1705 -0.0250  0.2338
10352TIP3    H152547   3.710   2.518   0.762  0.7892  1.1090  1.9874
10352TIP3    H252548   3.574   2.562   0.814 -0.7033  0.2048 -0.9666
10353TIP3   OH252549   1.925   5.399   2.621 -0.4591  0.2600  0.3034
10353TIP3    H152550   1.882   5.347   2.689 -0.2900 -0.3884 -0.0811
10353TIP3    H252551   1.915   5.347   2.541  2.8013 -0.9832  0.5452
10354TIP3   OH252552   4.821   6.542   3.139 -0.2828  0.1361 -0.4051
10354TIP3    H152553   4.731   6.574   3.137  0.8730  4.1064  0.6007
10354TIP3    H252554   4.854   6.557   3.051  0.5383  3.2174  0.2849
10355TIP3   OH252555   3.317   4.156   0.466 -0.2937  0.1786 -0.1020
10355TIP3    H152556   3.227   4.186   0.480 -0.2779 -0.1989  0.8315
10355TIP3    H252557   3.333   4.174   0.373 -1.5400 -0.3246 -0.4395
10356TIP3   OH252558   6.565   0.279  16.988 -0.0109 -0.0163  0.2942
10356TIP3    H152559   6.492   0.328  16.950  1.0364  0.2357 -1.4973
10356TIP3    H252560   6.643   0.319  16.950  0.9980 -1.2862  0.9555
10357TIP3   OH252561   4.073   5.693   6.033  0.6256  0.5088 -0.2401
10357TIP3    H152562   4.103   5.602   6.037  0.0223  0.1100 -2.8671
10357TIP3    H252563   4.151   5.746   6.051  0.6082 -0.4046  3.3306
10358TIP3   OH252564   4.805   5.897  16.508  0.0414  0.1688  0.3472
10358TIP3    H152565   4.883   5.898  16.453 -0.9743  2.0874 -1.1793
10358TIP3    H252566   4.813   5.975  16.562 -0.7557  0.3060  0.2762
10359TIP3   OH252567   3.102   2.299   3.666 -0.4725  0.2224 -0.0784
10359TIP3    H152568   3.083   2.388   3.638  0.7392  0.8765  1.0602
10359TIP3    H252569   3.150   2.261   3.592  0.6088  1.1389  0.1210
10360TIP3   OH252570   4.935   5.807  14.445  0.0573 -0.1077  0.0797
10360TIP3    H152571   4.883   5.882  14.415 -0.5369  0.7354  2.9468
10360TIP3    H252572   4.874   5.733  14.445  0.2023 -0.2485 -1.1565
10361TIP3   OH252573   3.953   1.368  14.114  0.4569 -0.3578  0.1465
10361TIP3    H152574   3.967   1.422  14.037 -1.4028 -0.9655 -0.6774
10361TIP3    H252575   3.920   1.428  14.181 -0.3613 -0.2482 -0.3526
10362TIP3   OH252576   2.189   4.710   3.232  0.2966  0.0171 -0.7213
10362TIP3    H152577   2.212   4.714   3.139 -1.2036  1.4614 -1.0724
10362TIP3    H252578   2.186   4.802   3.260 -1.2657 -0.2820  0.2107
10363TIP3   OH252579   1.825   4.737   6.516  0.4279 -0.1953 -0.1239
10363TIP3    H152580   1.815   4.703   6.427  0.5001 -2.3956  0.6350
10363TIP3    H252581   1.773   4.678   6.570  0.6605  0.8833  1.3488
10364TIP3   OH252582   5.358   2.822   2.670  0.0235 -0.6056 -0.0142
10364TIP3    H152583   5.443   2.864   2.661 -0.3660 -0.2051 -2.4869
10364TIP3    H252584   5.322   2.858   2.751  1.9275 -0.3541  0.7721
10365TIP3   OH252585   3.003   4.514  12.501  0.4484 -0.1628 -0.6795
10365TIP3    H152586   3.049   4.447  12.550  0.6934  0.3754 -0.1737
10365TIP3    H252587   2.975   4.578  12.566 -0.6806 -0.2800 -1.0184
10366TIP3   OH252588   2.379   5.035  15.631 -0.2182 -0.2674 -0.1960
10366TIP3    H152589   2.332   4.957  15.602 -0.7053  0.2166 -0.7495
10366TIP3    H252590   2.471   5.016  15.612 -0.1627 -1.2671  1.0007
10367TIP3   OH252591   0.753   3.304   2.814 -0.0253  0.1578  0.0742
10367TIP3    H152592   0.729   3.286   2.905  1.6047 -3.7656 -0.0505
10367TIP3    H252593   0.846   3.325   2.817  0.3943 -1.3933 -0.6954
10368TIP3   OH252594   0.087   2.788   0.310  0.5047  0.3067 -0.4619
10368TIP3    H152595   0.043   2.871   0.326  0.0896  0.2855 -1.4145
10368TIP3    H252596   0.071   2.736   0.389 -2.2676 -0.1608 -1.2384
10369TIP3   OH252597   0.036   2.154   1.862  0.2414  0.5225  0.6818
10369TIP3    H152598   0.086   2.194   1.790  0.2254  0.4388  0.6239
10369TIP3    H252599  -0.054   2.154   1.830  0.2841  0.1710  0.5620
10370TIP3   OH252600   5.887   1.802   0.647 -0.1741  0.5222  0.3538
10370TIP3    H152601   5.954   1.870   0.640  0.7936 -0.1478  2.3824
10370TIP3    H252602   5.894   1.770   0.737 -1.7169 -1.1317 -0.0518
10371TIP3   OH252603   1.724   5.550  16.491 -0.1814 -0.2259 -0.1551
10371TIP3    H152604   1.713   5.642  16.466 -1.8889  0.0100  1.3074
10371TIP3    H252605   1.749   5.506  16.409  0.0462  1.4244 -1.0075
10372TIP3   OH252606   5.098   3.713   0.163  0.5212  0.2494 -0.0378
10372TIP3    H152607   5.086   3.618   0.163 -0.1477  0.3221  0.4379
10372TIP3    H252608   5.039   3.746   0.095 -1.4138  0.5288  1.6586
10373TIP3   OH252609   0.831   3.783   0.446 -0.0780 -0.0781  0.4709
10373TIP3    H152610   0.891   3.813   0.515 -0.8477 -0.5524  1.3815
10373TIP3    H252611   0.816   3.691   0.467  3.3847 -1.7356 -3.0827
10374TIP3   OH252612   1.722   3.188   5.984  0.9432  0.0635 -0.1150
10374TIP3    H152613   1.768   3.185   6.067  0.6803  0.5540  0.0561
10374TIP3    H252614   1.781   3.234   5.925  0.2905  1.5930  0.3731
10375TIP3   OH252615   2.658   3.259   0.936 -0.2411  0.8560 -0.2787
10375TIP3    H152616   2.593   3.310   0.985  0.2796  0.2219  1.0992
10375TIP3    H252617   2.610   3.182   0.906 -0.2367  0.5847  0.3946
10376TIP3   OH252618   3.977   2.021  17.148  0.2683 -0.3431 -0.3328
10376TIP3    H152619   3.966   1.974  17.231  1.5736  0.6757  0.4539
10376TIP3    H252620   4.034   1.965  17.096 -0.7474 -1.0995 -0.6569
10377TIP3   OH252621   3.840   5.172   4.802 -0.3264  0.3371 -0.0259
10377TIP3    H152622   3.815   5.134   4.886 -1.5153  0.5695 -0.2600
10377TIP3    H252623   3.927   5.208   4.817 -0.8004  0.9908  1.3160
10378TIP3   OH252624   3.496   2.941  12.357  0.4896  0.5845 -0.6823
10378TIP3    H152625   3.453   2.878  12.415  0.2309  1.4313  0.0782
10378TIP3    H252626   3.426   3.000  12.331  0.8896  1.0581 -0.6963
10379TIP3   OH252627   4.399   3.659   0.810 -0.1481 -0.0481  0.9635
10379TIP3    H152628   4.314   3.694   0.835 -0.7076  0.2867 -1.2434
10379TIP3    H252629   4.379   3.585   0.753  1.0244  0.2534  0.1304
10380TIP3   OH252630   3.807   5.840   2.360  0.5723 -0.2826 -0.6175
10380TIP3    H152631   3.873   5.852   2.291  0.2401  0.7624 -0.7762
10380TIP3    H252632   3.732   5.800   2.315  1.9601 -4.0315  0.0600
10381TIP3   OH252633   6.245   5.872   3.467  0.0243  0.4428 -0.0188
10381TIP3    H152634   6.151   5.868   3.479  0.0400  1.6404  0.6367
10381TIP3    H252635   6.280   5.806   3.526 -0.2393  2.2884  2.3165
10382TIP3   OH252636   1.440   0.234  11.900  0.2553  0.4002  0.5744
10382TIP3    H152637   1.451   0.158  11.843  0.3251  0.8655 -0.0380
10382TIP3    H252638   1.472   0.308  11.848 -2.5570  1.3162 -0.0040
10383TIP3   OH252639   3.579   3.168  17.119  0.0904 -0.3209  0.3788
10383TIP3    H152640   3.621   3.219  17.189  0.2757  0.1386 -0.0626
10383TIP3    H252641   3.651   3.142  17.062 -0.2011  0.3939 -0.3309
10384TIP3   OH252642   1.206   2.713  11.115  0.3334 -0.6261  0.0646
10384TIP3    H152643   1.126   2.761  11.139  0.2365 -0.5503 -0.3985
10384TIP3    H252644   1.180   2.621  11.117 -0.3257 -0.5375 -1.9960
10385TIP3   OH252645   2.168   2.115   2.184  0.1273 -0.1441 -1.0652
10385TIP3    H152646   2.165   2.094   2.277  1.2487  0.1795 -0.9398
10385TIP3    H252647   2.076   2.131   2.160  0.0514  2.9589  0.7485
10386TIP3   OH252648   3.441   1.437  16.338  0.2569  0.4556 -0.3927
10386TIP3    H152649   3.441   1.343  16.318 -0.5853  0.2330  0.5567
10386TIP3    H252650   3.527   1.467  16.308  0.3009 -0.4818 -1.2835
10387TIP3   OH252651   2.364   1.261  16.719  0.0206 -0.1087  0.5113
10387TIP3    H152652   2.269   1.264  16.734 -0.0920 -0.3557 -0.1380
10387TIP3    H252653   2.380   1.324  16.648  0.3231 -0.1752  0.5179
10388TIP3   OH252654   3.911   6.803  14.379  0.0660 -0.0075  0.4858
10388TIP3    H152655   3.968   6.879  14.363  0.3455 -0.2656  0.2350
10388TIP3    H252656   3.929   6.778  14.469  0.9419 -0.5634  0.1734
10389TIP3   OH252657   2.009   5.654  16.500 -0.4232 -0.0854 -0.1341
10389TIP3    H152658   1.952   5.673  16.425  2.9116  0.0358 -2.8586
10389TIP3    H252659   2.017   5.559  16.500 -2.0296 -0.2725  1.4891
10390TIP3   OH252660   2.935   6.391  16.581 -0.1544  0.6642 -0.6691
10390TIP3    H152661   2.902   6.449  16.650  1.5647 -3.1397  3.9109
10390TIP3    H252662   2.858   6.343  16.551 -0.4963 -0.9217  2.3398
10391TIP3   OH252663   1.170   3.755  10.871  0.1810  0.0326 -0.6335
10391TIP3    H152664   1.083   3.764  10.832 -0.0160  0.1219 -0.1717
10391TIP3    H252665   1.229   3.788  10.803 -0.1297 -0.1593 -1.0045
10392TIP3   OH252666   2.320   0.717  15.286 -0.4142 -0.3133  0.7110
10392TIP3    H152667   2.329   0.728  15.380 -0.9673 -0.6320  0.8078
10392TIP3    H252668   2.310   0.805  15.251  0.1988 -0.1627  0.8995
10393TIP3   OH252669   3.952   2.031   0.501  0.1179  0.1467 -0.5704
10393TIP3    H152670   3.859   2.009   0.487  0.5503 -0.5855 -2.8499
10393TIP3    H252671   3.976   2.083   0.424  1.8317 -0.5143 -0.5249
10394TIP3   OH252672   6.426   6.783   6.380 -0.8468 -0.0342  0.1313
10394TIP3    H152673   6.368   6.773   6.304 -1.1505 -0.9981  0.4760
10394TIP3    H252674   6.409   6.705   6.434 -0.7813  0.7279  1.2882
10395TIP3   OH252675   5.106   2.290  13.611 -0.5427 -0.6081  0.2008
10395TIP3    H152676   5.014   2.311  13.598 -0.0989  2.8839  1.5089
10395TIP3    H252677   5.124   2.318  13.701  2.0603 -0.0057 -0.4355
10396TIP3   OH252678   5.749   5.143  15.363 -0.1716 -0.2294 -0.2297
10396TIP3    H152679   5.684   5.074  15.352 -1.8967  1.5543 -2.0685
10396TIP3    H252680   5.797   5.145  15.281 -2.1677  2.5838 -1.4939
10397TIP3   OH252681   6.671   3.750  13.740  0.8328 -0.1411 -0.0913
10397TIP3    H152682   6.636   3.661  13.735  1.7863 -0.7817  2.4761
10397TIP3    H252683   6.743   3.752  13.677  1.6059 -1.6548  0.6911
10398TIP3   OH252684   0.882   2.403   0.873 -0.2340 -0.0599  0.3188
10398TIP3    H152685   0.895   2.318   0.831  1.1009 -0.2277  0.9985
10398TIP3    H252686   0.931   2.397   0.955 -1.4860  0.8009  1.1606
10399TIP3   OH252687   5.341   4.566   0.462 -0.0198 -0.6547 -0.3219
10399TIP3    H152688   5.321   4.572   0.369 -0.8873 -0.4302 -0.1366
10399TIP3    H252689   5.415   4.626   0.475 -1.3524  1.1126 -0.4837
10400TIP3   OH252690   5.664   5.777   4.792  0.2005  0.3409  0.1109
10400TIP3    H152691   5.753   5.809   4.801  0.2923  0.0410  0.2677
10400TIP3    H252692   5.609   5.849   4.824  0.2571  1.4606 -2.0559
10401TIP3   OH252693   6.510   4.316  13.519  0.0548  0.1955 -0.4091
10401TIP3    H152694   6.560   4.356  13.591 -0.9657 -1.6920  1.4873
10401TIP3    H252695   6.577   4.287  13.457  1.0835  0.6609  0.4509
10402TIP3   OH252696   4.167   0.442   0.180  0.1285  0.7359 -0.0060
10402TIP3    H152697   4.144   0.528   0.214 -0.3895  0.6773 -0.2068
10402TIP3    H252698   4.260   0.432   0.202 -0.1251  0.8154  1.1540
10403TIP3   OH252699   3.161   1.161  14.172 -0.0597 -0.0357 -0.0170
10403TIP3    H152700   3.087   1.211  14.204  0.3306 -0.1914  1.2042
10403TIP3    H252701   3.140   1.070  14.193  0.2154 -0.1395 -0.1776
10404TIP3   OH252702   4.146   4.851   2.836 -0.1081 -0.4968  0.3137
10404TIP3    H152703   4.169   4.933   2.880 -0.9047 -1.6705  3.1378
10404TIP3    H252704   4.222   4.831   2.781  0.4605  1.6649  0.2160
10405TIP3   OH252705   0.443   0.556  11.311  0.1417  0.3210 -0.6222
10405TIP3    H152706   0.403   0.556  11.224 -1.4515 -0.2210  0.0752
10405TIP3    H252707   0.465   0.648  11.327  1.0661  0.3479 -1.8237
10406TIP3   OH252708   5.775   4.122   3.932 -0.3046  0.1514 -0.1342
10406TIP3    H152709   5.831   4.066   3.986  1.9058 -0.0666 -2.4879
10406TIP3    H252710   5.695   4.131   3.983  1.9344  0.8046  3.6567
10407TIP3   OH252711   0.924   1.723  14.985 -0.3925 -0.1931 -0.6930
10407TIP3    H152712   0.841   1.751  14.946  0.0358 -0.1810 -1.6288
10407TIP3    H252713   0.917   1.748  15.077 -1.7932 -1.0392 -0.5474
10408TIP3   OH252714   1.896   5.303   6.435 -0.2608 -0.3207 -0.2046
10408TIP3    H152715   1.881   5.221   6.481  0.9647  0.0457  0.9359
10408TIP3    H252716   1.983   5.294   6.396  1.3029  1.4605  2.5165
10409TIP3   OH252717   5.905   1.909  14.593  0.3150 -0.1332 -0.3712
10409TIP3    H152718   5.812   1.896  14.609  0.0054  0.0328 -1.9351
10409TIP3    H252719   5.919   2.003  14.608  0.2821 -0.1967  0.0705
10410TIP3   OH252720   6.594   5.770  12.534  0.5264 -0.3623 -0.1840
10410TIP3    H152721   6.531   5.707  12.570  1.4421 -1.4283 -0.3806
10410TIP3    H252722   6.629   5.815  12.611  0.0723 -0.2923 -0.0163
10411TIP3   OH252723   1.272   3.357   0.885 -0.1017  0.5288  0.3354
10411TIP3    H152724   1.350   3.302   0.883  1.4632  2.6242 -0.2038
10411TIP3    H252725   1.200   3.299   0.862  1.5704 -1.0672 -1.1156
10412TIP3   OH252726   1.033   3.656  12.381  0.3531 -0.2953  0.3925
10412TIP3    H152727   0.946   3.690  12.363  0.8033  0.7010  0.0316
10412TIP3    H252728   1.027   3.620  12.470  0.3069  2.3629  1.5388
10413TIP3   OH252729   5.375   6.572  15.675 -0.6866 -0.4754  0.0310
10413TIP3    H152730   5.383   6.642  15.610  3.2974 -1.5988 -0.9860
10413TIP3    H252731   5.408   6.611  15.756 -0.1146 -0.6591 -0.1073
10414TIP3   OH252732   5.560   6.361  16.551  0.0473  0.3678  0.0446
10414TIP3    H152733   5.650   6.390  16.564  0.2960 -0.5142  0.3129
10414TIP3    H252734   5.534   6.402  16.468  0.8534  0.2377 -0.2800
10415TIP3   OH252735   2.910   0.426   2.251 -0.5379  0.4556  0.0412
10415TIP3    H152736   2.851   0.496   2.222 -0.0441  1.1533  0.6555
10415TIP3    H252737   2.883   0.349   2.201 -0.8356  1.1837 -0.9449
10416TIP3   OH252738   6.483   1.597   5.594 -0.3342 -0.1004 -0.5411
10416TIP3    H152739   6.511   1.646   5.671  1.9140  0.4903 -1.6660
10416TIP3    H252740   6.454   1.664   5.531 -2.4430 -0.5889 -0.1837
10417TIP3   OH252741   5.965   2.378   2.398  0.4918  0.3930  0.5080
10417TIP3    H152742   5.869   2.372   2.401  0.5074  0.1201  0.5046
10417TIP3    H252743   5.987   2.353   2.308  0.5460  0.7912  0.4064
10418TIP3   OH252744   4.663   4.420  15.534  0.4250  0.3727 -0.0773
10418TIP3    H152745   4.709   4.416  15.450  1.4265 -1.0871  0.4987
10418TIP3    H252746   4.576   4.386  15.515 -0.3965  2.8141 -1.1059
10419TIP3   OH252747   4.029   1.264  14.966 -0.1539  0.9151  0.2232
10419TIP3    H152748   4.013   1.335  14.904 -1.7048 -0.4005 -0.9537
10419TIP3    H252749   4.109   1.221  14.934 -1.3941 -0.2786 -1.4584
10420TIP3   OH252750   5.549   3.596   3.044 -0.3577  0.7871 -0.1295
10420TIP3    H152751   5.536   3.511   3.002 -0.2239 -0.8259  2.8202
10420TIP3    H252752   5.470   3.645   3.024 -0.8437 -0.3475 -1.1544
10421TIP3   OH252753   4.909   0.231   6.308 -0.1354  0.4533 -0.3437
10421TIP3    H152754   4.948   0.199   6.226  0.0366 -0.2960  0.0250
10421TIP3    H252755   4.936   0.168   6.374  1.0786  1.8976  0.6155
10422TIP3   OH252756   3.667   1.571   1.537  0.3495 -0.0334  0.1943
10422TIP3    H152757   3.750   1.534   1.506 -0.4947 -2.3652  0.4904
10422TIP3    H252758   3.679   1.583   1.631  1.2064  2.2669 -0.1329
10423TIP3   OH252759   5.991   1.918   3.913  0.1637 -0.3260 -0.1739
10423TIP3    H152760   6.086   1.922   3.927  0.2700 -0.6386 -0.7436
10423TIP3    H252761   5.970   2.000   3.869  0.4645 -0.9715 -1.5902
10424TIP3   OH252762   0.306   2.143  12.930  0.0674 -0.1560  1.0378
10424TIP3    H152763   0.358   2.080  12.979 -0.1834  0.0718  1.6094
10424TIP3    H252764   0.221   2.144  12.975  0.7145  2.1359  2.4202
10425TIP3   OH252765   3.764   5.049   1.578  0.7277 -0.0631 -0.8456
10425TIP3    H152766   3.801   4.981   1.522 -0.3988  0.1225 -1.8626
10425TIP3    H252767   3.739   5.003   1.658  0.7257 -0.6950 -1.2029
10426TIP3   OH252768   0.386   1.996  17.191  0.9209  0.8752  0.2212
10426TIP3    H152769   0.385   2.085  17.227 -0.6671  0.6144  0.8991
10426TIP3    H252770   0.311   1.994  17.131  1.0675  0.0460  0.0555
10427TIP3   OH252771   6.662   1.503   2.261 -0.4481  0.0352  0.3084
10427TIP3    H152772   6.634   1.547   2.180 -0.2172 -1.8958 -0.8795
10427TIP3    H252773   6.580   1.489   2.310 -0.9409 -1.0159 -0.7738
10428TIP3   OH252774   1.655   0.424  17.136 -0.2570 -0.7302  0.2784
10428TIP3    H152775   1.628   0.365  17.206 -0.3592  0.0700  0.9268
10428TIP3    H252776   1.741   0.456  17.163 -0.8719  0.6179  0.7289
10429TIP3   OH252777   5.074   1.800   1.444 -0.7554  0.4714  0.5173
10429TIP3    H152778   5.025   1.857   1.385 -0.8764  0.2912  0.4389
10429TIP3    H252779   5.031   1.714   1.434  0.0893  0.1119 -0.1677
10430TIP3   OH252780   0.920   1.416  13.388  0.9912  0.1948  0.0389
10430TIP3    H152781   0.935   1.456  13.302 -0.1066 -0.8684 -0.6796
10430TIP3    H252782   0.866   1.339  13.369  1.7577 -0.7600  1.5433
10431TIP3   OH252783   2.822   6.797  14.883  0.2163 -0.4308 -0.0840
10431TIP3    H152784   2.781   6.761  14.962 -0.3614 -1.1670 -0.7068
10431TIP3    H252785   2.804   6.733  14.815 -0.1947  0.6928 -1.0642
10432TIP3   OH252786   2.264   2.201   4.637  0.4258 -0.3908  0.1048
10432TIP3    H152787   2.312   2.118   4.631 -1.5885 -1.6582  0.6096
10432TIP3    H252788   2.206   2.200   4.562  1.4001  1.3115 -0.7195
10433TIP3   OH252789   4.154   1.524   4.754 -0.0006 -0.4562 -0.0010
10433TIP3    H152790   4.138   1.523   4.848 -0.1813  0.3159 -0.0120
10433TIP3    H252791   4.067   1.516   4.715 -0.4142  2.7529 -0.0637
10434TIP3   OH252792   5.359   6.505   2.882  0.3640 -0.1759  0.4463
10434TIP3    H152793   5.305   6.505   2.803  0.8627 -0.3965  0.0996
10434TIP3    H252794   5.313   6.448   2.944 -0.2008  0.2689  0.4364
10435TIP3   OH252795   6.350   2.384  12.066  0.1431  0.5029 -0.2966
10435TIP3    H152796   6.329   2.437  12.143 -2.2816  0.0107 -0.5175
10435TIP3    H252797   6.292   2.308  12.073 -0.4934  0.6478 -2.8033
10436TIP3   OH252798   2.436   2.180  13.148  0.9169  0.0476 -0.4987
10436TIP3    H152799   2.379   2.117  13.193  0.5086  0.5595 -0.2800
10436TIP3    H252800   2.524   2.160  13.179  0.8668 -0.7588 -0.8418
10437TIP3   OH252801   0.656   4.082  14.175  0.1625 -0.0005  0.1225
10437TIP3    H152802   0.617   4.168  14.189  2.4473  0.8955  1.5869
10437TIP3    H252803   0.602   4.021  14.225 -0.5158  0.8361  0.4157
10438TIP3   OH252804   3.841   0.912   6.462 -0.1947 -0.4450 -0.4697
10438TIP3    H152805   3.791   0.964   6.399 -0.0516 -1.9482 -1.8784
10438TIP3    H252806   3.933   0.926   6.438 -0.0818 -0.2090  0.0807
10439TIP3   OH252807   4.954   0.504   1.372  0.0176 -0.0002  0.1295
10439TIP3    H152808   5.009   0.469   1.303 -2.5954  0.4282 -2.3804
10439TIP3    H252809   4.911   0.428   1.410 -1.1129 -0.0423 -1.1607
10440TIP3   OH252810   6.088   1.364  11.293 -0.3728 -0.3348 -0.3932
10440TIP3    H152811   6.154   1.305  11.329  0.2192 -0.1457 -1.1581
10440TIP3    H252812   6.082   1.340  11.201 -2.5166 -1.4330 -0.0485
10441TIP3   OH252813   0.658   5.671  14.311 -0.5123  0.4992  0.2397
10441TIP3    H152814   0.680   5.600  14.251 -0.8887  0.1058  0.5594
10441TIP3    H252815   0.705   5.651  14.391  0.0035  1.0340  0.0795
10442TIP3   OH252816   3.179   5.134   3.182  0.5230 -0.2072 -0.2340
10442TIP3    H152817   3.165   5.041   3.204 -1.2151  0.3353  1.2444
10442TIP3    H252818   3.273   5.141   3.167  0.5807 -2.3800 -1.3107
10443TIP3   OH252819   2.277   3.532  11.988  0.5718 -0.4231 -0.1376
10443TIP3    H152820   2.257   3.523  12.081 -0.2072 -0.7223 -0.3244
10443TIP3    H252821   2.310   3.447  11.961  0.9727 -0.2824 -0.0983
10444TIP3   OH252822   1.633   5.664   0.347  0.1444  0.1042  0.2077
10444TIP3    H152823   1.728   5.669   0.339  0.2129 -0.7599  0.4636
10444TIP3    H252824   1.601   5.716   0.273  0.8029  2.1034  1.2600
10445TIP3   OH252825   3.219   1.803  11.337 -0.3711 -0.3554  0.1012
10445TIP3    H152826   3.264   1.881  11.302 -0.1881 -0.4196  0.1958
10445TIP3    H252827   3.287   1.737  11.345 -0.6085 -0.6692 -0.3993
10446TIP3   OH252828   5.511   0.444  16.877 -0.4906  0.6709  0.3071
10446TIP3    H152829   5.548   0.372  16.825  1.6332  1.4859  0.5670
10446TIP3    H252830   5.417   0.427  16.878 -0.0662 -2.2343  0.5805
10447TIP3   OH252831   0.713   3.063   1.714  0.1295  0.4233 -0.6015
10447TIP3    H152832   0.669   3.028   1.791  2.6404  0.0095  0.7628
10447TIP3    H252833   0.781   3.120   1.749  2.4163 -1.0428 -2.3470
10448TIP3   OH252834   5.531   3.554  16.714 -0.2653  0.2775 -0.7228
10448TIP3    H152835   5.533   3.586  16.624  2.1210 -1.8776 -1.5457
10448TIP3    H252836   5.528   3.459  16.705  0.0155  0.0176  1.4830
10449TIP3   OH252837   3.953   6.036  11.531 -0.7337 -0.8726  0.6987
10449TIP3    H152838   3.899   6.091  11.474 -0.5397  0.8547  2.1131
10449TIP3    H252839   3.910   6.040  11.616 -0.0873 -2.0353  1.0995
10450TIP3   OH252840   3.906   6.808  15.263  0.4508  0.1158 -0.6269
10450TIP3    H152841   3.838   6.875  15.261  0.0716 -0.2376 -2.8350
10450TIP3    H252842   3.877   6.746  15.329 -1.2757  0.0858 -1.3692
10451TIP3   OH252843   2.993   6.756  12.290  0.0429 -0.4925 -0.0595
10451TIP3    H152844   2.988   6.844  12.253  0.8585 -0.6494 -0.5510
10451TIP3    H252845   2.910   6.746  12.338 -0.3123  0.3152 -0.4863
10452TIP3   OH252846   1.381   1.904   3.761  0.1789 -0.6294  0.3642
10452TIP3    H152847   1.335   1.917   3.844 -0.1355  2.0581 -0.1210
10452TIP3    H252848   1.322   1.939   3.695  1.5149 -0.2108 -0.6651
10453TIP3   OH252849   3.474   2.749  17.124 -0.4458 -0.6462 -0.4138
10453TIP3    H152850   3.523   2.697  17.187  0.5342 -0.7724 -1.2535
10453TIP3    H252851   3.414   2.801  17.177  1.2525  0.2138  0.7404
10454TIP3   OH252852   0.860   4.963  15.526 -0.3596  0.3201  0.4613
10454TIP3    H152853   0.952   4.950  15.548 -0.5870 -2.5180  0.0820
10454TIP3    H252854   0.832   5.035  15.583  2.0913  1.3984  0.4326
10455TIP3   OH252855   3.200   5.522   5.251  0.9359 -0.1060 -0.2960
10455TIP3    H152856   3.293   5.518   5.271  0.3392 -2.3603  2.7742
10455TIP3    H252857   3.177   5.433   5.223 -0.7442 -0.4788  1.9748
10456TIP3   OH252858   3.134   0.651   1.772  0.0627  0.1438  0.0872
10456TIP3    H152859   3.077   0.701   1.715 -0.1741 -2.5126 -2.2166
10456TIP3    H252860   3.184   0.594   1.713  0.5479 -2.0655  2.4307
10457TIP3   OH252861   0.222   4.273  12.950  0.3261  0.4115  0.0531
10457TIP3    H152862   0.254   4.355  12.987 -0.3307 -0.2435  2.2735
10457TIP3    H252863   0.295   4.212  12.962  0.3722  0.3657 -0.4495
10458TIP3   OH252864   2.163   1.500  11.653  0.1304 -0.1716 -0.1850
10458TIP3    H152865   2.141   1.422  11.602  0.6169  0.3249 -1.1819
10458TIP3    H252866   2.255   1.486  11.679  0.6051  0.5780 -1.3759
10459TIP3   OH252867   3.738   5.621  11.028  0.0851  0.2883 -0.4215
10459TIP3    H152868   3.778   5.576  11.103  0.8730 -0.6583 -1.3711
10459TIP3    H252869   3.644   5.621  11.047  0.3294  0.6621  0.8689
10460TIP3   OH252870   1.519   2.888  14.754  0.0735  0.1773  0.0021
10460TIP3    H152871   1.457   2.878  14.682 -1.5093 -1.5221  1.5082
10460TIP3    H252872   1.500   2.975  14.790 -2.1614 -0.6681  1.0169
10461TIP3   OH252873   1.309   4.557  13.192  0.2042  0.3032  0.2106
10461TIP3    H152874   1.252   4.595  13.125  0.8852  0.6476 -0.1819
10461TIP3    H252875   1.249   4.516  13.254 -0.4775  0.8142 -0.1017
10462TIP3   OH252876   3.051   1.589  15.266 -0.2027  0.2930 -0.0457
10462TIP3    H152877   3.128   1.622  15.313  0.4811 -0.8973 -0.2661
10462TIP3    H252878   3.085   1.515  15.216 -1.1537  0.7995 -1.4982
10463TIP3   OH252879   6.625   2.420  16.387  0.3400  0.0347 -0.2232
10463TIP3    H152880   6.708   2.443  16.346  0.4600 -0.3702 -0.2171
10463TIP3    H252881   6.627   2.324  16.394  0.8978  0.1512  1.9383
10464TIP3   OH252882   5.101   3.199   0.843  0.3800 -0.1790 -0.4807
10464TIP3    H152883   5.153   3.192   0.763  2.5087  4.0124  0.2736
10464TIP3    H252884   5.143   3.138   0.904  2.2571  0.5805 -0.9550
10465TIP3   OH252885   0.043   4.389   5.783 -0.0517 -0.2327 -0.6164
10465TIP3    H152886   0.040   4.299   5.752  1.0194  0.3490 -2.5919
10465TIP3    H252887  -0.039   4.428   5.750 -1.2728 -0.8219  1.5640
10466TIP3   OH252888   1.603   2.174   2.961  0.0396 -0.3042  0.0214
10466TIP3    H152889   1.665   2.189   3.033 -1.7894  1.5613  1.3482
10466TIP3    H252890   1.654   2.192   2.882  1.7622 -1.0572  0.8939
10467TIP3   OH252891   4.555   3.436   5.735 -0.1427  0.3501  0.1842
10467TIP3    H152892   4.625   3.469   5.679  0.4815 -0.8868  0.1840
10467TIP3    H252893   4.590   3.442   5.824 -0.9648  1.9097  0.4242
10468TIP3   OH252894   0.569   2.643   2.920 -0.0427 -0.2686 -0.3737
10468TIP3    H152895   0.664   2.650   2.917 -0.1121  0.3388 -1.4036
10468TIP3    H252896   0.537   2.707   2.856 -1.2429  1.8711  2.1383
10469TIP3   OH252897   4.994   3.082  12.141  0.1337  0.3975  0.2966
10469TIP3    H152898   5.073   3.136  12.136  0.2885  0.0547 -1.3575
10469TIP3    H252899   4.997   3.027  12.063  0.2695 -2.4256  2.1225
10470TIP3   OH252900   5.626   5.743   1.492 -0.2799  0.2018 -1.0478
10470TIP3    H152901   5.598   5.681   1.559 -0.3889 -0.0073 -1.2859
10470TIP3    H252902   5.608   5.698   1.409 -1.4006  0.9767 -1.2577
10471TIP3   OH252903   1.948   0.804   0.738  0.8990 -0.1215 -0.1084
10471TIP3    H152904   1.870   0.750   0.721  1.4031 -0.8425 -0.2016
10471TIP3    H252905   2.008   0.744   0.783  1.1995  0.5734  0.4229
10472TIP3   OH252906   0.152   2.576  13.664 -0.4703 -0.2938  0.2379
10472TIP3    H152907   0.153   2.562  13.569  0.4134  5.1742 -0.9450
10472TIP3    H252908   0.061   2.598  13.684 -0.8400 -2.2729  0.9780
10473TIP3   OH252909   0.862   2.759   1.047  0.5640 -0.0768  0.6753
10473TIP3    H152910   0.794   2.725   1.105  0.9924 -0.0423  1.2061
10473TIP3    H252911   0.894   2.837   1.091 -1.6131  2.1310 -1.3458
10474TIP3   OH252912   0.939   2.177   6.080 -0.1682 -0.1621  0.1774
10474TIP3    H152913   0.864   2.234   6.095 -0.5997 -0.7378  0.2284
10474TIP3    H252914   1.012   2.222   6.123 -0.3367  0.7265 -0.4291
10475TIP3   OH252915   5.769   6.475  16.091  0.1936 -0.1364  0.0966
10475TIP3    H152916   5.847   6.424  16.070  0.4866  0.1438  0.4926
10475TIP3    H252917   5.784   6.507  16.180 -0.5684 -0.4402  0.3440
10476TIP3   OH252918   1.694   5.202   4.567 -0.3499 -0.0319  0.3278
10476TIP3    H152919   1.703   5.268   4.636  0.6760  0.6053 -0.3868
10476TIP3    H252920   1.695   5.252   4.486 -4.2268 -0.4732 -0.1773
10477TIP3   OH252921   1.226   5.876   3.494 -0.4400  0.7619  0.2394
10477TIP3    H152922   1.246   5.848   3.405 -0.6664  1.9050 -0.1801
10477TIP3    H252923   1.306   5.859   3.543 -0.2964  0.1798 -0.1852
10478TIP3   OH252924   3.155   2.990   4.141  0.1537  0.0998  0.1317
10478TIP3    H152925   3.163   2.901   4.176  0.3278 -0.3717 -1.0789
10478TIP3    H252926   3.237   3.033   4.166 -0.5066  0.4073  1.9689
10479TIP3   OH252927   3.661   5.753  11.426  0.4496  0.0458 -0.1627
10479TIP3    H152928   3.589   5.724  11.370  0.1354  1.2533 -0.4152
10479TIP3    H252929   3.629   5.835  11.465  1.9668  1.0216 -0.8645
10480TIP3   OH252930   6.537   3.480   6.622  0.3903 -0.4507 -0.4540
10480TIP3    H152931   6.542   3.547   6.691  1.2812 -0.8599 -0.1166
10480TIP3    H252932   6.555   3.398   6.667  1.7387 -0.6408 -1.3080
10481TIP3   OH252933   5.183   3.217   3.579 -0.3920  0.1041 -0.3994
10481TIP3    H152934   5.177   3.249   3.489 -1.1705 -0.6416 -0.6255
10481TIP3    H252935   5.186   3.296   3.633 -2.7069  0.6176 -0.9212
10482TIP3   OH252936   0.348   5.780   4.127  0.0990 -0.3119  0.4141
10482TIP3    H152937   0.441   5.762   4.130 -0.1087 -1.7691 -0.7774
10482TIP3    H252938   0.319   5.744   4.044 -1.2955  1.3519  0.1109
10483TIP3   OH252939   5.584   4.259   4.793 -0.2477 -0.3845  0.7997
10483TIP3    H152940   5.522   4.326   4.821 -0.3882 -0.7914  1.5007
10483TIP3    H252941   5.621   4.225   4.875 -0.1947 -1.1745  0.4583
10484TIP3   OH252942   3.336   6.608   1.579 -0.1819 -0.5739  0.4181
10484TIP3    H152943   3.327   6.700   1.555  0.0060 -0.9336 -1.1668
10484TIP3    H252944   3.250   6.570   1.562  0.1156 -0.9582 -0.2646
10485TIP3   OH252945   6.722   4.020   1.852 -0.2127 -0.2896 -0.2147
10485TIP3    H152946   6.633   4.017   1.816 -0.3200 -0.3809  0.0604
10485TIP3    H252947   6.725   4.100   1.904 -0.4631 -0.8168  0.6310
10486TIP3   OH252948   6.627   1.666   2.003 -0.1289  0.2517  0.0230
10486TIP3    H152949   6.677   1.738   1.964 -3.2383  2.1777 -0.7046
10486TIP3    H252950   6.621   1.600   1.934 -0.3106  0.8943 -0.5855
10487TIP3   OH252951   1.719   0.705  13.291 -0.2387  0.4915 -0.1125
10487TIP3    H152952   1.803   0.746  13.311  0.9637 -1.9621  0.3503
10487TIP3    H252953   1.738   0.650  13.214 -1.3652 -0.2627  0.1235
10488TIP3   OH252954   5.052   1.479   3.630  0.5206 -0.5958 -0.1098
10488TIP3    H152955   5.033   1.441   3.544  0.1387 -0.3361 -0.1433
10488TIP3    H252956   4.967   1.480   3.675  0.4862  0.4064 -0.1837
10489TIP3   OH252957   0.662   3.962   3.522 -0.1936 -0.6266 -0.3690
10489TIP3    H152958   0.625   4.031   3.467  0.0989 -1.8524 -2.1905
10489TIP3    H252959   0.741   3.934   3.476  0.3438 -1.3888  0.9453
10490TIP3   OH252960   4.275   5.503   0.719  0.8078  0.0465  0.4101
10490TIP3    H152961   4.330   5.425   0.732 -1.2236 -1.5999 -0.2893
10490TIP3    H252962   4.251   5.530   0.807  1.6236 -0.0086  0.6652
10491TIP3   OH252963   0.112   5.754  13.778  0.2254  0.0708  0.4947
10491TIP3    H152964   0.088   5.680  13.834  1.0257 -0.4522  0.1772
10491TIP3    H252965   0.166   5.810  13.833  1.2987 -0.6134  0.1973
10492TIP3   OH252966   2.888   3.938   3.233 -0.3409 -0.0388 -0.0312
10492TIP3    H152967   2.858   4.030   3.230 -0.6683 -0.1411  0.0327
10492TIP3    H252968   2.966   3.937   3.179 -1.0016  0.0404 -1.0187
10493TIP3   OH252969   2.278   1.002  12.871 -0.8363 -0.0394  0.1221
10493TIP3    H152970   2.335   0.966  12.803 -1.8457 -2.0708  0.2770
10493TIP3    H252971   2.216   1.057  12.824 -0.6572 -0.2919 -0.4220
10494TIP3   OH252972   1.906   1.735   0.869 -0.3908  0.0433  0.2635
10494TIP3    H152973   1.909   1.770   0.958 -0.6285 -0.0526  0.3111
10494TIP3    H252974   1.895   1.812   0.813 -3.2716 -0.0735  0.5187
10495TIP3   OH252975   5.443   0.861   2.332 -0.3953 -0.0379  0.0212
10495TIP3    H152976   5.378   0.811   2.381  0.2360  1.6107  2.7699
10495TIP3    H252977   5.415   0.953   2.341  0.7769  0.4866 -1.2126
10496TIP3   OH252978   1.722   3.910   2.051 -0.0378  0.1678 -0.0020
10496TIP3    H152979   1.760   3.892   2.137  1.1962  2.4484  0.0215
10496TIP3    H252980   1.742   4.002   2.036 -0.2515 -0.1680 -2.7337
10497TIP3   OH252981   1.597   3.430   1.023  0.6112  0.7358 -0.1598
10497TIP3    H152982   1.619   3.523   1.013 -0.5221  1.0085 -0.2734
10497TIP3    H252983   1.588   3.399   0.933 -0.9996  1.0310 -0.1233
10498TIP3   OH252984   3.961   1.616  12.173  0.1285 -0.0442 -0.1618
10498TIP3    H152985   3.944   1.529  12.137  0.6070 -0.5133  0.7185
10498TIP3    H252986   3.912   1.676  12.116 -2.7714 -1.1350  1.0245
10499TIP3   OH252987   6.199   1.456   0.264 -0.0526  0.0263 -0.2013
10499TIP3    H152988   6.271   1.518   0.277  0.7505 -0.8022 -0.5410
10499TIP3    H252989   6.148   1.494   0.193  0.6197  0.1547 -0.6306
10500TIP3   OH252990   0.126   2.684  12.692  0.3440  0.4605 -0.4657
10500TIP3    H152991   0.200   2.632  12.724  2.0040  1.2856 -2.7146
10500TIP3    H252992   0.160   2.773  12.687 -1.0065  0.9641 -1.0416
10501TIP3   OH252993   4.316   3.307   3.750 -0.4060 -0.0656  0.3874
10501TIP3    H152994   4.284   3.397   3.757 -0.4331 -0.0182 -0.3411
10501TIP3    H252995   4.294   3.280   3.662  0.4360 -0.4697  0.2880
10502TIP3   OH252996   5.169   1.490   1.298 -0.3744 -0.3697 -0.4848
10502TIP3    H152997   5.155   1.429   1.371  1.3302 -1.1446 -0.7608
10502TIP3    H252998   5.084   1.533   1.286 -0.8534 -0.6538  1.5583
10503TIP3   OH252999   5.449   1.890   1.464  0.4939 -0.9719  0.1100
10503TIP3    H153000   5.358   1.863   1.472 -1.0021  3.2622 -0.0637
10503TIP3    H253001   5.474   1.865   1.375 -1.4254  0.0322 -0.7686
10504TIP3   OH253002   2.988   4.997   2.790  0.3370 -0.1754 -0.3899
10504TIP3    H153003   2.914   4.943   2.816  0.4995 -0.3692 -0.3303
10504TIP3    H253004   2.978   5.078   2.840 -0.7921  0.5039 -1.6558
10505TIP3   OH253005   2.347   0.318   6.217  0.4056 -0.4292  0.2633
10505TIP3    H153006   2.440   0.337   6.205  0.3803  0.4137  1.2391
10505TIP3    H253007   2.328   0.345   6.307 -1.0080  0.3820 -0.2439
10506TIP3   OH253008   5.657   2.019   1.620 -0.1238  0.0076 -0.6592
10506TIP3    H153009   5.630   1.951   1.558 -0.6712 -0.2465 -0.1520
10506TIP3    H253010   5.598   2.092   1.602  0.6136  0.4440 -1.3596
10507TIP3   OH253011   5.357   1.635   0.750  0.0130  0.2860  0.2675
10507TIP3    H153012   5.284   1.693   0.727  0.4064  1.3344  1.4892
10507TIP3    H253013   5.432   1.672   0.703  0.1403  0.4395  0.5798
10508TIP3   OH253014   2.550   1.186  12.674  0.3859 -0.0420  0.2728
10508TIP3    H153015   2.482   1.233  12.721 -0.7963  0.9399 -2.2444
10508TIP3    H253016   2.621   1.249  12.665  0.1858  0.1225 -0.1578
10509TIP3   OH253017   6.509   0.654   1.247 -0.1443 -0.1038  0.3651
10509TIP3    H153018   6.563   0.703   1.310  1.2041 -1.5959  0.4287
10509TIP3    H253019   6.425   0.642   1.292  0.6126 -0.6803  1.6927
10510TIP3   OH253020   3.583   4.225   1.734 -0.6293 -0.3093  0.2133
10510TIP3    H153021   3.619   4.219   1.646  2.1062 -0.4986  1.2454
10510TIP3    H253022   3.502   4.275   1.724  0.9621  2.0618 -2.0634
10511TIP3   OH253023   2.075   2.284  16.006  0.5388 -0.0546  0.2325
10511TIP3    H153024   2.058   2.367  15.962  0.2708 -0.3321 -0.2001
10511TIP3    H253025   1.997   2.231  15.989  0.7665 -0.4447  0.3803
10512TIP3   OH253026   1.274   4.721  12.387 -0.7674  0.0198 -0.1180
10512TIP3    H153027   1.215   4.797  12.379 -2.4369 -1.2852 -0.8211
10512TIP3    H253028   1.310   4.727  12.475 -0.7301  1.7056 -0.2146
10513TIP3   OH253029   2.972   1.529  13.538  0.1076  0.0965 -0.6554
10513TIP3    H153030   2.943   1.586  13.467  0.3464 -0.6569 -1.3637
10513TIP3    H253031   2.919   1.451  13.530 -0.5899  0.4131  0.6477
10514TIP3   OH253032   4.494   1.572  11.828  0.2964 -0.6709 -0.2299
10514TIP3    H153033   4.543   1.655  11.827 -0.9084  0.0714 -0.7455
10514TIP3    H253034   4.531   1.523  11.901  0.6398  0.5816  0.4736
10515TIP3   OH253035   2.066   3.779   2.881 -0.4433 -0.4429  0.0469
10515TIP3    H153036   2.092   3.695   2.843 -0.0087 -0.2299 -0.1192
10515TIP3    H253037   2.143   3.809   2.929 -1.3769 -1.3449  2.2455
10516TIP3   OH253038   0.901   0.089   3.967 -0.2952 -0.2670 -0.0071
10516TIP3    H153039   0.978   0.062   4.016  0.0398  2.7772  1.3702
10516TIP3    H253040   0.928   0.086   3.876  1.1951  0.0097  0.4016
10517TIP3   OH253041   0.042   3.262  12.833 -0.1092  0.0275 -0.1114
10517TIP3    H153042   0.114   3.285  12.893 -0.5078  0.3213  0.2579
10517TIP3    H253043  -0.030   3.236  12.890 -0.1610 -0.7041 -0.4902
10518TIP3   OH253044   4.250   1.228   1.323 -0.0535 -0.0790  0.0175
10518TIP3    H153045   4.263   1.306   1.377  4.3317 -0.8295  0.4391
10518TIP3    H253046   4.308   1.242   1.248  1.3151 -3.0717  0.3877
10519TIP3   OH253047   5.044   0.035   5.009 -0.3625  0.4257 -0.3068
10519TIP3    H153048   4.996   0.118   5.020 -0.8023  0.4152 -1.8984
10519TIP3    H253049   5.109   0.053   4.942 -0.6642 -0.5872 -0.9002
10520TIP3   OH253050   0.837   1.255  14.249  0.0700 -0.4427  0.0772
10520TIP3    H153051   0.875   1.193  14.311  1.7067  0.4899  0.0549
10520TIP3    H253052   0.829   1.206  14.167 -0.0330 -1.0290  0.4343
10521TIP3   OH253053   4.966   1.442  13.902 -0.0705  0.6225  1.0464
10521TIP3    H153054   5.028   1.505  13.866  1.4885 -0.1385  2.2675
10521TIP3    H253055   4.886   1.456  13.852  1.1136  1.5608 -0.6944
10522TIP3   OH253056   1.163   3.066   1.732 -0.1885  0.6180 -0.3801
10522TIP3    H153057   1.122   3.041   1.650 -0.2131  0.4160 -0.3069
10522TIP3    H253058   1.104   3.132   1.769  0.6635  1.9487 -1.3076
10523TIP3   OH253059   1.276   3.032  16.693  0.6414 -0.2200 -0.2503
10523TIP3    H153060   1.260   3.029  16.788  0.3716  0.5192 -0.2594
10523TIP3    H253061   1.361   3.075  16.684 -0.1736  1.4702 -0.3769
10524TIP3   OH253062   3.735   1.673   1.814  0.0710  0.0166 -0.2496
10524TIP3    H153063   3.770   1.752   1.856 -2.0656  1.5474 -1.1579
10524TIP3    H253064   3.656   1.652   1.864 -0.3318 -0.4897 -1.0743
10525TIP3   OH253065   2.815   5.771  13.603 -0.1020 -0.0573 -0.2334
10525TIP3    H153066   2.811   5.698  13.541 -0.6920  0.1264 -0.4188
10525TIP3    H253067   2.771   5.738  13.682 -2.5869  0.8606 -1.1303
10526TIP3   OH253068   5.986   3.593  14.885 -1.0440 -0.7083  0.7940
10526TIP3    H153069   5.929   3.613  14.960  0.2014  1.3817  1.2513
10526TIP3    H253070   6.047   3.666  14.881  0.5586 -2.0450 -0.7204
10527TIP3   OH253071   6.790   5.699  11.595  0.3448 -0.1498  0.0362
10527TIP3    H153072   6.795   5.779  11.648  0.4125 -0.8815  1.1595
10527TIP3    H253073   6.844   5.635  11.642 -1.2030 -1.4158  0.1865
10528TIP3   OH253074   1.831   0.614  15.091  0.1576  0.1959  0.1595
10528TIP3    H153075   1.736   0.620  15.106  0.1047  1.0984 -0.4735
10528TIP3    H253076   1.868   0.680  15.149  0.4775 -0.6916  0.9871
10529TIP3   OH253077   6.279   2.844   6.132 -1.0986  0.1997 -0.4651
10529TIP3    H153078   6.281   2.847   6.228 -2.6568  0.4653 -0.4048
10529TIP3    H253079   6.268   2.752   6.111 -0.7265  0.1378 -0.3965
10530TIP3   OH253080   4.302   2.195   5.229 -0.5102  0.5560 -0.0463
10530TIP3    H153081   4.359   2.255   5.182 -0.3765  1.0400  0.7159
10530TIP3    H253082   4.360   2.150   5.291 -0.6215 -0.3080 -0.5603
10531TIP3   OH253083   3.464   0.797   3.580 -0.2995 -0.0538 -0.8677
10531TIP3    H153084   3.407   0.873   3.568 -0.6533 -0.4301 -1.6073
10531TIP3    H253085   3.521   0.822   3.653 -1.3164  0.3861 -0.1847
10532TIP3   OH253086   0.149   0.849  17.205  0.2886  0.7599  0.0355
10532TIP3    H153087   0.077   0.885  17.256  0.3532  1.5293 -0.3954
10532TIP3    H253088   0.207   0.923  17.189  1.2792  0.1148  0.5343
10533TIP3   OH253089   3.802   3.328   1.327 -0.2935  0.4515 -0.1423
10533TIP3    H153090   3.743   3.380   1.272 -0.3101  0.2429 -0.3202
10533TIP3    H253091   3.850   3.273   1.266  0.7240  1.2437 -0.0842
10534TIP3   OH253092   6.019   3.756   2.698  0.0536 -0.8127 -0.1455
10534TIP3    H153093   5.930   3.791   2.695 -0.1443 -1.3729 -1.7104
10534TIP3    H253094   6.050   3.777   2.786 -1.0423  0.7968 -0.0982
10535TIP3   OH253095   0.159   2.220  12.404  0.7001  0.2839 -0.2304
10535TIP3    H153096   0.228   2.155  12.414  1.4100  1.3489  2.8394
10535TIP3    H253097   0.205   2.304  12.402 -0.3825  0.8890 -1.0045
10536TIP3   OH253098   2.924   0.650   0.439  0.1693  0.1978 -0.6828
10536TIP3    H153099   3.011   0.684   0.420 -0.6069  1.5287 -2.0996
10536TIP3    H253100   2.874   0.667   0.360 -1.6323  0.3589  0.4322
10537TIP3   OH253101   1.850   1.612   2.067  0.0105  0.7457 -0.1461
10537TIP3    H153102   1.819   1.638   2.154  0.5106 -1.2763  0.7038
10537TIP3    H253103   1.941   1.641   2.064  0.3783 -0.2557  0.5488
10538TIP3   OH253104   6.628   4.930   0.377  0.0498 -0.3022 -0.4773
10538TIP3    H153105   6.664   4.950   0.463  1.0527 -0.6630 -0.8034
10538TIP3    H253106   6.651   5.006   0.323  0.8397 -0.7907 -0.8368
10539TIP3   OH253107   6.018   5.080   2.205  0.0613 -0.0181 -0.1355
10539TIP3    H153108   6.100   5.114   2.239 -0.1161 -0.2201  0.5115
10539TIP3    H253109   6.040   5.045   2.118  0.1335  2.2754 -1.1266
10540TIP3   OH253110   2.710   0.928   2.888  0.3199 -0.1026  0.3143
10540TIP3    H153111   2.656   1.007   2.886  0.6129  0.0873 -0.3218
10540TIP3    H253112   2.792   0.956   2.929  0.5795  0.0277 -0.2866
10541TIP3   OH253113   0.364   4.285   3.149 -0.1439  0.1454 -0.0441
10541TIP3    H153114   0.340   4.192   3.151  0.0764  0.0811 -0.3448
10541TIP3    H253115   0.443   4.288   3.095 -1.7665  0.8556 -2.5481
10542TIP3   OH253116   3.107   4.597   3.800  0.2837 -0.2450  0.3724
10542TIP3    H153117   3.015   4.622   3.806  0.8001  1.5983  1.7340
10542TIP3    H253118   3.113   4.516   3.850 -0.9860 -1.7532 -1.8084
10543TIP3   OH253119   0.721   0.218  14.909 -0.0847 -0.4450 -0.7628
10543TIP3    H153120   0.762   0.231  14.995  0.9702 -0.7497 -1.2078
10543TIP3    H253121   0.793   0.224  14.847 -1.0835  1.4888 -1.8006
10544TIP3   OH253122   5.051   2.210   5.802 -0.0786  0.3754  0.3307
10544TIP3    H153123   4.962   2.193   5.770  0.8323 -0.5090 -2.0077
10544TIP3    H253124   5.073   2.296   5.765  0.0680  0.5619  0.8464
10545TIP3   OH253125   6.020   3.851  15.742 -0.4257 -0.2373 -0.1928
10545TIP3    H153126   6.013   3.943  15.769 -0.7734 -0.3749  0.1793
10545TIP3    H253127   5.989   3.801  15.817 -3.5862 -0.5722 -1.5779
10546TIP3   OH253128   1.134   2.752  17.133 -0.4232  0.0087  0.0101
10546TIP3    H153129   1.100   2.707  17.210 -0.6239 -0.1572 -0.1716
10546TIP3    H253130   1.130   2.845  17.156 -0.9808 -0.0106  0.0033
10547TIP3   OH253131   5.572   4.724  14.417  0.2393 -0.8629 -0.3280
10547TIP3    H153132   5.592   4.804  14.368  0.0551 -0.6633 -0.0873
10547TIP3    H253133   5.553   4.756  14.506  0.3233 -1.1914 -0.1934
10548TIP3   OH253134   6.515   5.624  10.903  0.2158 -0.2720  0.1441
10548TIP3    H153135   6.596   5.607  10.856  0.3861 -1.3796  0.8139
10548TIP3    H253136   6.525   5.580  10.987 -0.8517  0.0525  0.4664
10549TIP3   OH253137   6.612   3.063   3.695 -0.2608  0.1808 -0.1751
10549TIP3    H153138   6.602   3.153   3.665  2.2627  0.1734 -1.2072
10549TIP3    H253139   6.584   3.009   3.621 -0.3587  0.1231 -0.0967
10550TIP3   OH253140   2.064   1.225  13.119  0.1208 -0.8042  0.1222
10550TIP3    H153141   1.986   1.179  13.151  0.5842 -0.1810  2.3585
10550TIP3    H253142   2.079   1.190  13.032 -1.9749 -1.7931  0.0949
10551TIP3   OH253143   1.672   3.442  16.250  0.3507 -0.1541  0.6197
10551TIP3    H153144   1.649   3.366  16.304  1.7301  0.9941  3.0044
10551TIP3    H253145   1.611   3.510  16.277  1.2645  0.5327  1.0061
10552TIP3   OH253146   4.368   0.878   1.212 -0.2452 -0.1650  0.3187
10552TIP3    H153147   4.365   0.889   1.307 -1.2011 -0.9175  0.3940
10552TIP3    H253148   4.357   0.784   1.198  0.1861 -0.1010 -0.5255
10553TIP3   OH253149   2.035   2.485  13.920  0.3407  0.0857 -0.5602
10553TIP3    H153150   2.027   2.466  14.013 -0.2957  2.4993 -0.0441
10553TIP3    H253151   1.948   2.518  13.895  1.3034  2.3078 -1.2339
10554TIP3   OH253152   0.515   3.438  11.121 -0.4213  0.0471  0.0743
10554TIP3    H153153   0.609   3.447  11.108  0.3863 -1.9080  3.3179
10554TIP3    H253154   0.482   3.408  11.036  2.0338 -0.1522 -0.8999
10555TIP3   OH253155   0.112   0.150   4.000 -0.0711  0.5458  0.4092
10555TIP3    H153156   0.178   0.215   3.975  0.2153  0.3557  0.6697
10555TIP3    H253157   0.031   0.201   4.011 -0.2320  0.6363 -0.9849
10556TIP3   OH253158   2.505   1.496   1.096 -0.8493  0.1672 -0.2977
10556TIP3    H153159   2.589   1.541   1.082 -1.0763  1.6872  2.5095
10556TIP3    H253160   2.456   1.513   1.016  1.3822 -0.5495 -1.9214
10557TIP3   OH253161   5.825   4.414   1.254  0.5782 -0.4722  0.2820
10557TIP3    H153162   5.907   4.392   1.209  2.3416  2.5038  1.7260
10557TIP3    H253163   5.844   4.400   1.347 -0.5632  0.2444  0.6472
10558TIP3   OH253164   6.450   4.664   0.898  0.2035 -0.2538 -0.1307
10558TIP3    H153165   6.502   4.604   0.952 -0.3273 -0.0895  0.5764
10558TIP3    H253166   6.511   4.733   0.874  0.8656 -1.1346 -1.0831
10559TIP3   OH253167   3.735   5.876  13.800  0.5780 -0.5844 -0.2646
10559TIP3    H153168   3.704   5.799  13.849  0.3550 -1.4104 -1.6362
10559TIP3    H253169   3.740   5.946  13.865  2.0104 -2.0607  1.3123
10560TIP3   OH253170   1.894   5.240   2.872  0.0204  1.0664 -0.0522
10560TIP3    H153171   1.989   5.232   2.885 -0.0910 -0.1946  0.1144
10560TIP3    H253172   1.856   5.216   2.957 -0.4845 -0.1648 -0.6047
10561TIP3   OH253173   4.498   3.356   4.957 -0.1908 -0.0024  0.1409
10561TIP3    H153174   4.406   3.369   4.977  0.3569  0.6127  2.4773
10561TIP3    H253175   4.539   3.338   5.041  1.8618 -0.0633 -0.8141
10562TIP3   OH253176   6.532   4.696   2.588 -0.6702  0.6549  0.7831
10562TIP3    H153177   6.579   4.769   2.628  0.2215 -0.2502  1.4371
10562TIP3    H253178   6.450   4.735   2.558  0.7506  2.4542 -1.0607
10563TIP3   OH253179   6.142   5.781   6.107  0.0173  0.3671  0.0979
10563TIP3    H153180   6.071   5.845   6.101 -0.9622 -0.6496  0.3753
10563TIP3    H253181   6.099   5.700   6.137  1.0434 -0.6817 -1.1382
10564TIP3   OH253182   0.579   2.231  10.653  0.2062 -0.0827  0.1345
10564TIP3    H153183   0.563   2.289  10.579  0.9340 -2.2221 -1.8218
10564TIP3    H253184   0.626   2.285  10.716 -0.7060  1.9024 -0.7890
10565TIP3   OH253185   2.687   2.947   1.001 -0.1121 -0.1249  0.6387
10565TIP3    H153186   2.609   2.964   0.947  0.8623 -0.3073 -0.8845
10565TIP3    H253187   2.716   2.860   0.973  0.5799 -0.1005  1.2753
10566TIP3   OH253188   2.737   5.089   5.836 -0.4302  0.0819  0.2417
10566TIP3    H153189   2.706   5.064   5.923 -1.8303  0.5784 -0.0921
10566TIP3    H253190   2.690   5.170   5.816 -0.9291 -0.5730 -1.4013
10567TIP3   OH253191   4.647   6.292   0.126 -0.1055  0.3170  0.1313
10567TIP3    H153192   4.581   6.344   0.081 -0.1112  1.5845  1.4977
10567TIP3    H253193   4.598   6.226   0.174 -0.3271  0.6693  0.3988
10568TIP3   OH253194   3.183   4.400   0.803  0.4879 -0.7384 -0.0967
10568TIP3    H153195   3.174   4.354   0.887  0.5546 -1.4415 -0.4624
10568TIP3    H253196   3.129   4.478   0.812  0.8849 -0.5551  0.7787
10569TIP3   OH253197   0.738   3.337   4.588 -0.7652  0.2303 -0.0475
10569TIP3    H153198   0.814   3.365   4.639  0.5149  2.1303 -2.7319
10569TIP3    H253199   0.774   3.317   4.501 -2.9295 -1.9190 -0.5469
10570TIP3   OH253200   0.821   3.848  11.109  0.1946  0.3137  0.4862
10570TIP3    H153201   0.802   3.908  11.182 -2.5767 -0.4523  0.5047
10570TIP3    H253202   0.793   3.896  11.031  1.3997  0.4059  0.0895
10571TIP3   OH253203   6.453   3.265  13.278  0.5379 -0.5557 -0.2087
10571TIP3    H153204   6.443   3.286  13.185 -1.9913  1.0220  0.3227
10571TIP3    H253205   6.430   3.346  13.324  0.1324 -1.7265  1.8152
10572TIP3   OH253206   5.013   6.000   5.030  0.1262 -0.1654 -0.2737
10572TIP3    H153207   4.981   5.920   5.072  0.9111 -0.4175 -0.1548
10572TIP3    H253208   4.948   6.018   4.962 -0.6161 -0.3162  0.3678
10573TIP3   OH253209   3.555   4.764   0.675 -0.6001 -0.5104  0.0136
10573TIP3    H153210   3.469   4.802   0.692 -1.0637 -1.4161 -0.2398
10573TIP3    H253211   3.557   4.684   0.727 -0.0834 -0.7215 -0.3177
10574TIP3   OH253212   6.529   0.533   4.526  0.2984  0.0691  0.4078
10574TIP3    H153213   6.618   0.520   4.558 -0.1060 -0.9462  1.1676
10574TIP3    H253214   6.518   0.468   4.457 -0.0215 -0.1576  0.6709
10575TIP3   OH253215   1.515   5.739   2.027 -0.8495  0.4975 -0.0370
10575TIP3    H153216   1.539   5.830   2.041 -0.3786  0.4347 -0.4135
10575TIP3    H253217   1.419   5.738   2.032 -0.8457  0.9786  0.1522
10576TIP3   OH253218   3.198   3.167  15.623 -0.8204 -0.2541 -0.4177
10576TIP3    H153219   3.159   3.232  15.682 -1.1779 -0.2154 -0.6903
10576TIP3    H253220   3.291   3.168  15.644 -0.9624 -0.3482  0.2496
10577TIP3   OH253221   2.821   3.961   5.295 -0.0923  0.0527 -0.3011
10577TIP3    H153222   2.745   3.995   5.248 -0.6639  3.2867  2.5604
10577TIP3    H253223   2.784   3.895   5.355 -0.9948  2.2894  1.7654
10578TIP3   OH253224   4.983   3.454  14.766 -0.2929 -0.1428  0.0603
10578TIP3    H153225   5.035   3.507  14.707  0.4501 -0.9937 -0.0736
10578TIP3    H253226   4.894   3.490  14.759 -0.2005 -0.1571 -1.4939
10579TIP3   OH253227   4.827   2.732   3.718  1.1982  0.1661 -0.3424
10579TIP3    H153228   4.807   2.811   3.768  1.4054  0.5991 -0.9349
10579TIP3    H253229   4.843   2.763   3.629  1.6023 -0.5080 -0.5119
10580TIP3   OH253230   6.344   1.369   5.614  0.1942  0.0643 -0.4139
10580TIP3    H153231   6.254   1.382   5.585  0.3689 -1.4118 -1.7311
10580TIP3    H253232   6.385   1.454   5.603 -1.4258  1.2708  1.9052
10581TIP3   OH253233   3.018   2.087  11.740 -0.0899  0.2622 -0.4509
10581TIP3    H153234   3.009   2.030  11.663  0.1746  0.1169 -0.3760
10581TIP3    H253235   3.096   2.140  11.720 -0.0575  0.2663 -0.3091
10582TIP3   OH253236   6.142   3.363  15.065 -0.2911 -0.0739 -0.0311
10582TIP3    H153237   6.139   3.341  14.972 -1.3792 -0.4505  0.0778
10582TIP3    H253238   6.082   3.437  15.074 -1.4036 -1.0275  0.6131
10583TIP3   OH253239   5.339   5.805   6.186 -0.3838 -0.1314  0.1914
10583TIP3    H153240   5.356   5.829   6.277 -0.2911 -0.2573  0.2071
10583TIP3    H253241   5.334   5.710   6.187  0.1698 -0.1684 -0.0322
10584TIP3   OH253242   1.809   1.241   0.037 -0.3308 -0.6656  0.3472
10584TIP3    H153243   1.787   1.325   0.077  3.4314  0.8212 -0.3556
10584TIP3    H253244   1.822   1.182   0.111 -0.0876  0.1961  1.0083
10585TIP3   OH253245   1.693   2.573  11.679 -0.3727 -0.7347 -0.4312
10585TIP3    H153246   1.732   2.654  11.713 -1.7524  0.3376 -1.2569
10585TIP3    H253247   1.753   2.504  11.705  0.9391  0.5807  0.1680
10586TIP3   OH253248   3.718   6.752   4.579  0.5126  0.2763  0.3929
10586TIP3    H153249   3.782   6.682   4.567 -0.1610 -0.6536  1.8683
10586TIP3    H253250   3.771   6.831   4.594  1.3347 -0.4081  1.2253
10587TIP3   OH253251   2.986   1.042  14.873  0.2507 -0.3175 -0.4946
10587TIP3    H153252   2.945   1.011  14.953  0.0695 -0.8885 -0.7995
10587TIP3    H253253   2.940   1.123  14.851 -0.0695 -0.4534 -0.3233
10588TIP3   OH253254   6.610   4.903  16.924 -0.1973 -0.8277 -0.0858
10588TIP3    H153255   6.587   4.896  17.017 -0.6519 -1.4243 -0.2300
10588TIP3    H253256   6.694   4.948  16.923 -1.1197  0.9858  0.4999
10589TIP3   OH253257   0.026   2.051  12.967 -0.3259  0.5819 -1.2520
10589TIP3    H153258   0.016   2.071  12.874  0.0250  0.0316 -1.4136
10589TIP3    H253259  -0.027   2.117  13.012 -2.1782 -0.3704 -1.9269
10590TIP3   OH253260   6.818   2.375  15.797 -0.7821 -0.4205  0.0370
10590TIP3    H153261   6.753   2.422  15.850 -0.2595  1.3241 -0.7754
10590TIP3    H253262   6.776   2.366  15.712  0.6152  2.4221 -1.0861
10591TIP3   OH253263   3.675   1.315  16.577  1.2155 -0.6019  0.4597
10591TIP3    H153264   3.607   1.246  16.575  0.3729  0.2078  0.5046
10591TIP3    H253265   3.722   1.304  16.495 -1.3699  1.1346 -1.4074
10592TIP3   OH253266   3.916   0.815  11.300  0.3494 -0.0783 -0.6867
10592TIP3    H153267   4.002   0.857  11.294 -0.6446  2.1465 -0.7593
10592TIP3    H253268   3.913   0.755  11.225  1.9643 -0.5113 -0.4350
10593TIP3   OH253269   0.482   6.417   1.377  0.3812  0.3683  0.1001
10593TIP3    H153270   0.468   6.393   1.468  3.3244  1.4446  0.9518
10593TIP3    H253271   0.466   6.337   1.327 -0.0333 -0.5680  1.6999
10594TIP3   OH253272   2.249   4.157   1.696 -0.4423 -0.3314 -0.0443
10594TIP3    H153273   2.250   4.181   1.604 -0.5047 -1.9713 -0.5096
10594TIP3    H253274   2.234   4.239   1.743 -0.4725  0.5112 -1.4899
10595TIP3   OH253275   6.492   0.996  14.277  0.0915 -0.5087 -0.5322
10595TIP3    H153276   6.495   1.049  14.357 -0.7781 -1.6685  0.3105
10595TIP3    H253277   6.582   0.965  14.267  0.2139 -0.3524  0.0050
10596TIP3   OH253278   3.315   4.512   3.046  0.1907  0.0029  0.0127
10596TIP3    H153279   3.268   4.563   2.980 -0.6615 -1.3489 -0.4637
10596TIP3    H253280   3.388   4.568   3.072  0.0908  0.8921 -1.5065
10597TIP3   OH253281   6.571   5.958  12.900  0.1554  0.5091  0.2637
10597TIP3    H153282   6.652   6.009  12.897  0.4708 -0.0040 -2.0482
10597TIP3    H253283   6.599   5.868  12.889 -0.6569  0.1832  0.7554
10598TIP3   OH253284   1.458   0.915   5.769 -0.2254 -0.8463 -0.2387
10598TIP3    H153285   1.374   0.906   5.723 -0.9388  0.9623  0.6044
10598TIP3    H253286   1.520   0.940   5.700 -0.7387 -0.6147 -0.6242
10599TIP3   OH253287   4.042   4.971   0.434  0.1705 -0.7558 -0.3388
10599TIP3    H153288   4.041   4.998   0.342  1.1964 -0.1735 -0.1837
10599TIP3    H253289   3.997   5.042   0.480  0.3866 -0.6513 -0.2880
10600TIP3   OH253290   4.565   0.660   4.478  0.7034  0.0075 -0.0385
10600TIP3    H153291   4.494   0.625   4.426  1.1153 -0.5879 -0.2179
10600TIP3    H253292   4.565   0.754   4.460 -0.5407  0.1528  0.5935
10601TIP3   OH253293   3.431   2.265   3.699  0.4117 -0.0133 -0.4120
10601TIP3    H153294   3.501   2.227   3.752  0.1527 -0.7371 -0.5800
10601TIP3    H253295   3.357   2.205   3.710 -0.4692  1.1762  0.4383
10602TIP3   OH253296   4.860   2.589  12.047  0.2442  0.1161 -0.0312
10602TIP3    H153297   4.845   2.675  12.008  0.0895  0.5667  0.9808
10602TIP3    H253298   4.797   2.585  12.120 -0.9525 -1.5519 -1.0753
10603TIP3   OH253299   4.530   3.568  15.050  0.2274  0.3578 -0.3581
10603TIP3    H153300   4.572   3.603  15.129 -1.2303  0.1979  0.5300
10603TIP3    H253301   4.454   3.625  15.036 -0.0865 -0.2169 -1.0449
10604TIP3   OH253302   5.548   6.566   0.151 -0.3247  0.3572  0.0735
10604TIP3    H153303   5.534   6.510   0.076  0.2014  2.0920 -1.4010
10604TIP3    H253304   5.497   6.645   0.133  0.1577  0.9953  1.3153
10605TIP3   OH253305   5.099   2.418   1.779  0.6124 -0.0325  0.0623
10605TIP3    H153306   5.130   2.492   1.832  3.4460 -0.8575 -0.2827
10605TIP3    H253307   5.107   2.342   1.836  2.8553 -0.7964 -1.1428
10606TIP3   OH253308   1.471   3.588  12.859 -0.3191 -0.6452  0.2211
10606TIP3    H153309   1.546   3.630  12.816 -0.5227  0.9894  1.3659
10606TIP3    H253310   1.434   3.531  12.792  0.8148 -0.0354 -0.9739
10607TIP3   OH253311   6.004   2.861  16.481  1.1351 -0.8998  0.5338
10607TIP3    H153312   5.990   2.953  16.504  4.7889  0.7292 -2.7072
10607TIP3    H253313   5.922   2.836  16.437  0.8823  1.6703 -0.6895
10608TIP3   OH253314   2.882   3.415   1.122 -1.5477  0.5063 -0.0866
10608TIP3    H153315   2.886   3.321   1.102 -0.2658  0.5294 -0.0312
10608TIP3    H253316   2.869   3.420   1.216  0.0422  0.3436  0.1778
10609TIP3   OH253317   2.637   2.785  12.312  0.0242  0.1052  0.1041
10609TIP3    H153318   2.623   2.734  12.392  0.4792 -0.3476 -0.1016
10609TIP3    H253319   2.726   2.820  12.321 -0.1855  0.6392  0.1197
10610TIP3   OH253320   4.389   0.296   0.463 -0.3992 -0.0228  0.4338
10610TIP3    H153321   4.319   0.315   0.525 -0.4781 -2.3551  1.1681
10610TIP3    H253322   4.468   0.292   0.517 -0.1889 -0.3187  0.1131
10611TIP3   OH253323   6.516   2.430   4.191  0.7596 -1.0892  0.1914
10611TIP3    H153324   6.501   2.360   4.128 -1.8325 -0.3267 -0.1560
10611TIP3    H253325   6.470   2.402   4.270 -2.4215  1.0857 -0.6858
10612TIP3   OH253326   1.733   2.873   5.918 -0.0466  0.4628 -0.3848
10612TIP3    H153327   1.750   2.898   6.009 -0.8044  0.1687 -0.1584
10612TIP3    H253328   1.819   2.881   5.875  0.2162  1.1034  0.2278
10613TIP3   OH253329   0.253   1.164  13.352  0.1589  0.0473  0.2626
10613TIP3    H153330   0.239   1.256  13.376  0.8155  0.3102 -0.3500
10613TIP3    H253331   0.225   1.116  13.430  1.5354  0.8577  1.3082
10614TIP3   OH253332   5.089   2.632  15.969 -0.0990 -0.2443  0.2745
10614TIP3    H153333   5.019   2.574  15.999 -0.0932 -0.4096 -0.0405
10614TIP3    H253334   5.042   2.705  15.927 -0.1316  0.2469  1.1230
10615TIP3   OH253335   5.814   0.432  15.994 -0.1268 -0.2858  0.2354
10615TIP3    H153336   5.768   0.490  15.933  0.0317 -0.4209 -0.0146
10615TIP3    H253337   5.766   0.441  16.076  0.4799  0.9364  0.4731
10616TIP3   OH253338   3.006   3.465   4.535 -0.5771  0.5076  0.2286
10616TIP3    H153339   2.962   3.380   4.534  0.5102 -0.0860 -0.6837
10616TIP3    H253340   2.966   3.512   4.608 -3.0611  0.2305 -0.8458
10617TIP3   OH253341   5.847   6.525   2.240 -0.1127  0.1708 -0.3318
10617TIP3    H153342   5.873   6.617   2.229  0.4057  0.0864  0.1187
10617TIP3    H253343   5.751   6.527   2.242 -0.1167  0.6408 -0.8113
10618TIP3   OH253344   1.144   6.290   1.194  0.1240  0.0031 -0.0441
10618TIP3    H153345   1.236   6.270   1.207  0.0636  0.7386  1.8677
10618TIP3    H253346   1.099   6.250   1.269 -1.2120 -0.7948 -1.2049
10619TIP3   OH253347   6.174   3.743   6.091 -0.1482 -0.4311  0.0145
10619TIP3    H153348   6.136   3.831   6.095  0.0304 -0.3433 -0.1935
10619TIP3    H253349   6.100   3.684   6.103 -0.4058 -0.2725 -0.7582
10620TIP3   OH253350   5.961   1.369   3.941 -0.1936  0.2123  0.3842
10620TIP3    H153351   5.993   1.460   3.933 -0.9186  0.4597  0.2478
10620TIP3    H253352   5.927   1.364   4.030 -1.3720  0.4838 -0.0318
10621TIP3   OH253353   2.776   4.377   3.397  0.6620  0.0744  0.0979
10621TIP3    H153354   2.740   4.446   3.342 -1.1840 -0.6510  0.3210
10621TIP3    H253355   2.860   4.355   3.357 -0.0730  0.4158 -1.6961
10622TIP3   OH253356   5.582   0.984  15.357  0.6467 -0.0666 -0.1576
10622TIP3    H153357   5.616   0.950  15.274  0.1866 -0.0599 -0.3515
10622TIP3    H253358   5.590   0.911  15.418 -0.3613 -0.5547 -0.5813
10623TIP3   OH253359   0.700   2.574  15.622 -0.3463  0.0386  0.0837
10623TIP3    H153360   0.786   2.581  15.663 -0.8170  1.7378  0.8399
10623TIP3    H253361   0.715   2.592  15.530  0.2086 -0.4856  0.0622
10624TIP3   OH253362   5.527   3.906  10.973 -0.2491 -0.1338 -0.5932
10624TIP3    H153363   5.480   3.874  10.896 -0.5629 -0.7616 -0.1506
10624TIP3    H253364   5.619   3.900  10.950 -0.3502 -0.0128 -1.0364
10625TIP3   OH253365   6.153   4.182   0.479 -0.5092  0.7143 -0.0726
10625TIP3    H153366   6.235   4.219   0.512  0.9328  0.2990 -2.8653
10625TIP3    H253367   6.140   4.101   0.529  1.6078  0.0590 -0.4941
10626TIP3   OH253368   5.775   3.408  14.894 -0.1626 -0.0693 -0.4134
10626TIP3    H153369   5.860   3.453  14.892 -0.7328  1.0580  0.0543
10626TIP3    H253370   5.726   3.452  14.963 -0.8953 -1.1634 -0.2043
10627TIP3   OH253371   4.925   2.485   5.997 -0.0071 -1.0656 -0.5985
10627TIP3    H153372   4.855   2.481   5.931  0.0237  1.0504 -0.8143
10627TIP3    H253373   4.886   2.533   6.070  1.2783  0.4864 -0.8722
10628TIP3   OH253374   3.737   3.657  13.223  0.0474 -0.2399 -0.4452
10628TIP3    H153375   3.778   3.709  13.293  0.1517 -0.4660 -0.3389
10628TIP3    H253376   3.798   3.586  13.206  0.5319  0.4086 -1.5256
10629TIP3   OH253377   0.540   3.115   0.445  0.1556  0.5090 -0.2762
10629TIP3    H153378   0.499   3.047   0.498  1.5138 -0.4315 -0.3758
10629TIP3    H253379   0.549   3.190   0.504 -0.1428  0.1414  0.2339
10630TIP3   OH253380   5.176   6.167   0.672  0.1898  0.0852  0.3243
10630TIP3    H153381   5.265   6.189   0.700  0.5903 -1.7339  0.5636
10630TIP3    H253382   5.153   6.237   0.610  1.3257  1.2152  1.1136
10631TIP3   OH253383   0.115   5.525  16.685 -0.3247  0.3932  0.1675
10631TIP3    H153384   0.072   5.469  16.620  0.1416  0.2564 -0.0232
10631TIP3    H253385   0.066   5.607  16.682 -0.3486  0.3638 -0.3085
10632TIP3   OH253386   1.779   6.258  13.247 -0.3265 -0.1751  0.1893
10632TIP3    H153387   1.835   6.227  13.318  0.0081  1.4266  0.6752
10632TIP3    H253388   1.691   6.261  13.285 -0.1589  0.6128  0.5318
10633TIP3   OH253389   4.181   5.451   3.078 -0.5281  0.1288 -0.3487
10633TIP3    H153390   4.182   5.357   3.096 -0.5533 -0.0203 -1.1229
10633TIP3    H253391   4.089   5.471   3.058 -0.7666  0.5700  1.0610
10634TIP3   OH253392   1.456   6.697   3.490  0.4812  0.1149  0.1847
10634TIP3    H153393   1.523   6.640   3.452  0.9379 -0.2798  1.5269
10634TIP3    H253394   1.459   6.678   3.584  0.9785  2.6740  0.7641
10635TIP3   OH253395   1.984   3.099  16.521  0.0201 -0.8721  0.2439
10635TIP3    H153396   2.068   3.062  16.492  1.2604  1.3587  0.7301
10635TIP3    H253397   2.008   3.164  16.587 -2.0849  0.0746  0.1640
10636TIP3   OH253398   0.291   4.901  13.888  0.4439 -0.1407  0.7310
10636TIP3    H153399   0.291   4.972  13.952 -2.0934 -0.1025  0.7693
10636TIP3    H253400   0.209   4.854  13.904 -0.0233 -0.4424 -2.1488
10637TIP3   OH253401   4.769   5.445   5.432 -0.4619  0.0654  0.2078
10637TIP3    H153402   4.746   5.468   5.343 -0.5006  3.3329  0.9635
10637TIP3    H253403   4.852   5.490   5.448 -0.1192 -0.9848  1.6538
10638TIP3   OH253404   5.754   2.587   5.164  0.2985 -0.7013 -0.1243
10638TIP3    H153405   5.805   2.517   5.123  1.3429  0.2850 -0.5692
10638TIP3    H253406   5.745   2.653   5.096  1.7668  0.8237  1.0501
10639TIP3   OH253407   6.773   1.277  12.155  0.2029 -0.4861  0.4199
10639TIP3    H153408   6.755   1.230  12.074 -0.0232 -1.2940  0.9348
10639TIP3    H253409   6.759   1.369  12.132 -0.7799 -0.7717 -0.2155
10640TIP3   OH253410   5.272   3.468   0.108  0.1615 -0.2310 -0.4561
10640TIP3    H153411   5.355   3.458   0.060  0.7036  0.3836  0.3336
10640TIP3    H253412   5.287   3.423   0.191 -0.4607 -0.4966 -0.4813
10641TIP3   OH253413   0.335   5.183  15.785 -0.5006  0.1128 -0.1041
10641TIP3    H153414   0.318   5.273  15.757 -0.7389 -0.6116 -2.5589
10641TIP3    H253415   0.297   5.129  15.715 -1.2672 -1.9378  1.7811
10642TIP3   OH253416   0.399   3.492  11.982 -0.0230 -0.0957 -0.1184
10642TIP3    H153417   0.359   3.538  11.909 -0.4121  1.5468  1.0627
10642TIP3    H253418   0.358   3.406  11.982 -0.2999  0.0160 -1.5793
10643TIP3   OH253419   1.934   1.930  15.840 -0.1713  0.2865  0.1409
10643TIP3    H153420   1.932   1.966  15.752 -0.0857  0.0017  0.0234
10643TIP3    H253421   1.858   1.872  15.844  0.0796 -0.0422  0.1104
10644TIP3   OH253422   6.448   5.226   4.684  0.1352  0.0166  0.2725
10644TIP3    H153423   6.422   5.258   4.770  0.1175  1.9438 -0.4095
10644TIP3    H253424   6.514   5.159   4.703  1.2832  1.4813  1.7814
10645TIP3   OH253425   1.328   5.062   0.470 -0.1080  0.1173  0.4162
10645TIP3    H153426   1.349   5.154   0.450 -1.2631 -0.1239 -2.4028
10645TIP3    H253427   1.326   5.020   0.384 -1.1251 -2.2240  1.5303
10646TIP3   OH253428   6.499   4.799   5.043  0.7015  0.2348  0.2866
10646TIP3    H153429   6.555   4.876   5.036  0.8286  0.6829  4.2064
10646TIP3    H253430   6.412   4.833   5.063  0.0921 -0.5968 -0.8276
10647TIP3   OH253431   5.697   5.869   6.068  0.5384 -0.1797  0.6428
10647TIP3    H153432   5.778   5.894   6.023  0.7801 -1.5637  0.2685
10647TIP3    H253433   5.727   5.821   6.145  0.0714 -0.5879  0.5731
10648TIP3   OH253434   1.370   1.603   3.263 -0.6661 -0.1259  1.0067
10648TIP3    H153435   1.305   1.534   3.247 -0.4126 -0.3070  0.7271
10648TIP3    H253436   1.337   1.678   3.213 -0.4079 -0.3734  0.4484
10649TIP3   OH253437   2.152   5.906  14.806  0.3642 -0.4764 -0.1918
10649TIP3    H153438   2.072   5.955  14.823  1.5949  2.5148 -2.1731
10649TIP3    H253439   2.139   5.867  14.720  0.3648 -1.5932  0.2934
10650TIP3   OH253440   6.117   0.562  16.581 -0.0868  0.2479 -0.0513
10650TIP3    H153441   6.206   0.563  16.616 -0.5564  1.3993  1.2253
10650TIP3    H253442   6.122   0.615  16.501  0.7532 -1.3806 -1.1284
10651TIP3   OH253443   0.991   0.857  14.547  0.0851  0.6790  0.1026
10651TIP3    H153444   0.919   0.801  14.518  0.2009 -0.0122  1.0872
10651TIP3    H253445   1.069   0.818  14.509  0.4169 -1.1091  2.4290
10652TIP3   OH253446   0.503   2.191  16.954  0.3578 -0.9336 -0.0071
10652TIP3    H153447   0.588   2.235  16.953  1.1333 -2.3516  0.8416
10652TIP3    H253448   0.463   2.219  17.036 -0.1017 -0.1309 -0.4845
10653TIP3   OH253449   2.457   4.140  13.929  0.1365  0.5261  0.0120
10653TIP3    H153450   2.370   4.172  13.952  0.2321 -0.0655  1.2941
10653TIP3    H253451   2.445   4.047  13.912  0.4997  0.4549  0.1344
10654TIP3   OH253452   2.378   2.931   1.855  0.1338 -0.8520 -0.4185
10654TIP3    H153453   2.367   2.892   1.942 -0.5213 -1.0486 -0.5869
10654TIP3    H253454   2.355   3.023   1.867  0.3720 -0.8036 -0.3149
10655TIP3   OH253455   6.113   1.443  14.558  0.2411 -0.0054 -0.1925
10655TIP3    H153456   6.103   1.533  14.590 -1.5632 -0.3317  0.2668
10655TIP3    H253457   6.118   1.452  14.463 -0.2490  0.5760 -0.1711
10656TIP3   OH253458   3.950   5.163   0.583  0.1474 -0.0920  0.2656
10656TIP3    H153459   3.998   5.216   0.646  0.7946 -0.9416  0.5026
10656TIP3    H253460   3.877   5.127   0.633 -0.9094  1.3581 -0.1417
10657TIP3   OH253461   1.220   3.438  15.825 -0.1342 -0.0317 -0.6357
10657TIP3    H153462   1.143   3.385  15.845  0.8289 -0.5143  2.2623
10657TIP3    H253463   1.281   3.419  15.896  2.0262  1.5933 -1.9357
10658TIP3   OH253464   4.796   6.040   3.022 -0.0223  0.6482  0.1235
10658TIP3    H153465   4.704   6.059   3.038 -0.1131  1.4339 -1.1460
10658TIP3    H253466   4.797   5.949   2.992 -0.4604  0.7960 -0.3539
10659TIP3   OH253467   5.738   5.428   2.742  0.3378 -0.1040  0.2925
10659TIP3    H153468   5.750   5.390   2.654 -0.9769  1.3936 -0.5899
10659TIP3    H253469   5.825   5.460   2.766  0.6539 -0.2636 -0.5829
10660TIP3   OH253470   2.803   1.095  11.643  0.0131 -0.4738 -0.1281
10660TIP3    H153471   2.879   1.103  11.701 -0.2107  0.2426  0.0841
10660TIP3    H253472   2.782   1.001  11.643  0.6568 -0.6214  0.1174
10661TIP3   OH253473   5.660   4.205  15.508  0.2632  0.6460 -0.0321
10661TIP3    H153474   5.753   4.184  15.515  0.0718 -1.0731 -1.7642
10661TIP3    H253475   5.618   4.150  15.574  0.2008 -1.2880 -1.5915
10662TIP3   OH253476   3.201   2.365  11.136  0.1187  0.0255 -0.0083
10662TIP3    H153477   3.201   2.458  11.112 -1.6761 -0.2970 -1.4971
10662TIP3    H253478   3.266   2.326  11.078 -0.1337  0.1417 -0.3724
10663TIP3   OH253479   0.869   3.860  16.448 -0.3906 -0.1493  0.2842
10663TIP3    H153480   0.938   3.795  16.447 -1.1619 -1.0844  2.0956
10663TIP3    H253481   0.799   3.823  16.394  0.7386  1.1751 -2.2634
10664TIP3   OH253482   3.594   0.912  13.689  0.1709  0.5366 -0.1604
10664TIP3    H153483   3.595   1.007  13.673  0.1678  0.4341 -0.7823
10664TIP3    H253484   3.534   0.877  13.624 -1.4031  0.3136  1.3339
10665TIP3   OH253485   3.068   5.634  10.305  0.1427 -0.1775 -0.2191
10665TIP3    H153486   3.153   5.591  10.298  1.5305  2.3376  0.0306
10665TIP3    H253487   3.004   5.562  10.301  2.2549 -2.1747 -0.0799
10666TIP3   OH253488   2.995   6.391   3.277 -0.0893  0.3188 -0.4306
10666TIP3    H153489   2.933   6.318   3.277  2.0637 -1.6133 -0.2035
10666TIP3    H253490   2.979   6.436   3.194 -0.3641 -1.4469 -1.3864
10667TIP3   OH253491   1.805   4.785   3.158  0.3400  0.3156  0.0330
10667TIP3    H153492   1.852   4.837   3.224  0.5174  0.4776 -0.2190
10667TIP3    H253493   1.765   4.713   3.208 -0.5475  1.1133  0.5003
10668TIP3   OH253494   5.508   0.236   5.904  0.4574  0.4682  0.2471
10668TIP3    H153495   5.477   0.146   5.912 -0.8674  0.7829 -0.9835
10668TIP3    H253496   5.441   0.289   5.948  0.1543  1.0114 -0.8415
10669TIP3   OH253497   1.947   4.745  12.762 -0.3727 -0.1086 -0.1878
10669TIP3    H153498   1.915   4.660  12.734 -0.8187 -0.4864  1.3504
10669TIP3    H253499   1.915   4.806  12.695 -1.0188 -0.9905 -0.7088
10670TIP3   OH253500   3.604   0.130  12.344  0.5235 -0.5785  0.1893
10670TIP3    H153501   3.582   0.187  12.270  0.2081 -1.3745 -0.3490
10670TIP3    H253502   3.692   0.156  12.369  0.9895 -0.8870 -1.0538
10671TIP3   OH253503   2.816   0.960   3.901 -0.0816 -0.3276  0.3751
10671TIP3    H153504   2.791   0.990   3.988  0.6862 -1.2613  0.9327
10671TIP3    H253505   2.733   0.955   3.853 -0.6431 -0.7663  1.3597
10672TIP3   OH253506   4.006   5.125   5.379  0.3391 -0.1249 -0.0074
10672TIP3    H153507   3.915   5.101   5.394 -0.8057  2.1403 -2.5085
10672TIP3    H253508   4.032   5.172   5.458 -1.3458  0.9092 -0.0162
10673TIP3   OH253509   3.691   4.006   3.477  0.5613 -0.3891 -0.3888
10673TIP3    H153510   3.674   4.094   3.511  0.3295 -0.4506 -0.3390
10673TIP3    H253511   3.611   3.957   3.497  1.6964 -1.3979  2.1067
10674TIP3   OH253512   5.998   1.918   1.111  0.7948 -0.0335  0.3710
10674TIP3    H153513   5.909   1.947   1.093  0.8598 -0.2933 -0.3940
10674TIP3    H253514   6.054   1.989   1.077  0.9865 -1.2944 -2.2230
10675TIP3   OH253515   4.300   1.976   1.696  0.0814  0.0906 -0.5152
10675TIP3    H153516   4.300   1.936   1.784  0.3737 -0.8871 -0.9407
10675TIP3    H253517   4.215   2.019   1.689 -0.8769 -1.7008 -0.5481
10676TIP3   OH253518   3.784   0.323  12.440  0.6841 -0.4566  0.1803
10676TIP3    H153519   3.874   0.294  12.456  0.7068 -0.4420  0.0779
10676TIP3    H253520   3.783   0.413  12.473  1.1874  0.1585 -1.4062
10677TIP3   OH253521   6.601   6.810   1.578  0.3316  0.2954 -0.4988
10677TIP3    H153522   6.546   6.889   1.572 -1.0471 -0.3893  1.7807
10677TIP3    H253523   6.671   6.834   1.638  1.5190  0.5609 -1.9195
10678TIP3   OH253524   5.457   1.923  16.886  0.0299 -0.9303 -0.7857
10678TIP3    H153525   5.500   1.883  16.962  0.2219 -1.5094 -1.1968
10678TIP3    H253526   5.401   1.854  16.851 -2.6224  0.2911  0.7511
10679TIP3   OH253527   0.141   3.578   3.008  0.0562  0.6069  0.0364
10679TIP3    H153528   0.181   3.517   2.946  1.3013 -0.3940  1.7615
10679TIP3    H253529   0.198   3.576   3.085 -2.4119  0.3925  1.9800
10680TIP3   OH253530   5.269   0.460  11.052 -0.2526  0.5227  0.0505
10680TIP3    H153531   5.313   0.452  10.967 -1.9277  1.9908 -1.0133
10680TIP3    H253532   5.306   0.388  11.105 -0.0800 -1.2338 -2.2979
10681TIP3   OH253533   2.189   6.496   1.566  0.1449  0.0648 -0.6101
10681TIP3    H153534   2.121   6.549   1.524  1.8742  2.5444 -0.4666
10681TIP3    H253535   2.164   6.494   1.659 -0.1779  0.2555 -0.6921
10682TIP3   OH253536   6.311   4.436   2.309  0.0006  0.4008 -0.0599
10682TIP3    H153537   6.386   4.494   2.303 -2.0655  3.3770  0.7714
10682TIP3    H253538   6.320   4.392   2.394  0.1817  1.7052  0.6088
10683TIP3   OH253539   3.402   0.703   2.178  0.0214 -0.4073  1.1552
10683TIP3    H153540   3.332   0.648   2.211 -0.3013 -2.7040 -2.8135
10683TIP3    H253541   3.361   0.759   2.112  1.7802 -2.1832 -1.6798
10684TIP3   OH253542   3.541   3.856  14.874 -0.6060  0.7967 -0.2815
10684TIP3    H153543   3.481   3.837  14.801 -1.5297 -1.5384  0.9893
10684TIP3    H253544   3.486   3.854  14.952  1.0384 -1.4774  0.9456
10685TIP3   OH253545   0.484   5.785   3.339 -0.0017  0.5333 -0.4615
10685TIP3    H153546   0.546   5.799   3.411  1.1836 -0.5532 -1.2207
10685TIP3    H253547   0.439   5.869   3.330  0.8291  1.1276  0.6083
10686TIP3   OH253548   4.231   1.405  12.619  0.3127  0.2817 -0.2276
10686TIP3    H153549   4.188   1.436  12.698  1.4683  0.5478  0.3102
10686TIP3    H253550   4.162   1.406  12.552 -0.5639  0.4608  0.6675
10687TIP3   OH253551   1.588   2.835   1.933 -0.2239  0.2674  0.0041
10687TIP3    H153552   1.579   2.764   1.869 -1.4152  0.0530  0.4024
10687TIP3    H253553   1.634   2.794   2.007  2.3682  0.8357 -1.1709
10688TIP3   OH253554   5.708   6.523  11.639  0.0408  0.1377  0.0319
10688TIP3    H153555   5.659   6.454  11.684  0.5143 -0.4718 -0.3706
10688TIP3    H253556   5.656   6.601  11.651 -0.3453 -0.2227  0.7874
10689TIP3   OH253557   4.421   1.245   3.939  0.4540 -0.0476  0.3579
10689TIP3    H153558   4.419   1.176   3.872 -1.9351  0.5393 -0.2685
10689TIP3    H253559   4.513   1.252   3.963  1.0233 -2.1501 -0.9145
10690TIP3   OH253560   3.739   0.360   5.879  0.1935 -0.0319 -0.0869
10690TIP3    H153561   3.726   0.439   5.827 -0.0842  0.0062  0.0384
10690TIP3    H253562   3.803   0.386   5.946  0.5718 -0.0889 -0.4210
10691TIP3   OH253563   5.931   6.719   2.579 -0.3668  0.3056 -0.2605
10691TIP3    H153564   5.895   6.806   2.561 -2.5271 -0.1451  1.4355
10691TIP3    H253565   5.981   6.729   2.660 -1.7436 -0.2265  0.7030
10692TIP3   OH253566   5.225   0.086   4.795 -0.4139 -0.6053  0.1633
10692TIP3    H153567   5.266   0.015   4.746  0.0041  0.4985 -1.1220
10692TIP3    H253568   5.215   0.157   4.732 -0.2894  0.7032  1.5532
10693TIP3   OH253569   4.118   6.115  12.829  0.0326  0.4073 -0.3485
10693TIP3    H153570   4.170   6.039  12.803 -0.1849 -0.0561  0.5296
10693TIP3    H253571   4.060   6.082  12.898 -0.2059  1.3162 -0.1024
10694TIP3   OH253572   6.160   0.459  15.292 -0.0604 -0.5928 -0.6254
10694TIP3    H153573   6.141   0.372  15.257  1.2965 -1.1888  0.0496
10694TIP3    H253574   6.079   0.509  15.278 -1.1662 -2.2021 -0.2288
10695TIP3   OH253575   0.889   6.682  15.265 -0.4114 -0.6113 -0.1743
10695TIP3    H153576   0.968   6.728  15.292  0.4209 -1.6586 -0.7407
10695TIP3    H253577   0.888   6.690  15.169 -0.8167 -0.8744 -0.1969
10696TIP3   OH253578   6.379   6.051  13.705 -0.0556 -0.2040  0.4866
10696TIP3    H153579   6.354   6.138  13.671  1.7685 -0.2942 -1.2902
10696TIP3    H253580   6.340   5.990  13.643  0.6586 -0.5250  0.3433
10697TIP3   OH253581   0.156   3.022  13.588 -0.2325  0.1248 -0.1377
10697TIP3    H153582   0.206   2.997  13.666  0.7756  2.1925 -0.0532
10697TIP3    H253583   0.090   3.084  13.621 -2.3947 -1.9018 -0.3823
10698TIP3   OH253584   6.704   1.378   6.127  0.1913 -0.1779 -0.2037
10698TIP3    H153585   6.692   1.362   6.033  1.8650 -0.6235 -0.3770
10698TIP3    H253586   6.616   1.371   6.164 -0.4062 -0.6502 -1.6385
10699TIP3   OH253587   1.847   4.184  16.683 -0.0919 -0.2825  0.3141
10699TIP3    H153588   1.805   4.165  16.767 -1.5032  1.4884  0.0780
10699TIP3    H253589   1.780   4.231  16.633  0.7497 -1.1789 -1.7761
10700TIP3   OH253590   2.796   5.089   4.129  0.1093  0.4685  0.0891
10700TIP3    H153591   2.701   5.095   4.117  0.0172 -1.1860 -0.2462
10700TIP3    H253592   2.807   5.059   4.219  0.2586 -0.1026 -0.1122
10701TIP3   OH253593   4.788   4.430  16.335  0.3929 -0.5975 -0.3771
10701TIP3    H153594   4.849   4.496  16.303  1.5032 -0.9039  0.9979
10701TIP3    H253595   4.744   4.399  16.257  0.3818  1.2232 -1.1450
10702TIP3   OH253596   5.250   1.044   5.044  0.3037 -0.1367 -0.0063
10702TIP3    H153597   5.333   1.000   5.023  0.2967 -0.4827  0.6558
10702TIP3    H253598   5.275   1.116   5.101 -0.0134 -1.4738  1.9416
10703TIP3   OH253599   4.743   5.522  12.406  0.0278 -0.6180 -0.3179
10703TIP3    H153600   4.764   5.534  12.314  1.1353 -1.6618 -0.2276
10703TIP3    H253601   4.827   5.508  12.449 -0.4970 -0.4597  0.8045
10704TIP3   OH253602   1.760   2.085  11.393 -0.6954 -0.1075 -0.0187
10704TIP3    H153603   1.777   2.002  11.438  2.8730 -0.5119 -1.7327
10704TIP3    H253604   1.766   2.151  11.462  0.6768 -1.0005  0.7651
10705TIP3   OH253605   4.018   6.707   1.947 -0.5723  0.4787 -0.2519
10705TIP3    H153606   3.943   6.709   2.005 -2.1840  0.9130 -2.2225
10705TIP3    H253607   4.014   6.621   1.904 -0.5885  0.9047 -1.1340
10706TIP3   OH253608   2.128   2.619   3.322  0.2619 -0.5386 -0.2993
10706TIP3    H153609   2.205   2.596   3.270 -0.4538 -2.2844 -0.6382
10706TIP3    H253610   2.134   2.563   3.399  1.0754  1.7041  1.3744
10707TIP3   OH253611   3.258   3.693   3.311 -0.9489  0.7649 -0.0906
10707TIP3    H153612   3.177   3.644   3.302 -0.0800 -0.4961 -1.7455
10707TIP3    H253613   3.234   3.773   3.357 -3.0485  0.2806 -0.2723
10708TIP3   OH253614   0.760   3.796   2.039  0.4765  0.1734  0.3526
10708TIP3    H153615   0.844   3.806   2.083  1.9083 -0.5223 -2.0582
10708TIP3    H253616   0.765   3.711   1.996 -1.4973  0.1006  0.1605
10709TIP3   OH253617   1.151   4.432  14.203  0.0518  0.5780 -0.3921
10709TIP3    H153618   1.169   4.523  14.223  1.3119  0.0799  0.8482
10709TIP3    H253619   1.088   4.405  14.269 -0.5465  0.6044 -0.9355
10710TIP3   OH253620   3.638   5.412   3.053  0.1635 -0.4293 -0.8864
10710TIP3    H153621   3.631   5.331   3.105  1.0699  0.4441  0.6944
10710TIP3    H253622   3.550   5.449   3.056 -0.9618 -2.5285 -3.7864
10711TIP3   OH253623   6.696   3.710   3.674 -0.1006  0.5583 -0.4807
10711TIP3    H153624   6.607   3.724   3.707 -0.2835  0.0317 -0.7384
10711TIP3    H253625   6.696   3.618   3.645 -0.1741  1.1683 -2.5751
10712TIP3   OH253626   5.952   6.644  15.176 -0.0733 -0.0505  0.0235
10712TIP3    H153627   5.966   6.739  15.181 -1.8494  0.2967 -0.6602
10712TIP3    H253628   6.039   6.607  15.165  0.7455  1.4352  1.1072
10713TIP3   OH253629   6.692   5.851  14.186 -0.5114  0.2348  0.1792
10713TIP3    H153630   6.783   5.820  14.185 -0.1248  1.2672  1.0396
10713TIP3    H253631   6.693   5.928  14.129 -0.7515  0.4877  0.5151
10714TIP3   OH253632   5.560   3.768  11.250  0.1258  1.0248 -0.3950
10714TIP3    H153633   5.561   3.692  11.193  2.1074  1.2288 -0.6965
10714TIP3    H253634   5.583   3.734  11.337  0.0627  1.1417 -0.3321
10715TIP3   OH253635   2.197   3.692   0.576 -0.5191  0.2822 -0.1989
10715TIP3    H153636   2.120   3.747   0.594 -0.6702 -0.2037  0.7121
10715TIP3    H253637   2.243   3.737   0.506 -0.9998  1.2141  0.0692
10716TIP3   OH253638   5.485   2.279  13.789 -0.2996 -0.1945 -0.6870
10716TIP3    H153639   5.451   2.253  13.703 -0.5087 -1.0155 -0.3649
10716TIP3    H253640   5.453   2.368  13.801 -1.3598 -0.5325 -0.9062
10717TIP3   OH253641   1.070   1.321   0.377  0.1243  0.0893 -0.0660
10717TIP3    H153642   1.045   1.229   0.390  1.3251 -0.3402 -0.6033
10717TIP3    H253643   1.164   1.322   0.396 -0.2173  1.6161  1.8667
10718TIP3   OH253644   3.339   4.747  11.692  0.6182  0.4024 -0.4543
10718TIP3    H153645   3.251   4.715  11.670  1.2027 -0.2984 -1.8674
10718TIP3    H253646   3.326   4.800  11.771 -1.3385  1.7725 -1.6267
10719TIP3   OH253647   4.233   5.265  11.788  0.2766 -0.2290 -0.6551
10719TIP3    H153648   4.284   5.222  11.719  0.9096  0.7652 -0.8232
10719TIP3    H253649   4.295   5.276  11.860 -0.2674 -0.8667 -0.0719
10720TIP3   OH253650   5.784   2.116  15.428 -0.4355  0.2312 -0.4996
10720TIP3    H153651   5.825   2.032  15.404 -0.4353  0.5811 -1.7906
10720TIP3    H253652   5.758   2.154  15.345 -0.5235  1.4852  0.0900
10721TIP3   OH253653   3.509   4.710   3.051  0.3881 -0.3729  0.2957
10721TIP3    H153654   3.503   4.772   2.978 -1.6139 -0.3363  0.4622
10721TIP3    H253655   3.569   4.642   3.019  1.5099  0.8947 -0.4157
10722TIP3   OH253656   2.792   1.757  14.547 -0.8280  0.5332 -0.1823
10722TIP3    H153657   2.841   1.676  14.556  0.1116  1.1340  0.2723
10722TIP3    H253658   2.776   1.785  14.638 -2.4678  0.0967 -0.3005
10723TIP3   OH253659   2.756   3.357   3.224  0.5784 -0.2338 -0.2389
10723TIP3    H153660   2.771   3.273   3.179  2.7735 -0.0059 -0.0240
10723TIP3    H253661   2.743   3.420   3.153  1.1027 -0.3815 -0.4690
10724TIP3   OH253662   6.699   3.093  14.265  0.3447 -0.5821  0.5466
10724TIP3    H153663   6.621   3.125  14.219  0.8954  0.6509  0.4356
10724TIP3    H253664   6.767   3.156  14.243  1.1548 -1.1579  1.3553
10725TIP3   OH253665   2.454   4.564  12.238 -0.1641 -0.1143 -0.7670
10725TIP3    H153666   2.471   4.508  12.313 -0.1495  0.7021 -0.1552
10725TIP3    H253667   2.456   4.504  12.163  1.8278 -0.6279 -0.3545
10726TIP3   OH253668   5.768   3.473  16.002 -0.3245 -0.3312  0.7115
10726TIP3    H153669   5.817   3.393  15.983 -0.4254 -0.0852 -0.7008
10726TIP3    H253670   5.677   3.445  16.008 -0.4314 -0.2573 -0.3750
10727TIP3   OH253671   5.518   2.343   2.124 -0.2538  0.2289  0.7533
10727TIP3    H153672   5.434   2.385   2.140  0.0768  0.6163  1.5449
10727TIP3    H253673   5.497   2.250   2.114 -0.7093  0.2112  1.6946
10728TIP3   OH253674   3.280   6.320   0.201  0.3751  0.0266 -0.3347
10728TIP3    H153675   3.217   6.301   0.132 -1.4605 -1.8666  1.6866
10728TIP3    H253676   3.242   6.394   0.249 -0.2251 -0.9040  0.6860
10729TIP3   OH253677   1.899   1.737   0.202  0.1571  0.4928 -0.1764
10729TIP3    H153678   1.861   1.703   0.283 -0.6327  1.4495 -0.1325
10729TIP3    H253679   1.985   1.695   0.197 -0.8655 -1.7343 -0.2835
10730TIP3   OH253680   2.835   5.172  11.930 -0.2072 -0.3971  0.0826
10730TIP3    H153681   2.790   5.143  12.010 -0.1868  0.8492  0.5734
10730TIP3    H253682   2.766   5.182  11.865 -0.2588 -1.1777  0.0146
10731TIP3   OH253683   1.242   6.248  15.590  0.1472 -0.5506 -0.3107
10731TIP3    H153684   1.239   6.334  15.630  2.0626  0.0603 -1.3574
10731TIP3    H253685   1.150   6.227  15.572 -0.4579  0.6449  1.1756
10732TIP3   OH253686   0.255   0.008  11.724 -0.7339 -0.8049 -0.2055
10732TIP3    H153687   0.271   0.102  11.723 -0.0581 -0.9026  0.6229
10732TIP3    H253688   0.295  -0.023  11.642 -1.8062 -0.2611 -0.9647
10733TIP3   OH253689   1.278   4.563   0.182  0.4296  0.2912  0.7887
10733TIP3    H153690   1.369   4.553   0.153  1.1721  2.7525  2.0010
10733TIP3    H253691   1.282   4.556   0.277 -1.1313 -2.2949  0.7341
10734TIP3   OH253692   2.822   5.584  15.086 -0.1744  0.1626  0.1043
10734TIP3    H153693   2.891   5.650  15.080 -0.6173  0.4724 -2.7666
10734TIP3    H253694   2.769   5.611  15.161  1.0842  1.6163  0.5132
10735TIP3   OH253695   4.967   4.742   2.911 -0.2410  0.3505  0.3571
10735TIP3    H153696   4.942   4.669   2.968 -0.4677 -0.2673 -0.5106
10735TIP3    H253697   4.932   4.820   2.954 -1.9512 -0.2865  0.1632
10736TIP3   OH253698   2.972   6.000  12.920  0.2262  0.1669  0.3725
10736TIP3    H153699   3.002   5.992  13.011  0.4004 -0.6441  0.2574
10736TIP3    H253700   2.999   6.087  12.893  2.4660 -0.4977  0.2783
10737TIP3   OH253701   0.177   4.994   0.405  0.3885  0.2943  0.0226
10737TIP3    H153702   0.105   5.053   0.423 -1.0995 -0.9828 -1.4286
10737TIP3    H253703   0.175   4.931   0.477  1.0931  1.1400  0.8162
10738TIP3   OH253704   6.042   5.077   4.144 -0.1462  0.1211 -0.1998
10738TIP3    H153705   5.966   5.032   4.182 -1.6760  1.1754 -1.8107
10738TIP3    H253706   6.102   5.008   4.119 -0.6978 -0.7670  0.8517
10739TIP3   OH253707   5.719   3.537  14.202 -0.3056 -0.2364  0.3592
10739TIP3    H153708   5.652   3.586  14.249 -0.0147 -0.6640  1.2526
10739TIP3    H253709   5.785   3.517  14.268  0.1507 -0.8053 -0.2491
10740TIP3   OH253710   0.550   6.477   5.773  0.2157 -0.5532 -0.0703
10740TIP3    H153711   0.471   6.472   5.827  1.0956  2.9716  1.8719
10740TIP3    H253712   0.607   6.538   5.820  2.3473  0.3951 -3.5440
10741TIP3   OH253713   6.227   5.426   1.597  1.0718 -0.2220  0.0780
10741TIP3    H153714   6.284   5.406   1.522  0.0075  2.2650 -1.5133
10741TIP3    H253715   6.260   5.508   1.632 -0.4167  0.3331  0.2551
10742TIP3   OH253716   6.461   3.102   6.051  0.2235 -0.5412  0.2854
10742TIP3    H153717   6.450   3.116   6.146 -0.6813  0.1062  0.0966
10742TIP3    H253718   6.385   3.050   6.026  0.1579 -0.2186 -0.1872
10743TIP3   OH253719   1.730   3.058  13.455 -0.5941 -0.1207  0.0426
10743TIP3    H153720   1.674   3.133  13.434 -0.1227  0.0565 -0.6261
10743TIP3    H253721   1.808   3.097  13.496  0.4680 -0.0421 -1.9360
10744TIP3   OH253722   1.008   2.149  12.402  0.1743 -0.4456  0.0729
10744TIP3    H153723   1.006   2.214  12.331  1.1638  0.0227  0.4588
10744TIP3    H253724   1.042   2.197  12.477  0.0400 -1.1873  0.6114
10745TIP3   OH253725   3.825   0.503   4.070  0.4358  0.5084 -0.5633
10745TIP3    H153726   3.749   0.552   4.103 -2.1511 -3.1337 -0.4792
10745TIP3    H253727   3.862   0.461   4.148  0.4986 -0.2565 -0.9894
10746TIP3   OH253728   6.547   3.600  11.852 -0.6632  0.0493 -0.2919
10746TIP3    H153729   6.546   3.626  11.945  0.8545  3.2047 -1.0248
10746TIP3    H253730   6.476   3.650  11.812 -1.1692 -1.1333 -0.9309
10747TIP3   OH253731   5.003   3.649  14.539 -0.2185 -0.8239 -0.5494
10747TIP3    H153732   4.928   3.696  14.502  0.3043 -0.0246 -0.6038
10747TIP3    H253733   5.051   3.617  14.462  0.5138  0.2804 -0.5652
10748TIP3   OH253734   3.571   3.642   2.139 -0.5114  0.5880 -0.1876
10748TIP3    H153735   3.517   3.696   2.197  0.5642  0.7566  0.6945
10748TIP3    H253736   3.652   3.627   2.189 -0.2658 -0.7510 -0.9408
10749TIP3   OH253737   6.454   3.832   3.326 -0.5280  0.1493  0.6447
10749TIP3    H153738   6.438   3.742   3.297  1.4895  0.3811 -1.4659
10749TIP3    H253739   6.420   3.886   3.255  0.0684  0.9787  0.9873
10750TIP3   OH253740   1.411   6.303   3.216 -0.1043  0.4897  0.2648
10750TIP3    H153741   1.436   6.211   3.205 -0.6426  0.4759 -1.0066
10750TIP3    H253742   1.321   6.300   3.249 -0.5151  0.5457 -0.8139
10751TIP3   OH253743   1.194   3.111  15.547  0.5007 -0.1018  0.8668
10751TIP3    H153744   1.269   3.069  15.587 -0.2039 -2.3351 -0.0336
10751TIP3    H253745   1.119   3.059  15.575 -0.4686  0.8042  0.0413
10752TIP3   OH253746   5.920   1.357   4.226 -0.6000 -0.4664  0.6560
10752TIP3    H153747   5.902   1.443   4.262 -0.4693  0.4222 -1.2684
10752TIP3    H253748   5.986   1.319   4.284  1.4994  1.9054 -0.0093
10753TIP3   OH253749   4.768   3.951   0.635  0.3336  0.7916 -0.5948
10753TIP3    H153750   4.843   3.893   0.621  0.3045  0.1378  1.6630
10753TIP3    H253751   4.803   4.039   0.618  1.6376  0.4960  0.3635
10754TIP3   OH253752   1.382   5.533   3.149 -0.1844  0.3779 -0.0796
10754TIP3    H153753   1.459   5.489   3.187 -0.8199 -0.4403  0.3098
10754TIP3    H253754   1.310   5.510   3.208 -0.8125  0.7915 -0.6635
10755TIP3   OH253755   6.224   0.276  15.828  0.3595  0.4907 -0.0482
10755TIP3    H153756   6.231   0.330  15.907  0.5173 -1.0394  1.0180
10755TIP3    H253757   6.254   0.333  15.757  1.0047  1.6328  1.1090
10756TIP3   OH253758   5.980   5.460  15.437  0.3045  0.1577  0.7790
10756TIP3    H153759   6.036   5.389  15.468  1.0640  1.3389  2.2116
10756TIP3    H253760   6.039   5.534  15.426 -0.7966  1.1620  1.3700
10757TIP3   OH253761   5.151   5.730   1.911 -0.2500 -0.5230 -0.2488
10757TIP3    H153762   5.067   5.775   1.911  0.5464  1.1645  2.0976
10757TIP3    H253763   5.210   5.787   1.862 -0.0268 -0.7070 -0.2000
10758TIP3   OH253764   2.398   1.489   2.754  0.1700 -0.6487  0.3819
10758TIP3    H153765   2.368   1.413   2.704 -0.5768  1.0488 -1.8979
10758TIP3    H253766   2.481   1.514   2.713  0.5205 -0.3241  1.2542
10759TIP3   OH253767   1.186   4.461  12.861 -0.1010 -0.3026 -0.2555
10759TIP3    H153768   1.143   4.378  12.884  0.1492 -0.8907 -1.8049
10759TIP3    H253769   1.278   4.448  12.883 -0.1420 -0.2540 -0.0515
10760TIP3   OH253770   2.136   2.286  12.649 -0.2993  0.4596 -0.1771
10760TIP3    H153771   2.085   2.329  12.717 -2.9396 -0.2654 -1.5514
10760TIP3    H253772   2.218   2.336  12.643 -1.3397  2.4363  1.3302
10761TIP3   OH253773   4.628   0.704   5.813 -0.4130 -0.3147  0.2016
10761TIP3    H153774   4.644   0.782   5.761  0.6363 -0.8686 -0.3472
10761TIP3    H253775   4.710   0.654   5.806 -0.8115 -1.1219  1.1184
10762TIP3   OH253776   5.201   3.789  14.969  0.2996  0.6022  0.0537
10762TIP3    H153777   5.140   3.855  14.935 -0.6296 -0.3077 -0.1063
10762TIP3    H253778   5.195   3.797  15.064 -2.2273 -1.2871  0.1652
10763TIP3   OH253779   2.635   2.534   5.024 -1.0066 -0.1262  0.9988
10763TIP3    H153780   2.710   2.591   5.008  1.6631 -2.5663  3.6123
10763TIP3    H253781   2.571   2.590   5.066  0.3110  1.5486  0.8829
10764TIP3   OH253782   1.372   2.159  11.047  0.0034  0.1375  1.1040
10764TIP3    H153783   1.337   2.177  10.959 -0.4898 -1.2469  1.0081
10764TIP3    H253784   1.430   2.234  11.064  1.4135 -0.3393 -1.0969
10765TIP3   OH253785   3.631   5.742   0.519  0.5176  0.1508  0.6141
10765TIP3    H153786   3.573   5.708   0.451  1.6725  0.7477 -0.7173
10765TIP3    H253787   3.716   5.702   0.500  0.8637  0.3475  1.6986
10766TIP3   OH253788   0.683   6.651  14.522  0.2451 -0.4572 -0.1257
10766TIP3    H153789   0.662   6.742  14.544 -1.3476 -0.3325 -1.9181
10766TIP3    H253790   0.765   6.633  14.568 -0.3943  1.2511  1.8428
10767TIP3   OH253791   3.824   0.793  11.636  0.3139  0.1771 -0.1116
10767TIP3    H153792   3.904   0.760  11.595 -0.1419 -1.1827  0.0691
10767TIP3    H253793   3.754   0.737  11.603 -0.2859  0.0287  1.3298
10768TIP3   OH253794   0.918   6.483   2.342  0.6900  0.3897 -0.1040
10768TIP3    H153795   1.000   6.469   2.295  0.0522  1.2461 -1.5628
10768TIP3    H253796   0.891   6.571   2.317 -0.5704  0.1943  0.4909
10769TIP3   OH253797   1.143   1.355   2.759 -0.2290 -0.5956 -0.0051
10769TIP3    H153798   1.199   1.429   2.783 -0.9212 -0.2724  0.6793
10769TIP3    H253799   1.081   1.349   2.831 -1.1721 -0.8445 -0.8184
10770TIP3   OH253800   4.778   0.102  14.209  0.1251 -0.1774  0.3057
10770TIP3    H153801   4.836   0.176  14.195 -0.6815  0.7814  1.8322
10770TIP3    H253802   4.695   0.129  14.171  0.1016 -0.7484 -0.0775
10771TIP3   OH253803   3.457   0.360   5.882 -0.3440  0.6765  0.0160
10771TIP3    H153804   3.422   0.279   5.920 -0.4563  0.3646 -0.7233
10771TIP3    H253805   3.551   0.344   5.876 -0.6227 -0.5359 -2.6247
10772TIP3   OH253806   4.222   1.830  11.176  0.9645 -0.4749  0.0741
10772TIP3    H153807   4.217   1.735  11.180  0.9007 -0.4994 -0.5033
10772TIP3    H253808   4.280   1.848  11.101  0.7614 -0.0582  0.0154
10773TIP3   OH253809   5.100   2.764  14.778 -0.6705 -0.2207  0.3323
10773TIP3    H153810   5.147   2.821  14.717 -2.6764  0.6094 -0.5045
10773TIP3    H253811   5.031   2.819  14.815 -2.7452 -2.0584 -0.5473
10774TIP3   OH253812   4.460   6.639  11.782  0.0358  0.0290  0.2997
10774TIP3    H153813   4.446   6.667  11.873 -1.3668  0.0109  0.1183
10774TIP3    H253814   4.416   6.707  11.730 -3.0394 -2.1013 -0.1695
10775TIP3   OH253815   3.775   1.848   0.923 -0.6085  0.0242  0.4011
10775TIP3    H153816   3.863   1.820   0.897  0.0073  1.7298  0.5642
10775TIP3    H253817   3.727   1.766   0.932  1.1909 -1.0305  1.1456
10776TIP3   OH253818   5.686   3.129   4.070  0.1323 -0.4245 -0.1543
10776TIP3    H153819   5.634   3.069   4.016 -0.3459 -0.6530  0.5497
10776TIP3    H253820   5.647   3.215   4.052 -0.4114 -0.5771  0.2691
10777TIP3   OH253821   1.474   3.075  10.950  0.2241 -0.0613 -0.5596
10777TIP3    H153822   1.517   3.073  10.865  0.2046  1.8772 -0.6677
10777TIP3    H253823   1.536   3.121  11.007 -0.7292  0.7474 -0.1401
10778TIP3   OH253824   5.734   6.807  12.190  0.3682 -0.2329  0.1365
10778TIP3    H153825   5.738   6.842  12.279  2.5198  2.1383 -0.7777
10778TIP3    H253826   5.770   6.719  12.197  0.6446 -0.0275  1.5919
10779TIP3   OH253827   3.973   2.731   4.922 -0.0927  0.4534  0.5151
10779TIP3    H153828   4.010   2.673   4.989 -0.4091  1.7227  1.8518
10779TIP3    H253829   3.885   2.751   4.954 -0.9594 -0.3504 -1.2336
10780TIP3   OH253830   2.830   4.405   2.141  0.3851  0.3597  0.5335
10780TIP3    H153831   2.764   4.359   2.089  0.8363 -3.0821  2.6424
10780TIP3    H253832   2.906   4.410   2.083 -0.5295  0.9494 -0.6675
10781TIP3   OH253833   1.093   0.707   4.420 -0.5232  0.4099 -0.0240
10781TIP3    H153834   1.056   0.753   4.345 -0.5878 -0.8077 -0.7601
10781TIP3    H253835   1.187   0.702   4.403 -0.4899  0.4328  0.1461
10782TIP3   OH253836   4.923   4.308  11.190 -0.1769 -0.5778  0.1479
10782TIP3    H153837   4.910   4.225  11.236 -0.7299 -0.3456  0.4061
10782TIP3    H253838   4.964   4.365  11.255  0.3338 -0.6884 -0.0734
10783TIP3   OH253839   1.639   2.693   0.504  0.0270 -0.4971  0.2272
10783TIP3    H153840   1.708   2.717   0.566 -0.0919  0.1614  0.1132
10783TIP3    H253841   1.618   2.602   0.526 -1.3671  0.2610  2.4914
10784TIP3   OH253842   1.273   4.551   1.407 -0.2837  0.3528 -0.4147
10784TIP3    H153843   1.215   4.536   1.332  2.3616  0.5591 -2.6739
10784TIP3    H253844   1.269   4.646   1.421  0.4704  0.5503 -1.4408
10785TIP3   OH253845   5.885   1.086   4.518 -0.4592  0.1187 -0.3429
10785TIP3    H153846   5.964   1.118   4.474 -1.1952  1.1427 -0.9894
10785TIP3    H253847   5.889   1.124   4.606 -0.9026  1.3652 -0.8343
10786TIP3   OH253848   1.860   6.745  13.045 -0.0129  0.0829 -0.1889
10786TIP3    H153849   1.930   6.682  13.027 -0.2624  0.2865 -2.0105
10786TIP3    H253850   1.838   6.730  13.137  1.3336 -1.0653 -0.0162
10787TIP3   OH253851   3.785   6.555  15.395 -0.0493  0.0010 -0.0564
10787TIP3    H153852   3.824   6.470  15.411  0.8234  0.2544 -0.7860
10787TIP3    H253853   3.754   6.552  15.304 -1.7752 -0.1966  0.4933
10788TIP3   OH253854   3.905   2.670  15.069 -0.1674  0.3177  0.2713
10788TIP3    H153855   3.825   2.703  15.108 -1.1471  0.7733 -1.9375
10788TIP3    H253856   3.947   2.747  15.032  1.5177  0.1382  1.7146
10789TIP3   OH253857   4.419   1.157   3.357  0.2603 -0.4848  0.2311
10789TIP3    H153858   4.463   1.120   3.280  0.4732 -0.5473  0.3828
10789TIP3    H253859   4.407   1.249   3.336  2.5126  0.0575  1.1073
10790TIP3   OH253860   5.873   2.416  14.501  0.3064  0.1551  0.6085
10790TIP3    H153861   5.832   2.351  14.559 -2.7252 -0.4899 -1.9692
10790TIP3    H253862   5.823   2.496  14.517 -0.6825 -0.0720 -1.1067
10791TIP3   OH253863   0.415   0.014  16.769  0.3496  0.3419 -0.0323
10791TIP3    H153864   0.450  -0.069  16.737  1.7370  1.0841 -0.5349
10791TIP3    H253865   0.354   0.042  16.700  1.6800  0.8656 -1.0467
10792TIP3   OH253866   0.004   5.933  13.618 -0.8478  0.0688 -0.0156
10792TIP3    H153867  -0.009   5.852  13.667  1.9369 -1.1412 -1.0443
10792TIP3    H253868   0.099   5.945  13.617 -1.0884  2.4730 -1.3178
10793TIP3   OH253869   1.144   6.422   3.940 -0.1264 -0.2006 -0.3496
10793TIP3    H153870   1.130   6.335   3.978 -0.6883 -0.0289 -0.1430
10793TIP3    H253871   1.236   6.424   3.917 -0.1994 -1.0095 -0.7431
10794TIP3   OH253872   6.725   5.176   1.759  0.2536 -0.8175 -0.0358
10794TIP3    H153873   6.697   5.263   1.731  0.4757 -0.6732  0.1812
10794TIP3    H253874   6.799   5.193   1.817 -1.7181 -0.9557  2.6889
10795TIP3   OH253875   5.498   2.181  16.349 -0.1937 -0.2730  0.7073
10795TIP3    H153876   5.468   2.231  16.424  1.4346  0.9953  0.5538
10795TIP3    H253877   5.499   2.244  16.277  0.6805 -0.8380  0.2117
10796TIP3   OH253878   0.027   1.818  14.971  0.3305 -0.5645  0.3115
10796TIP3    H153879  -0.006   1.849  14.886  0.1914 -0.7137  0.3110
10796TIP3    H253880   0.085   1.745  14.950  2.1193  0.8205  0.1616
10797TIP3   OH253881   3.223   5.053  14.240  0.2616 -0.2135 -0.7367
10797TIP3    H153882   3.179   5.051  14.155 -0.5993  0.0527 -0.3108
10797TIP3    H253883   3.203   5.140  14.275 -0.2834 -0.6968  0.1899
10798TIP3   OH253884   1.258   5.280  14.371 -0.5718  0.2797 -0.2553
10798TIP3    H153885   1.248   5.192  14.406 -0.6227  0.5805  0.5008
10798TIP3    H253886   1.341   5.312  14.406 -0.2376  0.3005 -1.0475
10799TIP3   OH253887   0.473   3.461  13.125 -0.4286 -0.5702 -0.1227
10799TIP3    H153888   0.529   3.402  13.175  0.3965  0.3109  0.0377
10799TIP3    H253889   0.475   3.543  13.174  0.6227  0.4072 -1.6845
10800TIP3   OH253890   2.116   5.084  11.361  0.3067 -0.1487  0.1159
10800TIP3    H153891   2.088   5.175  11.354 -0.9133 -0.3499  1.7707
10800TIP3    H253892   2.150   5.062  11.274 -1.8159  1.0770 -1.0902
10801TIP3   OH253893   4.114   1.934  12.539 -0.1430 -0.3133  0.3257
10801TIP3    H153894   4.025   1.922  12.570  0.3256  0.3969  2.1138
10801TIP3    H253895   4.155   1.989  12.606  0.6512  2.4111 -2.2038
10802TIP3   OH253896   1.552   2.396  14.800 -0.1579 -0.3258 -0.1435
10802TIP3    H153897   1.550   2.481  14.845 -1.2052 -0.7981  0.7726
10802TIP3    H253898   1.607   2.341  14.856 -2.2981 -1.2177  1.2504
10803TIP3   OH253899   2.430   6.189  12.910  0.0925 -0.3504 -0.2537
10803TIP3    H153900   2.523   6.209  12.920  0.1885 -0.8214 -0.2202
10803TIP3    H253901   2.408   6.136  12.986 -0.2586 -0.0625 -0.1503
10804TIP3   OH253902   4.553   3.695  15.294  0.0802  0.0965  0.1417
10804TIP3    H153903   4.639   3.736  15.289  0.7790 -1.2666  0.4856
10804TIP3    H253904   4.526   3.707  15.385  0.6533 -0.8602  0.4606
10805TIP3   OH253905   3.324   2.822   2.589  0.4637 -0.2991 -0.6097
10805TIP3    H153906   3.244   2.852   2.631  0.3951 -2.3883  0.8711
10805TIP3    H253907   3.297   2.800   2.500 -0.7657 -1.4647  0.0120
10806TIP3   OH253908   4.956   3.062  16.192 -0.0575  0.0214  0.0813
10806TIP3    H153909   4.897   3.024  16.256  0.3497 -0.4359  0.1850
10806TIP3    H253910   4.930   3.022  16.109 -1.4418  1.5543 -0.2965
10807TIP3   OH253911   4.962   4.468   2.548 -0.2208  0.7971  0.1973
10807TIP3    H153912   4.990   4.426   2.630  0.6844  0.4122 -0.2926
10807TIP3    H253913   5.015   4.547   2.542  1.9820 -0.6547 -1.4497
10808TIP3   OH253914   4.467   2.670  17.124 -0.3534  0.6448 -0.4237
10808TIP3    H153915   4.539   2.619  17.159  0.3023  1.4116 -0.6139
10808TIP3    H253916   4.414   2.607  17.075 -0.9817 -0.3390  1.4442
10809TIP3   OH253917   3.522   3.810   3.372  0.2286  0.3974 -0.0663
10809TIP3    H153918   3.484   3.858   3.298  0.1084 -2.2644 -1.8643
10809TIP3    H253919   3.447   3.787   3.426  0.1717  1.3389  0.2659
10810TIP3   OH253920   2.569   2.452   0.749 -0.0123 -0.1330 -1.1148
10810TIP3    H153921   2.657   2.458   0.710 -0.2270 -1.8200 -1.9538
10810TIP3    H253922   2.533   2.540   0.739  0.9675  0.1678 -2.2861
10811TIP3   OH253923   2.048   0.288   4.905  0.3730  0.2542  0.2260
10811TIP3    H153924   2.019   0.372   4.940  1.8940  0.3307  1.4027
10811TIP3    H253925   1.981   0.226   4.933 -1.7623  1.2593 -2.2041
10812TIP3   OH253926   1.779   1.714  15.951 -0.2523 -0.6345 -0.2966
10812TIP3    H153927   1.703   1.704  15.894  0.4040 -2.0179 -0.9897
10812TIP3    H253928   1.852   1.681  15.898  1.0992  1.9044 -0.1698
10813TIP3   OH253929   0.592   1.717  16.613  0.6489  0.0265  0.1520
10813TIP3    H153930   0.651   1.699  16.540 -0.3249 -1.7652 -0.2295
10813TIP3    H253931   0.650   1.723  16.690  1.3495 -1.8350 -0.1867
10814TIP3   OH253932   3.615   3.779   3.675 -0.1449  0.1748  0.1543
10814TIP3    H153933   3.539   3.823   3.636 -0.4438 -1.3330 -1.0665
10814TIP3    H253934   3.579   3.699   3.715  0.5978  0.1808  0.8703
10815TIP3   OH253935   0.412   1.713  12.418  0.2840 -0.5104  0.2281
10815TIP3    H153936   0.324   1.747  12.436 -0.3484 -3.1149  2.7310
10815TIP3    H253937   0.406   1.678  12.329 -0.9361  0.1006  0.0423
10816TIP3   OH253938   3.533   0.457   0.752 -0.2798 -0.2809  0.6440
10816TIP3    H153939   3.540   0.549   0.724 -0.3548 -1.0903 -2.3835
10816TIP3    H253940   3.602   0.412   0.702  0.1335 -1.8184  2.5132
10817TIP3   OH253941   3.004   3.448  13.806 -0.2789 -0.7602  0.0925
10817TIP3    H153942   2.949   3.402  13.870 -2.3952  1.4824  0.0548
10817TIP3    H253943   2.945   3.467  13.733  0.9180  0.5223 -0.6030
10818TIP3   OH253944   3.960   3.953  16.264  0.2393  0.3648  0.0711
10818TIP3    H153945   3.928   3.949  16.354  0.9699 -0.5156  0.3107
10818TIP3    H253946   4.054   3.939  16.272  0.1899 -0.6349 -0.8956
10819TIP3   OH253947   4.529   5.576  13.448 -0.1960 -0.3044 -0.2255
10819TIP3    H153948   4.516   5.671  13.456 -0.7754 -0.2792 -1.3421
10819TIP3    H253949   4.508   5.556  13.357 -1.2539 -1.6930  0.2867
10820TIP3   OH253950   3.986   0.906   4.461  0.6096  0.2450  0.4917
10820TIP3    H153951   3.956   0.997   4.454  0.9163  0.3105 -0.0372
10820TIP3    H253952   3.962   0.866   4.377  0.6075 -0.1219  0.6650
10821TIP3   OH253953   1.613   1.469   6.122  0.2977 -0.7883  0.4812
10821TIP3    H153954   1.544   1.515   6.170  0.7067 -0.8221  1.1105
10821TIP3    H253955   1.663   1.540   6.080  1.5733 -0.5458  2.3166
10822TIP3   OH253956   3.711   2.783   2.228  0.4494 -0.0472 -0.3150
10822TIP3    H153957   3.643   2.719   2.204 -0.0986 -0.4014  1.8917
10822TIP3    H253958   3.792   2.748   2.192 -0.5316  0.6263 -3.4390
10823TIP3   OH253959   6.376   5.705  13.379 -0.0660  0.0509  0.2022
10823TIP3    H153960   6.465   5.680  13.352 -0.5507  0.2122 -1.7159
10823TIP3    H253961   6.352   5.641  13.445  1.6695  0.3282  1.1729
10824TIP3   OH253962   2.401   2.076  14.528 -0.2746 -0.1652  0.2042
10824TIP3    H153963   2.419   2.000  14.583 -0.7225 -0.5284 -0.1443
10824TIP3    H253964   2.341   2.043  14.461  1.2392 -0.0668 -1.2782
10825TIP3   OH253965   2.463   2.244   2.590  0.4456 -0.1960  0.0990
10825TIP3    H153966   2.455   2.230   2.496  0.2085  2.6273 -0.3979
10825TIP3    H253967   2.377   2.276   2.617  1.4029  2.2760  0.5315
10826TIP3   OH253968   6.782   6.577   3.422 -0.1432 -0.2161  1.2312
10826TIP3    H153969   6.789   6.501   3.480  0.0923 -1.0259  0.1861
10826TIP3    H253970   6.872   6.592   3.391 -0.4214 -0.4673  0.2674
10827TIP3   OH253971   4.862   5.597   4.390  0.4028  0.3527 -0.0902
10827TIP3    H153972   4.783   5.552   4.360  0.5090  0.0699  0.0513
10827TIP3    H253973   4.928   5.528   4.398  0.1210  0.2360  1.7081
10828TIP3   OH253974   0.223   3.626   4.975 -0.0728  0.1821 -0.6120
10828TIP3    H153975   0.214   3.706   4.925  1.5039  0.7585 -0.0365
10828TIP3    H253976   0.318   3.617   4.990 -0.3553 -0.8425  0.8209
10829TIP3   OH253977   3.976   1.186   1.070 -0.4130 -0.2812 -0.1480
10829TIP3    H153978   4.062   1.197   1.029 -0.0295  1.6498  1.0113
10829TIP3    H253979   3.988   1.114   1.132 -0.6185 -2.2914 -2.3319
10830TIP3   OH253980   0.144   0.898  11.446 -0.2334  0.1704 -0.0163
10830TIP3    H153981   0.118   0.956  11.375  1.2549  1.0406  0.1060
10830TIP3    H253982   0.102   0.814  11.426 -0.2666  0.5492 -1.6313
10831TIP3   OH253983   0.656   1.516  17.136 -0.2124  0.7919  0.8667
10831TIP3    H153984   0.612   1.595  17.105  1.1178  1.3022  0.1956
10831TIP3    H253985   0.741   1.547  17.167  0.3299 -0.3759  0.5882
10832TIP3   OH253986   5.583   4.395   3.480  0.3036  0.7167  0.6015
10832TIP3    H153987   5.535   4.318   3.450 -0.7716  1.6021 -0.0133
10832TIP3    H253988   5.655   4.359   3.532 -1.1162 -0.6442  1.7158
10833TIP3   OH253989   4.388   0.465   4.719 -0.0048 -0.7181  0.1927
10833TIP3    H153990   4.317   0.498   4.775 -0.9906  0.5265 -1.6910
10833TIP3    H253991   4.468   0.490   4.766 -0.7721 -0.7984  1.6225
10834TIP3   OH253992   4.633   5.054  14.172 -1.0243  0.2940 -0.1391
10834TIP3    H153993   4.560   4.992  14.170 -1.1391  0.4369 -2.0569
10834TIP3    H253994   4.657   5.066  14.080  1.4151  0.2685  0.4140
10835TIP3   OH253995   2.070   5.619  15.810 -0.2022 -0.3560  0.7040
10835TIP3    H153996   1.978   5.645  15.811 -0.3621 -0.9015  1.3221
10835TIP3    H253997   2.109   5.669  15.738 -1.0403 -0.3187  0.2615
10836TIP3   OH253998   1.623   3.660  11.507 -0.2674 -0.2028 -0.5741
10836TIP3    H153999   1.691   3.697  11.452  0.7076  0.1514  0.8099
10836TIP3    H254000   1.613   3.722  11.579 -1.3842 -0.7220 -0.2502
10837TIP3   OH254001   4.465   3.064  11.683  0.2702 -0.1574 -0.2855
10837TIP3    H154002   4.560   3.066  11.684  0.3489 -1.5484 -1.6581
10837TIP3    H254003   4.439   3.153  11.704  1.8317 -0.0901  1.6148
10838TIP3   OH254004   5.272   1.972  11.941  0.0578  0.4454  0.0686
10838TIP3    H154005   5.302   1.882  11.956 -0.0153  0.3142 -0.5307
10838TIP3    H254006   5.185   1.961  11.902 -0.0963  0.7870  0.3133
10839TIP3   OH254007   2.078   1.560  13.708 -0.1379 -0.1365 -0.5813
10839TIP3    H154008   2.116   1.514  13.633  1.9094  1.5692 -0.6647
10839TIP3    H254009   2.152   1.595  13.756 -1.5182  1.3102  0.6304
10840TIP3   OH254010   3.567   4.746   1.737  0.4781  0.2666 -0.4373
10840TIP3    H154011   3.574   4.840   1.755 -1.1476  0.2818  0.2401
10840TIP3    H254012   3.492   4.738   1.680  0.8131 -0.6067 -0.7670
10841TIP3   OH254013   3.107   6.177   1.208  0.4860 -0.0755 -0.1147
10841TIP3    H154014   3.155   6.255   1.235 -0.5589  0.1175  1.2396
10841TIP3    H254015   3.174   6.108   1.204  1.2935  0.7133 -0.6577
10842TIP3   OH254016   5.908   1.746  11.349 -0.4220 -0.0865 -0.1502
10842TIP3    H154017   5.937   1.663  11.386  1.3623  0.8702  0.7344
10842TIP3    H254018   5.940   1.746  11.259 -1.3840 -0.7835 -0.5107
10843TIP3   OH254019   5.242   3.046   2.794 -0.6237 -0.3530 -0.4078
10843TIP3    H154020   5.227   3.092   2.712 -0.6749 -0.5520 -0.5092
10843TIP3    H254021   5.217   3.110   2.862  0.0110  0.0236 -0.5291
10844TIP3   OH254022   4.189   1.580  14.946 -0.1267 -0.0297 -0.0383
10844TIP3    H154023   4.228   1.495  14.967 -2.7974 -1.4372 -0.2076
10844TIP3    H254024   4.115   1.558  14.888  0.3938  2.6702 -1.8816
10845TIP3   OH254025   6.330   4.256  12.981 -0.5561 -0.1397 -0.0868
10845TIP3    H154026   6.282   4.173  12.978  0.7613 -0.9203 -0.6094
10845TIP3    H254027   6.312   4.296  12.896 -2.6885  1.0414  0.8456
10846TIP3   OH254028   0.222   2.899  11.821  0.5705 -0.1214 -0.4591
10846TIP3    H154029   0.316   2.894  11.804  1.2149  1.8853  1.9635
10846TIP3    H254030   0.206   2.991  11.841 -1.5312 -0.7422  1.0266
10847TIP3   OH254031   5.501   3.576  14.759 -0.5131 -0.7443 -0.0746
10847TIP3    H154032   5.502   3.589  14.854 -1.3799  0.0100 -0.1521
10847TIP3    H254033   5.436   3.639  14.727  0.9225  0.1678 -1.3340
10848TIP3   OH254034   4.460   0.845   3.242  0.2238 -0.7763 -0.2952
10848TIP3    H154035   4.458   0.817   3.150 -1.7535  2.9861 -1.5738
10848TIP3    H254036   4.370   0.835   3.272  0.8757 -2.1020  1.3750
10849TIP3   OH254037   1.411   5.400   4.748  0.1429  0.0585  0.5117
10849TIP3    H154038   1.472   5.360   4.809  0.1175  0.4638  0.8056
10849TIP3    H254039   1.387   5.483   4.788 -2.2538 -0.9844  1.5012
10850TIP3   OH254040   4.981   6.634  11.777 -0.3698  0.2658 -0.3740
10850TIP3    H154041   4.997   6.648  11.870  0.0308 -2.0868 -0.0318
10850TIP3    H254042   4.932   6.552  11.773 -0.3892  0.3243 -2.2490
10851TIP3   OH254043   2.986   0.975   3.027  0.1574 -0.0086  0.2139
10851TIP3    H154044   2.978   0.881   3.010  1.6281 -0.6511  2.5761
10851TIP3    H254045   3.080   0.989   3.040 -0.0590  1.7576  0.0861
10852TIP3   OH254046   4.182   2.119  10.605 -0.2171 -0.3541 -0.3266
10852TIP3    H154047   4.259   2.169  10.578  0.2855 -1.0623 -0.2413
10852TIP3    H254048   4.213   2.029  10.611 -0.9063 -0.5605  0.3035
10853TIP3   OH254049   1.827   2.163   3.132 -0.2238  0.5233 -0.0124
10853TIP3    H154050   1.905   2.164   3.077  0.2842 -0.9090  0.6460
10853TIP3    H254051   1.837   2.239   3.190  0.8991  0.1300  0.3353
10854TIP3   OH254052   6.427   3.191  14.712  0.2584 -0.0383  0.6139
10854TIP3    H154053   6.504   3.179  14.656 -0.7986 -1.3628 -0.6343
10854TIP3    H254054   6.423   3.111  14.764 -0.8114 -0.4432 -0.0531
10855TIP3   OH254055   4.447   5.982  13.235  0.4226 -0.5449 -0.3606
10855TIP3    H154056   4.377   6.047  13.230  1.9344  1.1505 -0.3651
10855TIP3    H254057   4.411   5.905  13.190 -2.4667 -0.8042  2.0796
10856TIP3   OH254058   1.517   4.767   5.818  0.4558  0.0189 -0.6782
10856TIP3    H154059   1.580   4.817   5.870  0.3696 -1.6173  1.0949
10856TIP3    H254060   1.549   4.677   5.822 -0.9529 -0.5380 -1.3656
10857TIP3   OH254061   6.708   1.587   4.431 -0.7387 -0.0339 -0.5879
10857TIP3    H154062   6.709   1.521   4.501 -0.5175 -0.7950 -1.2986
10857TIP3    H254063   6.617   1.616   4.427 -0.4862  1.1081  1.0070
10858TIP3   OH254064   2.659   3.555  11.596  0.2188 -0.2350 -0.4189
10858TIP3    H154065   2.612   3.490  11.544  0.4814 -1.2323  0.5637
10858TIP3    H254066   2.605   3.568  11.674  0.9127 -0.4079  0.0971
10859TIP3   OH254067   4.077   3.042   0.943 -0.2900 -0.4775  0.3892
10859TIP3    H154068   4.090   2.947   0.936 -0.5635 -0.5736  1.1154
10859TIP3    H254069   4.111   3.076   0.860  0.4668 -1.1419  0.4084
10860TIP3   OH254070   3.410   1.198  15.194 -0.0309  0.3186  0.1866
10860TIP3    H154071   3.419   1.108  15.164  1.6120  0.8835 -1.1641
10860TIP3    H254072   3.385   1.190  15.286 -2.0261 -1.4789 -0.4259
10861TIP3   OH254073   6.255   3.296   1.829  0.1369  0.1188  0.1191
10861TIP3    H154074   6.207   3.338   1.757 -0.1972  1.3521  1.0457
10861TIP3    H254075   6.188   3.277   1.894  0.6598  0.2962  0.7109
10862TIP3   OH254076   5.939   0.884  11.674  0.0910  0.0406  0.5442
10862TIP3    H154077   5.922   0.843  11.759 -0.9637 -0.3477  0.1548
10862TIP3    H254078   5.853   0.893  11.633  0.5449  0.5609 -0.3378
10863TIP3   OH254079   5.779   3.790  14.631 -0.2652 -0.0439  0.2990
10863TIP3    H154080   5.705   3.847  14.652 -0.6029 -0.6260  0.7017
10863TIP3    H254081   5.837   3.796  14.707 -0.3188 -0.2693  0.3577
10864TIP3   OH254082   3.405   0.010   5.169  0.1787  0.7762 -0.0250
10864TIP3    H154083   3.372  -0.077   5.192 -0.1615  0.9517  0.1600
10864TIP3    H254084   3.500   0.003   5.180  0.1936  0.3097 -0.4117
10865TIP3   OH254085   2.019   1.546   1.816 -0.9275  0.6712 -0.0575
10865TIP3    H154086   2.008   1.531   1.910  1.3542 -0.4731  0.1023
10865TIP3    H254087   2.083   1.616   1.810 -0.6109  0.3300 -0.7595
10866TIP3   OH254088   0.923   1.157  10.876 -0.2858 -0.6686 -0.4691
10866TIP3    H154089   0.933   1.064  10.855 -2.4944 -1.0558  0.0170
10866TIP3    H254090   0.905   1.199  10.791 -1.4200 -1.0291 -0.4152
10867TIP3   OH254091   5.961   1.140   0.016 -0.4677 -0.3592  0.2614
10867TIP3    H154092   5.958   1.206   0.085 -4.1171 -1.6585  1.5725
10867TIP3    H254093   6.007   1.183  -0.056  1.8353  1.7408  2.7258
10868TIP3   OH254094   6.776   5.102  13.724 -0.2807 -0.4408  0.0445
10868TIP3    H154095   6.709   5.147  13.672 -0.3412 -1.0172 -0.3867
10868TIP3    H254096   6.739   5.015  13.740  0.2532 -0.6736  0.0273
10869TIP3   OH254097   1.066   3.382  17.201 -0.1443 -0.1193 -0.1350
10869TIP3    H154098   1.055   3.476  17.191 -1.4608  0.0963  2.4686
10869TIP3    H254099   1.006   3.344  17.137 -1.5568  0.8972  0.5310
10870TIP3   OH254100   6.808   1.817   1.870  0.2617  0.1432 -0.5321
10870TIP3    H154101   6.795   1.840   1.778  0.4605  1.0041 -0.3526
10870TIP3    H254102   6.901   1.832   1.886  0.3790 -0.7244 -0.3818
10871TIP3   OH254103   5.291   5.066  17.146  0.3567 -0.0804  0.1810
10871TIP3    H154104   5.228   5.101  17.209 -0.3109 -1.6880  0.4683
10871TIP3    H254105   5.323   4.986  17.187  2.1187  0.3570 -0.2649
10872TIP3   OH254106   6.537   2.779  16.586  0.0261 -0.2797 -0.2870
10872TIP3    H154107   6.591   2.753  16.512 -4.0911  0.0860 -3.8528
10872TIP3    H254108   6.541   2.705  16.647  2.8937 -1.0113 -1.2383
10873TIP3   OH254109   6.089   2.045   2.321  0.0877  0.2376  0.2461
10873TIP3    H154110   6.103   2.045   2.226  0.1128 -0.6564  0.2409
10873TIP3    H254111   6.177   2.040   2.358  0.1705  1.9231  0.3607
10874TIP3   OH254112   5.366   0.116   5.278  0.6448  0.3573  0.2099
10874TIP3    H154113   5.375   0.168   5.198 -1.6659  0.9020  0.2191
10874TIP3    H254114   5.342   0.028   5.248  0.5759  0.3552  0.2691
10875TIP3   OH254115   4.760   0.366   4.299  0.1588 -0.0876 -0.1106
10875TIP3    H154116   4.850   0.333   4.290  0.0508 -0.6995  0.9599
10875TIP3    H254117   4.731   0.335   4.384 -0.9571  0.4103 -0.2913
10876TIP3   OH254118   0.015   1.678   5.679  0.1247  0.2165 -0.1660
10876TIP3    H154119   0.083   1.614   5.700  0.2848  0.2715 -0.5079
10876TIP3    H254120   0.026   1.747   5.744  1.0102  0.6828 -0.7961
10877TIP3   OH254121   2.643   4.402  14.384  0.1256  0.4094  0.3065
10877TIP3    H154122   2.574   4.444  14.436 -0.3304  2.7937 -2.0323
10877TIP3    H254123   2.599   4.372  14.305  1.1640 -1.3115  0.3399
10878TIP3   OH254124   5.007   0.280  14.715  0.2337 -0.0425  0.4686
10878TIP3    H154125   4.997   0.210  14.779  0.5210  0.5054  1.1152
10878TIP3    H254126   4.964   0.356  14.754  3.2827  1.2921  1.6130
10879TIP3   OH254127   1.341   4.672   2.467  0.1714 -0.7515 -0.1327
10879TIP3    H154128   1.342   4.578   2.484  1.6547 -0.7006  0.1871
10879TIP3    H254129   1.248   4.695   2.468 -0.1994 -2.1398  0.1425
10880TIP3   OH254130   5.614   4.189   5.065 -0.5054  0.2159 -0.1536
10880TIP3    H154131   5.618   4.135   5.145 -1.8798  0.1199 -0.1219
10880TIP3    H254132   5.602   4.278   5.097  0.5713  0.3994 -0.2330
10881TIP3   OH254133   5.560   2.070  16.658 -0.1643 -0.0450  0.5737
10881TIP3    H154134   5.499   2.143  16.653  1.1041  1.0005 -0.8957
10881TIP3    H254135   5.527   2.014  16.728 -3.0172  0.2297 -0.4397
10882TIP3   OH254136   6.410   0.068   0.128 -0.0827  0.0059 -0.2064
10882TIP3    H154137   6.473  -0.002   0.112  1.4487  1.2625  0.1826
10882TIP3    H254138   6.427   0.133   0.060 -0.4416  0.7180  0.3733
10883TIP3   OH254139   0.056   2.147   0.166  0.2549  0.1288  0.0690
10883TIP3    H154140   0.102   2.229   0.186 -0.1962  0.5060 -0.4331
10883TIP3    H254141   0.120   2.078   0.188  0.9269  0.6363 -0.2527
10884TIP3   OH254142   4.565   6.588   3.603  0.2653  0.2400 -0.2685
10884TIP3    H154143   4.525   6.590   3.516  0.1295 -0.2625 -0.2215
10884TIP3    H254144   4.544   6.501   3.637 -1.5295  1.1291  1.1256
10885TIP3   OH254145   2.193   6.372   5.929  0.2342  0.3341  0.4960
10885TIP3    H154146   2.249   6.321   5.871 -1.6180  0.9685 -2.0811
10885TIP3    H254147   2.107   6.330   5.923 -0.1968  0.8939  2.2159
10886TIP3   OH254148   3.747   0.153   2.981  0.2567  0.1256  0.2498
10886TIP3    H154149   3.788   0.072   2.951  2.6520  0.8048  1.4908
10886TIP3    H254150   3.670   0.162   2.924  0.6988 -2.2400 -0.8812
10887TIP3   OH254151   5.184   6.437  16.858  1.0063  0.2567  0.2282
10887TIP3    H154152   5.232   6.466  16.780 -0.9164 -0.2457 -1.2125
10887TIP3    H254153   5.165   6.345  16.840 -0.7100  0.5133  0.6320
10888TIP3   OH254154   0.088   6.489   5.720 -0.4297  0.5826  0.2053
10888TIP3    H154155   0.070   6.555   5.652  0.8953  0.9446  0.1662
10888TIP3    H254156   0.126   6.540   5.792  1.2714 -0.1960 -0.0966
10889TIP3   OH254157   3.835   1.914  13.465 -0.1741  0.1370 -0.4668
10889TIP3    H154158   3.870   1.943  13.549  0.0737 -0.9460 -0.1823
10889TIP3    H254159   3.743   1.892  13.484 -0.3423  0.6495 -0.6662
10890TIP3   OH254160   6.404   5.346   4.453  0.2455  0.6203  0.7439
10890TIP3    H154161   6.428   5.323   4.543  1.1469 -1.3206  0.0710
10890TIP3    H254162   6.315   5.311   4.442  0.0190  1.1240  0.9669
10891TIP3   OH254163   0.152   1.361  14.696  0.3352 -0.3683 -0.5704
10891TIP3    H154164   0.206   1.308  14.754  0.7023 -0.5836 -1.0998
10891TIP3    H254165   0.116   1.430  14.752  1.7750  0.2373 -0.3669
10892TIP3   OH254166   1.382   1.019   3.113  0.1894 -0.4008  0.4216
10892TIP3    H154167   1.370   1.114   3.106  2.0231 -0.2399 -2.7422
10892TIP3    H254168   1.471   1.004   3.083  0.3628 -3.1007  1.9385
10893TIP3   OH254169   4.766   5.354   2.952  0.2244  0.5445 -0.5266
10893TIP3    H154170   4.723   5.278   2.992  0.0932  0.5312 -0.6892
10893TIP3    H254171   4.781   5.328   2.861 -0.4816  0.9762 -0.7743
10894TIP3   OH254172   4.048   5.141   1.275  0.1233  0.6345  0.3866
10894TIP3    H154173   4.086   5.062   1.314  0.2307  0.4934  0.0013
10894TIP3    H254174   4.062   5.209   1.341  1.4740  0.6913  0.0664
10895TIP3   OH254175   3.509   3.878  15.909  0.2579  0.1398  0.3083
10895TIP3    H154176   3.515   3.807  15.974  0.5323 -1.4636 -1.4015
10895TIP3    H254177   3.569   3.945  15.941  1.9506 -1.4798  0.6836
10896TIP3   OH254178   2.318   2.588  12.282 -0.0606 -0.3114 -0.0543
10896TIP3    H154179   2.285   2.519  12.223  0.0428 -1.5833  1.3255
10896TIP3    H254180   2.254   2.591  12.353 -0.0623  1.0396 -0.0969
10897TIP3   OH254181   1.570   4.081   3.654  0.4927 -0.4049  0.4592
10897TIP3    H154182   1.539   3.991   3.665  0.9437 -0.4640  1.3051
10897TIP3    H254183   1.588   4.111   3.743 -1.1243  1.0693  0.3503
10898TIP3   OH254184   2.089   6.411  10.694  0.4421  0.1180 -0.3184
10898TIP3    H154185   2.174   6.410  10.737 -0.4818  2.0531  1.7489
10898TIP3    H254186   2.104   6.460  10.613  1.2198  0.8511  0.2481
10899TIP3   OH254187   5.108   5.436  15.872 -0.0018  0.3473  0.0417
10899TIP3    H154188   5.117   5.453  15.966  1.6854 -0.0675 -0.0071
10899TIP3    H254189   5.020   5.468  15.850 -0.2073  0.9829  1.6347
10900TIP3   OH254190   4.398   2.700   0.491  0.2351  1.0028 -0.1694
10900TIP3    H154191   4.389   2.620   0.438  1.2118  0.7433  0.0318
10900TIP3    H254192   4.397   2.669   0.581 -2.0178  1.5016  0.0436
10901TIP3   OH254193   0.469   4.663   4.432 -0.2293 -0.3325 -0.1120
10901TIP3    H154194   0.427   4.581   4.460  0.1536 -0.5428 -0.1372
10901TIP3    H254195   0.464   4.720   4.508  0.1642 -0.6470  0.1569
10902TIP3   OH254196   6.704   0.094   1.839 -0.0514 -0.0255 -0.2198
10902TIP3    H154197   6.769   0.025   1.851  0.0068 -0.0407 -0.6016
10902TIP3    H254198   6.697   0.136   1.925  0.1365 -0.3089 -0.0653
10903TIP3   OH254199   2.156   4.810  16.142 -0.1639  0.2189  0.3606
10903TIP3    H154200   2.117   4.865  16.210 -1.1687 -0.0231 -0.0027
10903TIP3    H254201   2.168   4.869  16.068 -0.1521  0.2171  0.3605
10904TIP3   OH254202   3.769   3.955  11.742 -0.4767  0.4798 -0.0374
10904TIP3    H154203   3.846   4.011  11.755  0.4643 -0.8129  0.1725
10904TIP3    H254204   3.750   3.963  11.649  1.2913 -0.8222 -0.5817
10905TIP3   OH254205   5.007   4.502  12.146 -0.1708  0.2476  0.5215
10905TIP3    H154206   4.916   4.501  12.115 -0.8607 -0.0014  2.3972
10905TIP3    H254207   5.009   4.435  12.214  0.7945  1.8369  2.1362
10906TIP3   OH254208   4.119   4.228   4.894 -0.3676  0.0687  0.4344
10906TIP3    H154209   4.058   4.154   4.892  0.7987 -0.9098 -0.0032
10906TIP3    H254210   4.064   4.303   4.917 -2.3322 -0.1828 -2.7835
10907TIP3   OH254211   4.241   4.555  16.255 -0.6454 -0.0125 -0.5991
10907TIP3    H154212   4.301   4.519  16.190 -0.6722  1.5433 -1.5202
10907TIP3    H254213   4.270   4.646  16.266 -1.8749  0.3065  0.0961
10908TIP3   OH254214   0.363   4.111  14.300 -0.0692  0.6046  0.1489
10908TIP3    H154215   0.309   4.188  14.284 -2.1948 -0.6197  1.0512
10908TIP3    H254216   0.338   4.049  14.230  1.0086  0.4086 -0.0828
10909TIP3   OH254217   3.228   2.152  14.179  0.0542 -0.7138 -0.2885
10909TIP3    H154218   3.318   2.180  14.195  0.1657 -1.7140  1.0213
10909TIP3    H254219   3.233   2.094  14.104  0.2968  0.2104 -1.0060
10910TIP3   OH254220   6.172   2.992   6.583 -0.0285 -0.1603 -0.0634
10910TIP3    H154221   6.248   3.046   6.604  0.2290  0.0900 -1.5251
10910TIP3    H254222   6.208   2.905   6.568 -0.2857 -0.4761  1.0238
10911TIP3   OH254223   0.368   4.213   4.187  0.0059 -0.0171  0.8902
10911TIP3    H154224   0.420   4.249   4.258  1.7808  1.8082 -1.2010
10911TIP3    H254225   0.429   4.158   4.137 -0.9963 -0.6669  0.3354
10912TIP3   OH254226   0.231   5.531   2.658 -0.0627  0.2593  0.0931
10912TIP3    H154227   0.308   5.519   2.714 -0.4719 -1.1811  0.3695
10912TIP3    H254228   0.255   5.492   2.574 -0.4280 -0.0135  0.1160
10913TIP3   OH254229   2.349   1.492  17.103 -0.2826 -0.2564 -0.2818
10913TIP3    H154230   2.416   1.482  17.036  0.0849 -0.7766  0.1667
10913TIP3    H254231   2.288   1.420  17.088 -1.9437  1.3559 -2.0276
10914TIP3   OH254232   2.791   0.316  15.617  0.3415  0.1260  0.2758
10914TIP3    H154233   2.816   0.265  15.694 -1.5469 -1.3970 -0.0426
10914TIP3    H254234   2.720   0.373  15.647 -0.2999 -0.3624 -0.2885
10915TIP3   OH254235   4.996   5.220  14.004  0.5054 -0.0241 -0.2622
10915TIP3    H154236   4.933   5.267  13.950 -0.1025  1.4816  1.6195
10915TIP3    H254237   4.977   5.128  13.990 -1.5692  0.3806 -0.4058
10916TIP3   OH254238   1.887   4.700  14.451 -0.0175 -0.2521  0.1085
10916TIP3    H154239   1.915   4.790  14.468  1.5874 -0.7207  0.1109
10916TIP3    H254240   1.874   4.662  14.537  1.0799 -0.5234  0.1760
10917TIP3   OH254241   3.375   6.108   5.363  0.2638 -0.3823  0.0937
10917TIP3    H154242   3.281   6.118   5.377  0.2241 -1.3271  0.5502
10917TIP3    H254243   3.383   6.026   5.313  0.6552  1.0530 -2.3979
10918TIP3   OH254244   2.887   6.247  15.778  0.2076  0.0917 -0.1095
10918TIP3    H154245   2.966   6.297  15.801 -1.2281  1.3756  2.3828
10918TIP3    H254246   2.879   6.181  15.847  0.0434 -1.2297 -1.3450
10919TIP3   OH254247   2.636   0.227  11.325 -0.3156 -0.2465  0.2738
10919TIP3    H154248   2.616   0.241  11.418 -0.5633 -1.1044  0.3567
10919TIP3    H254249   2.611   0.136  11.309  0.7242 -0.4256 -0.3781
10920TIP3   OH254250   1.139   4.936  12.594  0.1873 -0.3506  0.0902
10920TIP3    H154251   1.185   4.880  12.656  0.3189 -2.6709 -1.9502
10920TIP3    H254252   1.061   4.887  12.570  0.2329  0.3438 -1.6954
10921TIP3   OH254253   0.035   2.613   6.152 -0.2102 -0.0637  0.1816
10921TIP3    H154254  -0.048   2.613   6.105  0.4608 -0.1946 -1.0465
10921TIP3    H254255   0.092   2.670   6.100  0.8115 -0.8930  0.3718
10922TIP3   OH254256   0.260   1.334   4.914  0.1536  0.1095 -0.0466
10922TIP3    H154257   0.320   1.273   4.873  1.3565  1.9460 -1.1459
10922TIP3    H254258   0.220   1.382   4.841  0.2964  1.5873  0.7960
10923TIP3   OH254259   4.117   4.668  14.546  0.6718 -0.2924 -0.0393
10923TIP3    H154260   4.188   4.657  14.482  0.9520 -1.8012  0.5002
10923TIP3    H254261   4.061   4.592  14.533 -0.3945  0.4472  0.1357
10924TIP3   OH254262   1.139   4.352  13.783 -0.2489 -0.4906 -0.3648
10924TIP3    H154263   1.137   4.369  13.688  0.4644 -1.9113 -0.6732
10924TIP3    H254264   1.057   4.306  13.800  1.4536 -4.2580 -1.2368
10925TIP3   OH254265   6.352   3.286  15.611 -0.6838  0.0577 -0.3431
10925TIP3    H154266   6.275   3.343  15.603 -0.6664  0.6150  2.4461
10925TIP3    H254267   6.326   3.219  15.674 -0.1546 -2.1884 -2.3751
10926TIP3   OH254268   4.523   0.681  12.810  0.3717  0.1797 -0.2565
10926TIP3    H154269   4.453   0.741  12.787 -0.5107 -1.3102 -1.6430
10926TIP3    H254270   4.503   0.654  12.900 -1.8587 -1.4961 -1.1655
10927TIP3   OH254271   3.998   2.297   3.940  0.0511 -0.2962  0.5222
10927TIP3    H154272   4.074   2.259   3.898  0.0196  0.2451 -0.0385
10927TIP3    H254273   4.000   2.390   3.915 -0.6771 -0.2344  0.6581
10928TIP3   OH254274   5.519   6.192   5.818 -0.0113 -0.0026 -0.1008
10928TIP3    H154275   5.444   6.249   5.797  0.6681  0.8613 -0.2148
10928TIP3    H254276   5.484   6.129   5.881 -0.6847  0.7865  0.3376
10929TIP3   OH254277   6.715   1.968   6.797 -0.4722 -0.3913 -0.6625
10929TIP3    H154278   6.651   1.994   6.863  0.5658 -0.3219  0.3284
10929TIP3    H254279   6.794   2.018   6.818 -0.1830 -0.2121 -2.0794
10930TIP3   OH254280   1.021   4.660  14.406 -0.0912 -0.4377  0.5503
10930TIP3    H154281   1.098   4.678  14.353  0.3313 -0.1328  1.2434
10930TIP3    H254282   1.042   4.579  14.453 -0.1611 -0.3209  0.7875
10931TIP3   OH254283   4.776   1.683   0.511  0.4726  0.2133 -0.5886
10931TIP3    H154284   4.723   1.763   0.518 -0.4617 -0.5422  2.6776
10931TIP3    H254285   4.866   1.715   0.515  0.1396  1.1781 -0.3983
10932TIP3   OH254286   1.548   1.621   4.359  0.2641  0.2179  0.3383
10932TIP3    H154287   1.558   1.667   4.443 -2.7429  1.0876  0.3169
10932TIP3    H254288   1.536   1.690   4.295 -0.1007 -0.5126 -0.3942
10933TIP3   OH254289   3.028   6.751  16.194  0.5942  0.1374  0.0773
10933TIP3    H154290   3.051   6.664  16.225 -1.1538 -0.0372  1.0418
10933TIP3    H254291   2.936   6.745  16.169  0.3361  1.7665  0.4691
10934TIP3   OH254292   5.041   5.174   2.990 -0.3918 -0.2276 -0.3226
10934TIP3    H154293   5.077   5.262   3.000 -0.6876 -0.2454  1.1726
10934TIP3    H254294   5.025   5.144   3.080  0.8780 -2.2921 -0.7030
10935TIP3   OH254295   0.557   4.256   2.635  0.1024  0.3470  0.0031
10935TIP3    H154296   0.538   4.346   2.609 -1.6678  0.5551  1.8313
10935TIP3    H254297   0.603   4.219   2.559  1.3226  2.8914 -0.6083
10936TIP3   OH254298   2.684   4.066  14.163  0.4042  0.2831 -0.2442
10936TIP3    H154299   2.606   4.121  14.166 -1.9940 -2.8285  2.8482
10936TIP3    H254300   2.730   4.086  14.245 -0.0350 -1.5143  0.4882
10937TIP3   OH254301   6.558   4.976   4.585 -0.3663  0.0453  0.5078
10937TIP3    H154302   6.486   4.965   4.646 -0.3850  0.4436  0.5548
10937TIP3    H254303   6.615   4.900   4.601 -1.5377 -1.1265 -0.5925
10938TIP3   OH254304   4.715   0.344  15.694  0.2600  0.1561  0.0722
10938TIP3    H154305   4.649   0.403  15.658 -1.4818 -1.8367 -0.1505
10938TIP3    H254306   4.747   0.295  15.618 -0.2065 -0.9691  0.5850
10939TIP3   OH254307   2.168   3.803  16.631  0.1188  0.6252  0.4504
10939TIP3    H154308   2.174   3.794  16.536  0.5072  0.8603  0.4543
10939TIP3    H254309   2.083   3.764  16.653  0.2928  0.0343  0.0791
10940TIP3   OH254310   6.233   0.319  12.062  0.1279  0.4527  0.9296
10940TIP3    H154311   6.175   0.384  12.101 -1.9162 -2.0517  2.4002
10940TIP3    H254312   6.182   0.282  11.990  0.4224 -0.8064  1.3422
10941TIP3   OH254313   0.632   3.520   5.322  0.0274 -0.1872  0.5075
10941TIP3    H154314   0.723   3.545   5.340  0.2432  0.1737 -1.0204
10941TIP3    H254315   0.638   3.431   5.289 -0.4009 -0.9563  2.3510
10942TIP3   OH254316   5.646   1.261  14.853  0.4518  0.5661  0.3220
10942TIP3    H154317   5.679   1.317  14.783  0.0915  1.1423  0.5931
10942TIP3    H254318   5.724   1.235  14.902  0.7984 -0.5648 -0.7899
10943TIP3   OH254319   6.819   4.186   2.909  0.5390  1.2511 -0.3392
10943TIP3    H154320   6.886   4.254   2.906  2.0642 -0.1821 -0.1879
10943TIP3    H254321   6.868   4.104   2.913 -1.2261  0.1732  0.5809
10944TIP3   OH254322   6.696   3.808  11.015  0.2042 -0.0650 -0.7983
10944TIP3    H154323   6.739   3.723  11.016 -0.2739 -0.3112 -0.2105
10944TIP3    H254324   6.751   3.863  11.071 -0.3530 -0.4432  0.1428
10945TIP3   OH254325   0.381   2.714   5.223  0.3043  0.0059  0.5100
10945TIP3    H154326   0.362   2.801   5.257 -1.4041 -1.3400  3.3353
10945TIP3    H254327   0.474   2.699   5.244  0.7865  1.2844 -0.5450
10946TIP3   OH254328   1.305   1.333  14.256  0.1363 -0.3672  0.0327
10946TIP3    H154329   1.333   1.374  14.174  0.3431  0.0727  0.3224
10946TIP3    H254330   1.283   1.243  14.231 -0.7824  0.0442 -0.7001
10947TIP3   OH254331   0.622   4.152  13.876  0.1638  0.5580 -0.4830
10947TIP3    H154332   0.604   4.164  13.969 -0.6888 -0.7367 -0.4516
10947TIP3    H254333   0.606   4.238  13.837 -2.8229  0.3596  0.0874
10948TIP3   OH254334   4.001   5.242   0.229  0.3706  0.4009 -0.1500
10948TIP3    H154335   4.071   5.293   0.270  2.5397 -1.7047 -1.0121
10948TIP3    H254336   3.924   5.258   0.284  2.0469  1.1214  2.1187
10949TIP3   OH254337   2.928   3.562   5.891  0.3410  0.2510  0.3202
10949TIP3    H154338   2.980   3.636   5.921  0.0871 -0.0452  1.5227
10949TIP3    H254339   2.941   3.494   5.957 -1.0655 -0.0535  0.3173
10950TIP3   OH254340   1.325   5.881   4.572  0.6127 -0.5328  0.6052
10950TIP3    H154341   1.282   5.912   4.492  1.7122 -2.8853 -1.0218
10950TIP3    H254342   1.256   5.884   4.639 -0.9095 -0.3221 -0.9022
10951TIP3   OH254343   0.572   4.139  15.701 -0.0307  0.6518 -0.2541
10951TIP3    H154344   0.490   4.139  15.652 -1.3192  0.0042  1.7798
10951TIP3    H254345   0.600   4.047  15.702 -0.1230  0.6258  0.3640
10952TIP3   OH254346   5.285   6.161  12.941 -0.0524  0.3992 -0.2509
10952TIP3    H154347   5.191   6.150  12.956 -0.1031  0.1280 -0.7809
10952TIP3    H254348   5.295   6.159  12.846  0.7238 -1.4228 -0.1599
10953TIP3   OH254349   3.794   6.585  16.532 -0.4259 -0.1525  0.0645
10953TIP3    H154350   3.844   6.623  16.460 -1.5733  0.0496 -0.6482
10953TIP3    H254351   3.860   6.546  16.590  0.4946 -0.5355 -1.2135
10954TIP3   OH254352   0.304   1.960  11.701 -0.0814 -0.8099 -0.3917
10954TIP3    H154353   0.355   2.040  11.693  0.7234 -1.3594 -1.0106
10954TIP3    H254354   0.213   1.989  11.702  0.1098  0.0158 -2.3773
10955TIP3   OH254355   6.308   2.317  15.580 -0.3956  0.0235  0.8385
10955TIP3    H154356   6.215   2.305  15.561 -0.1068 -1.2910  0.1176
10955TIP3    H254357   6.334   2.237  15.625  0.8719 -0.6621 -1.0150
10956TIP3   OH254358   6.679   1.091   3.196 -0.3523  0.3567 -0.0595
10956TIP3    H154359   6.634   1.010   3.221 -2.9237  2.0833  1.3646
10956TIP3    H254360   6.732   1.067   3.120 -0.0293 -2.9130  1.0409
10957TIP3   OH254361   5.886   3.297  15.336  0.8352  0.0921 -0.2521
10957TIP3    H154362   5.954   3.234  15.358  0.5185 -0.1909 -0.0588
10957TIP3    H254363   5.921   3.381  15.363  0.7146 -0.1736  0.7764
10958TIP3   OH254364   3.470   1.477  12.453 -0.4169 -0.0380 -0.4087
10958TIP3    H154365   3.525   1.474  12.531 -1.2495 -0.3766  0.1690
10958TIP3    H254366   3.453   1.386  12.431 -1.7560  0.0574  0.1451
10959TIP3   OH254367   6.447   1.375   6.199  0.1225 -0.5886  0.5618
10959TIP3    H154368   6.368   1.351   6.150  0.8024 -1.1733 -0.2919
10959TIP3    H254369   6.424   1.360   6.291 -0.8066 -0.5899  0.3439
10960TIP3   OH254370   5.714   6.682   6.346 -0.4908 -0.2534 -0.0301
10960TIP3    H154371   5.656   6.627   6.398 -2.1010  1.0923 -0.3052
10960TIP3    H254372   5.727   6.760   6.399  0.8083 -0.3745 -0.1375
10961TIP3   OH254373   5.704   2.345  15.722 -0.1128 -0.3506 -0.0504
10961TIP3    H154374   5.620   2.305  15.702 -0.2440 -0.7948  1.2931
10961TIP3    H254375   5.687   2.401  15.798  0.2238  1.7639 -1.4268
10962TIP3   OH254376   1.400   0.680   1.815 -0.2753  0.0098  0.0125
10962TIP3    H154377   1.488   0.656   1.786 -0.2987  0.2547 -0.2612
10962TIP3    H254378   1.360   0.597   1.840 -0.5634 -0.3318 -1.4870
10963TIP3   OH254379   2.257   4.881  13.489 -0.1988  0.0077 -0.3890
10963TIP3    H154380   2.164   4.888  13.469 -0.0342  1.1345 -0.8151
10963TIP3    H254381   2.266   4.920  13.576 -0.0146  0.5836 -0.6647
10964TIP3   OH254382   1.883   6.415   1.065  0.3350 -0.5679 -0.2067
10964TIP3    H154383   1.795   6.422   1.028  0.0291 -2.0920  0.1406
10964TIP3    H254384   1.923   6.341   1.017  0.6962 -1.1844  0.9993
10965TIP3   OH254385   4.771   2.379   1.300  0.0599  0.1076 -0.1432
10965TIP3    H154386   4.859   2.384   1.264  0.0790 -0.5649 -0.1999
10965TIP3    H254387   4.747   2.287   1.293 -0.0667  0.0137  1.2704
10966TIP3   OH254388   0.641   0.499   0.947 -0.2335  0.3370  0.2432
10966TIP3    H154389   0.552   0.463   0.944  0.0293 -0.4165 -3.4383
10966TIP3    H254390   0.697   0.423   0.958  0.0550  0.3880 -0.7908
10967TIP3   OH254391   2.819   5.903   4.229 -0.5180 -0.4227  0.2369
10967TIP3    H154392   2.852   5.876   4.144 -0.1504  0.1800  0.1854
10967TIP3    H254393   2.888   5.880   4.291 -1.6874 -3.0138  0.7462
10968TIP3   OH254394   5.754   1.419   3.301 -0.4218 -0.5477  0.1147
10968TIP3    H154395   5.687   1.446   3.366 -0.9696 -3.6340  0.9795
10968TIP3    H254396   5.837   1.429   3.347 -0.6949 -1.3094  0.7902
10969TIP3   OH254397   2.067   2.809   5.003  0.1892 -0.4216  0.1620
10969TIP3    H154398   2.157   2.800   4.972  0.9837  0.2531  2.1067
10969TIP3    H254399   2.073   2.789   5.097 -2.1666 -3.0295 -0.1263
10970TIP3   OH254400   1.819   6.033  14.836 -0.1088  0.5325 -0.6866
10970TIP3    H154401   1.823   6.123  14.868  1.9539  0.3057 -0.1478
10970TIP3    H254402   1.829   6.041  14.741  0.3281  0.8764 -0.6188
10971TIP3   OH254403   3.853   6.665  13.270  0.5119  0.0487 -0.0342
10971TIP3    H154404   3.829   6.697  13.183 -1.1469 -0.7873  0.0649
10971TIP3    H254405   3.860   6.570  13.259 -1.7835 -0.3148  1.1262
10972TIP3   OH254406   4.018   3.371   0.536 -0.3546 -0.3158  0.1800
10972TIP3    H154407   3.956   3.444   0.540  0.2054  0.1081  1.8294
10972TIP3    H254408   4.093   3.400   0.587  0.8186 -1.2117 -0.9703
10973TIP3   OH254409   5.158   5.467  15.445  0.1950 -0.3597 -0.1265
10973TIP3    H154410   5.205   5.487  15.526  0.9234  1.0622 -0.8532
10973TIP3    H254411   5.164   5.548  15.394 -2.8411 -0.1945 -0.3829
10974TIP3   OH254412   1.844   5.121  16.154  0.0698 -0.6416 -0.0709
10974TIP3    H154413   1.935   5.149  16.159 -0.5566  1.5165  1.0197
10974TIP3    H254414   1.823   5.123  16.061  0.9867 -0.5677 -0.2846
10975TIP3   OH254415   2.840   0.990  14.104  0.8622  1.1112 -0.1867
10975TIP3    H154416   2.773   1.052  14.130  1.1573  1.3773 -0.0508
10975TIP3    H254417   2.795   0.906  14.099  0.3985  1.3826 -0.6593
10976TIP3   OH254418   6.786   0.872   6.043 -0.3955  0.3089  0.1822
10976TIP3    H154419   6.777   0.815   5.967 -0.3200  0.0656  0.3549
10976TIP3    H254420   6.806   0.813   6.115 -1.2105  0.4512  0.5411
10977TIP3   OH254421   0.616   1.322  15.048 -0.2666  0.5968  0.0292
10977TIP3    H154422   0.642   1.245  15.099 -1.4891 -0.5541 -1.0275
10977TIP3    H254423   0.682   1.388  15.070  0.8119 -0.7376  0.9704
10978TIP3   OH254424   1.572   4.545   3.634 -0.1226  1.2060 -0.1517
10978TIP3    H154425   1.523   4.486   3.691 -0.8720 -0.0707 -2.0198
10978TIP3    H254426   1.505   4.605   3.599  0.1672  1.4280 -0.3328
10979TIP3   OH254427   1.938   0.601  16.797  0.6555  0.0287  0.2908
10979TIP3    H154428   1.893   0.621  16.715  2.1654  0.8992 -0.3774
10979TIP3    H254429   1.992   0.525  16.776 -0.5780 -1.1294  1.1383
10980TIP3   OH254430   5.237   4.780  14.254 -0.1069 -0.1033 -0.0436
10980TIP3    H154431   5.174   4.843  14.288 -0.1756 -0.3794  0.3551
10980TIP3    H254432   5.277   4.823  14.179 -0.2699  0.3467  0.1261
10981TIP3   OH254433   4.127   2.884  15.958  0.5349 -0.6773  0.0633
10981TIP3    H154434   4.184   2.870  16.034 -0.6565  0.9231  1.3083
10981TIP3    H254435   4.066   2.810  15.960 -0.1060 -0.1485  1.2889
10982TIP3   OH254436   2.325   5.165   4.161 -0.1317  0.4212 -0.0649
10982TIP3    H154437   2.376   5.167   4.242  0.6692 -1.8250 -0.4451
10982TIP3    H254438   2.388   5.136   4.095 -1.0826  1.0012 -1.2542
10983TIP3   OH254439   2.874   5.438   5.678 -0.0043  0.3660  0.4874
10983TIP3    H154440   2.923   5.358   5.695  0.8520  0.7553 -0.0518
10983TIP3    H254441   2.922   5.481   5.607 -0.4383  1.3598  0.7766
10984TIP3   OH254442   5.696   2.344   2.951  0.1385  0.7453 -0.2755
10984TIP3    H154443   5.749   2.290   3.010 -0.6693 -1.0784 -1.1379
10984TIP3    H254444   5.711   2.433   2.980  2.5233  0.1822  0.4499
10985TIP3   OH254445   2.196   3.230   0.668 -0.2821 -0.1418 -0.0310
10985TIP3    H154446   2.193   3.178   0.587 -1.5243 -0.2483  0.0576
10985TIP3    H254447   2.265   3.295   0.652  0.0267 -0.6468 -0.8668
10986TIP3   OH254448   0.465   5.225  11.698  0.1306  0.7784 -0.0315
10986TIP3    H154449   0.465   5.306  11.647  1.9158  0.8703  0.0706
10986TIP3    H254450   0.535   5.173  11.661  0.4158  0.1728  1.2970
10987TIP3   OH254451   4.444   3.589  13.979  0.2216 -0.1503  0.4593
10987TIP3    H154452   4.425   3.662  13.920 -2.7181 -1.1195  0.0595
10987TIP3    H254453   4.409   3.617  14.063 -0.9202 -1.0490  0.3038
10988TIP3   OH254454   5.176   1.557  11.981 -0.4903  0.1891  0.0803
10988TIP3    H154455   5.233   1.626  12.016  1.2554 -1.2716  0.2563
10988TIP3    H254456   5.161   1.582  11.890  0.5960  0.5199 -0.0210
10989TIP3   OH254457   5.979   1.054   0.986  0.1993  0.2410  0.1073
10989TIP3    H154458   6.055   1.037   0.931 -0.2123  0.5598 -0.5690
10989TIP3    H254459   5.993   1.000   1.063  0.1689 -1.2000 -0.8620
10990TIP3   OH254460   5.160   4.262   4.462 -0.3210  0.0587  0.1119
10990TIP3    H154461   5.082   4.223   4.501 -0.6411  0.3284 -0.2511
10990TIP3    H254462   5.170   4.345   4.509 -0.9152  0.5522 -0.6077
10991TIP3   OH254463   3.178   4.224   4.384  0.2414 -0.2480  0.2525
10991TIP3    H154464   3.094   4.238   4.341  1.9282  0.3049 -3.3106
10991TIP3    H254465   3.162   4.156   4.449 -3.0512  0.3749  0.2554
10992TIP3   OH254466   2.707   0.981   1.794 -0.4335  0.3339  0.0590
10992TIP3    H154467   2.707   0.933   1.877  0.2150 -1.3512 -0.8549
10992TIP3    H254468   2.722   0.913   1.728 -1.1268  1.5997 -1.4571
10993TIP3   OH254469   2.375   6.707  12.462 -0.6764  0.2071  0.1953
10993TIP3    H154470   2.439   6.775  12.485  0.1137 -0.7067  0.7960
10993TIP3    H254471   2.366   6.655  12.542  0.7834 -1.9936 -0.9602
10994TIP3   OH254472   1.785   0.602  12.600  0.1811 -0.2907 -0.4114
10994TIP3    H154473   1.777   0.674  12.663 -0.1501 -1.2981  0.7271
10994TIP3    H254474   1.713   0.617  12.538 -2.0230 -1.4345  1.7176
10995TIP3   OH254475   6.075   1.997   1.770  0.1309 -0.0506  0.1149
10995TIP3    H154476   6.001   1.936   1.765  0.8367 -1.0931  1.5792
10995TIP3    H254477   6.123   1.983   1.688 -1.3494  0.7458 -0.9158
10996TIP3   OH254478   1.370   5.357  13.855  0.1005  0.2047 -0.2800
10996TIP3    H154479   1.313   5.430  13.880 -2.4225 -1.9841  0.8142
10996TIP3    H254480   1.356   5.347  13.761  0.3960  1.0670 -0.4210
10997TIP3   OH254481   2.589   3.413   3.427 -0.1741  0.4012 -0.0279
10997TIP3    H154482   2.570   3.346   3.493 -0.4643 -0.6270 -1.1339
10997TIP3    H254483   2.639   3.368   3.360 -1.8974  0.8005 -1.6823
10998TIP3   OH254484   1.713   1.626  14.125  0.9710  0.0665 -0.2854
10998TIP3    H154485   1.659   1.617  14.204  0.5645  0.8792 -0.4543
10998TIP3    H254486   1.674   1.565  14.063 -0.1681  1.0700 -0.6053
10999TIP3   OH254487   3.691   1.069  15.357 -0.0697  0.2114 -0.0900
10999TIP3    H154488   3.719   0.988  15.399 -0.3004  0.0342 -0.2714
10999TIP3    H254489   3.745   1.138  15.397 -0.7764  0.1512  1.0059
11000TIP3   OH254490   2.890   2.913  14.651  0.5579 -0.2874  0.2285
11000TIP3    H154491   2.907   2.908  14.745 -1.3529  0.7765  0.6695
11000TIP3    H254492   2.909   3.004  14.628  1.3401 -0.6221 -0.5054
11001TIP3   OH254493   3.599   4.151   1.137 -0.7003  0.9434 -0.2360
11001TIP3    H154494   3.555   4.236   1.134  2.7207  2.9360  0.4420
11001TIP3    H254495   3.626   4.135   1.046 -1.1590  0.6731 -0.3267
11002TIP3   OH254496   1.976   3.391   5.000  0.0903  0.1324  0.6847
11002TIP3    H154497   1.968   3.475   4.954  1.9839  0.9374  1.7366
11002TIP3    H254498   1.916   3.398   5.074  0.2106  0.5466  0.7446
11003TIP3   OH254499   3.664   2.170   4.267 -0.7429 -0.4126 -0.7211
11003TIP3    H154500   3.730   2.224   4.224 -0.8636 -0.8513 -1.4597
11003TIP3    H254501   3.715   2.115   4.328 -0.3660 -1.0802 -1.6215
11004TIP3   OH254502   3.841   5.004   5.918 -0.7262  0.3590 -0.5757
11004TIP3    H154503   3.894   5.071   5.962 -0.0709 -0.4264 -0.1435
11004TIP3    H254504   3.820   4.941   5.987 -1.5992  0.2822 -0.9097
11005TIP3   OH254505   4.842   4.072   2.738 -0.0637 -0.1396 -0.1408
11005TIP3    H154506   4.784   3.997   2.749  1.0775 -0.9567  0.4705
11005TIP3    H254507   4.930   4.035   2.736  0.6269  1.2506  1.3388
11006TIP3   OH254508   1.267   5.677  15.924 -0.3114  0.1847  0.5215
11006TIP3    H154509   1.360   5.697  15.910 -0.2867  0.1035  0.5678
11006TIP3    H254510   1.220   5.738  15.867 -0.2648  1.0412  1.3819
11007TIP3   OH254511   6.239   0.676   3.649 -0.2104  0.2553  0.9648
11007TIP3    H154512   6.250   0.757   3.699 -0.5765  1.0582 -0.2157
11007TIP3    H254513   6.327   0.638   3.645 -0.3935 -0.6230  3.4407
11008TIP3   OH254514   6.313   4.002  11.633  0.2501 -0.2492 -0.2922
11008TIP3    H154515   6.218   4.013  11.629 -0.0121 -1.7770  0.8092
11008TIP3    H254516   6.336   4.022  11.724  1.3320  2.1648 -1.0076
11009TIP3   OH254517   0.504   3.354  17.197  0.1910  0.5533 -0.1101
11009TIP3    H154518   0.599   3.352  17.188  0.1643  1.0394 -0.5929
11009TIP3    H254519   0.483   3.278  17.250  0.6625 -0.8251 -1.8182
11010TIP3   OH254520   3.797   0.642  14.330  0.5973 -0.1195  0.3246
11010TIP3    H154521   3.888   0.628  14.357  0.0205 -2.2938  1.4003
11010TIP3    H254522   3.759   0.554  14.326 -1.6550  0.7545  0.6615
11011TIP3   OH254523   3.936   5.387   2.393  0.2613 -0.4088  0.1068
11011TIP3    H154524   3.969   5.320   2.333 -0.1195  0.5171 -1.1959
11011TIP3    H254525   3.862   5.345   2.437  0.6336 -1.1595  0.0358
11012TIP3   OH254526   1.234   5.840   2.483 -0.0889 -0.1848 -0.2926
11012TIP3    H154527   1.228   5.774   2.415 -0.9262 -0.5663  0.1445
11012TIP3    H254528   1.323   5.875   2.474 -0.1082 -0.3879 -1.4168
11013TIP3   OH254529   0.478   1.401  16.572 -0.1192  0.0734 -0.2347
11013TIP3    H154530   0.404   1.420  16.514  0.7252  1.3152 -0.9541
11013TIP3    H254531   0.534   1.478  16.565  0.8655 -0.5072  0.9082
11014TIP3   OH254532   5.051   2.181  10.758 -0.2010 -0.3735 -0.3923
11014TIP3    H154533   5.054   2.274  10.782 -0.4822 -1.1017  2.9565
11014TIP3    H254534   4.958   2.163  10.745 -0.1065 -0.1295 -1.5201
11015TIP3   OH254535   3.756   6.236  13.786 -0.2784  0.1818 -0.1430
11015TIP3    H154536   3.672   6.189  13.787 -0.1458 -0.0576 -0.3256
11015TIP3    H254537   3.758   6.279  13.701 -0.0264 -0.1535 -0.3069
11016TIP3   OH254538   6.195   4.954  16.402 -0.4602 -0.0734  0.0057
11016TIP3    H154539   6.253   4.896  16.452  1.3493  1.5832 -0.0337
11016TIP3    H254540   6.254   4.996  16.339 -1.8057  1.4099 -0.3064
11017TIP3   OH254541   3.657   4.106  15.477 -0.0895 -0.4309  0.3128
11017TIP3    H154542   3.626   4.195  15.492  2.4578  0.8565 -1.3498
11017TIP3    H254543   3.627   4.085  15.389 -1.2863 -1.5368  0.9645
11018TIP3   OH254544   2.324   4.983   3.456 -0.7884 -1.2869  0.6551
11018TIP3    H154545   2.367   4.949   3.377 -1.0994 -0.8556  0.2964
11018TIP3    H254546   2.392   4.983   3.523  0.3247  1.1693 -0.3706
11019TIP3   OH254547   6.507   0.214   4.552  0.7455  0.0985  0.7256
11019TIP3    H154548   6.427   0.168   4.528  2.4086 -2.9227  0.5768
11019TIP3    H254549   6.522   0.275   4.480  0.3824 -1.7670 -1.0134
11020TIP3   OH254550   5.506   5.270  13.636  0.5630  0.2693 -0.4666
11020TIP3    H154551   5.596   5.242  13.620  0.8885 -0.2411  1.9059
11020TIP3    H254552   5.468   5.199  13.687  0.5478  2.7260  3.3392
11021TIP3   OH254553   1.555   0.401  15.302 -0.0063 -0.1064 -0.0965
11021TIP3    H154554   1.610   0.457  15.357  1.6256 -0.3870 -1.3260
11021TIP3    H254555   1.531   0.457  15.228 -3.2932  0.6867  1.3959
11022TIP3   OH254556   4.248   2.940  14.249  0.6638  0.4364 -0.1361
11022TIP3    H154557   4.173   2.890  14.283  2.1175  0.2542  3.1430
11022TIP3    H254558   4.239   3.027  14.288  2.2079  0.3583  0.4654
11023TIP3   OH254559   3.045   1.470  12.869 -0.1340 -0.1970  0.0116
11023TIP3    H154560   3.083   1.456  12.783 -1.2575 -0.9458 -0.3855
11023TIP3    H254561   2.961   1.424  12.867  1.2599 -3.2693  2.6455
11024TIP3   OH254562   3.006   1.474  15.785 -0.2699  0.1362 -0.4280
11024TIP3    H154563   3.069   1.408  15.816  1.8734  2.5534  0.7508
11024TIP3    H254564   3.019   1.477  15.691 -0.4137 -1.1218 -0.5005
11025TIP3   OH254565   2.870   6.419   2.206 -0.3629 -0.4449 -0.4017
11025TIP3    H154566   2.899   6.375   2.126  1.7578  1.1490 -0.6181
11025TIP3    H254567   2.893   6.357   2.276 -2.1016 -1.7910 -0.9498
11026TIP3   OH254568   0.916   2.608  13.210  0.1093 -0.0144  0.0312
11026TIP3    H154569   0.890   2.681  13.266  0.5347 -0.4781  0.8469
11026TIP3    H254570   1.012   2.611  13.209  0.0991  0.5235 -1.4022
11027TIP3   OH254571   2.356   3.205   1.859 -0.3489 -0.0176 -0.2029
11027TIP3    H154572   2.285   3.236   1.803 -0.7607 -1.1989 -0.3605
11027TIP3    H254573   2.434   3.213   1.805 -0.4426  0.6907 -0.2493
11028TIP3   OH254574   3.749   2.318  12.700  0.0184  0.3291 -0.2103
11028TIP3    H154575   3.838   2.299  12.671  0.4914  1.2811  0.5293
11028TIP3    H254576   3.742   2.275  12.785 -0.4896 -0.3604 -0.5971
11029TIP3   OH254577   4.665   0.199  11.930 -0.1007  0.0346  0.0468
11029TIP3    H154578   4.712   0.138  11.873  1.3917 -0.2573  1.5026
11029TIP3    H254579   4.665   0.282  11.883  3.7290  0.6154  0.7275
11030TIP3   OH254580   0.989   6.176  15.491  0.4812  0.3127 -0.3167
11030TIP3    H154581   0.937   6.101  15.519  0.1167  0.4095 -0.7297
11030TIP3    H254582   0.972   6.184  15.397 -0.9690  2.0436  0.0311
11031TIP3   OH254583   4.804   1.890   0.214 -0.4771 -0.3022 -0.0706
11031TIP3    H154584   4.716   1.875   0.248 -0.7009 -0.5884 -0.7774
11031TIP3    H254585   4.855   1.915   0.292 -1.0830 -0.5208  0.4060
11032TIP3   OH254586   0.104   4.240   4.400 -0.5368  0.0780 -0.5462
11032TIP3    H154587   0.065   4.156   4.422 -1.8992  0.9493  0.5066
11032TIP3    H254588   0.155   4.222   4.321  0.1479 -1.9707  0.2753
11033TIP3   OH254589   5.232   3.016   1.044 -0.2852 -0.2644 -0.9653
11033TIP3    H154590   5.288   2.940   1.028 -1.0698 -1.1435  0.2626
11033TIP3    H254591   5.146   2.979   1.060 -0.6767  0.8900 -0.3208
11034TIP3   OH254592   6.505   0.665  17.109  0.0235 -0.4368  0.7148
11034TIP3    H154593   6.481   0.734  17.048  1.2205  0.6587  1.4245
11034TIP3    H254594   6.514   0.587  17.055 -1.4845 -0.0918 -0.0851
11035TIP3   OH254595   1.047   3.936   6.554 -0.0162 -0.1183 -0.3412
11035TIP3    H154596   1.110   3.993   6.509  0.4736  0.4670  1.0225
11035TIP3    H254597   1.000   3.995   6.614 -2.9228 -0.2304 -2.2893
11036TIP3   OH254598   3.435   1.711  12.145  0.6919  0.2092  0.0441
11036TIP3    H154599   3.344   1.739  12.138 -0.4464 -2.5952  1.7265
11036TIP3    H254600   3.460   1.686  12.056 -0.5177  0.1241 -0.2850
11037TIP3   OH254601   4.848   3.483  13.441 -0.2566 -0.2087 -0.1560
11037TIP3    H154602   4.784   3.473  13.370 -1.1140 -0.6851  0.6784
11037TIP3    H254603   4.856   3.396  13.479  1.7344 -0.4260 -0.9378
11038TIP3   OH254604   4.973   5.860  15.946 -0.1243  0.2093 -0.1415
11038TIP3    H154605   4.907   5.902  16.001 -1.4076 -0.3044 -1.2372
11038TIP3    H254606   4.950   5.885  15.857  0.9266 -0.3172 -0.5821
11039TIP3   OH254607   3.603   3.759   4.935  0.2931  0.0168  0.4254
11039TIP3    H154608   3.676   3.739   4.877 -0.9705  0.1196 -1.3095
11039TIP3    H254609   3.626   3.720   5.019  1.7280 -1.0932 -0.4451
11040TIP3   OH254610   0.557   4.478  14.588 -0.3909  0.1004  0.0525
11040TIP3    H154611   0.497   4.469  14.662  0.5284 -0.4284  0.7459
11040TIP3    H254612   0.620   4.407  14.599  1.1259  1.3909  0.0514
11041TIP3   OH254613   6.154   0.635  12.227  0.2339 -0.0904  0.0574
11041TIP3    H154614   6.114   0.720  12.206  0.3469  0.2699  1.2543
11041TIP3    H254615   6.237   0.635  12.179 -0.1276  0.1294 -0.5840
11042TIP3   OH254616   2.753   5.951   2.562  0.1075  0.4317  0.3338
11042TIP3    H154617   2.672   5.921   2.604  0.1704 -0.5307 -0.2087
11042TIP3    H254618   2.799   6.000   2.630 -1.1848  1.4930  0.4908
11043TIP3   OH254619   2.380   3.477  14.516  0.1623  0.1235  0.0856
11043TIP3    H154620   2.460   3.425  14.510  0.2580  0.2231  0.4775
11043TIP3    H254621   2.390   3.544  14.448 -0.9197 -1.6177 -1.9219
11044TIP3   OH254622   5.531   5.393   1.792 -0.2086  0.0599  0.7798
11044TIP3    H154623   5.550   5.310   1.749 -1.1674  0.7319 -1.0791
11044TIP3    H254624   5.485   5.368   1.872  2.0136 -1.2580  1.7407
11045TIP3   OH254625   1.669   2.110   2.497  0.4767  0.6238  0.4764
11045TIP3    H154626   1.592   2.167   2.491  0.6566  1.0470  1.7732
11045TIP3    H254627   1.679   2.073   2.410 -1.7823 -0.1792  0.4932
11046TIP3   OH254628   1.646   6.130  12.924 -0.0264 -0.2950  0.3240
11046TIP3    H154629   1.683   6.060  12.977 -1.1527 -0.8943  0.3444
11046TIP3    H254630   1.714   6.149  12.859  0.3822 -1.2545  0.4554
11047TIP3   OH254631   3.482   5.572  15.838 -0.4325  0.0293  0.1855
11047TIP3    H154632   3.459   5.643  15.779 -0.0007 -0.4002 -0.5142
11047TIP3    H254633   3.416   5.504  15.821  1.8864 -1.7491 -2.7737
11048TIP3   OH254634   2.512   5.837  15.907  0.1525 -0.6422  0.6392
11048TIP3    H154635   2.438   5.779  15.887 -1.1987  1.0699  0.4055
11048TIP3    H254636   2.542   5.867  15.821 -0.4761  0.5323  0.8093
11049TIP3   OH254637   4.468   5.260  12.274 -0.2756 -0.0089  0.1518
11049TIP3    H154638   4.410   5.220  12.209 -0.0079  0.2606 -0.2598
11049TIP3    H254639   4.516   5.327  12.225  0.7600 -0.5686  0.3562
11050TIP3   OH254640   1.222   6.482  16.200  0.9009  0.3553 -0.7389
11050TIP3    H154641   1.246   6.390  16.193  2.2880  0.6036  0.3671
11050TIP3    H254642   1.305   6.529  16.193  0.1424  1.5801 -2.0227
11051TIP3   OH254643   5.918   5.121  13.771  0.4960  0.0210 -0.4744
11051TIP3    H154644   5.926   5.079  13.857  1.1063  3.0048  1.0633
11051TIP3    H254645   5.967   5.063  13.712 -0.4890 -2.4666  0.9879
11052TIP3   OH254646   0.531   6.623  17.068  0.2218  0.2111 -0.2969
11052TIP3    H154647   0.459   6.562  17.087  1.5920 -1.8917 -1.4306
11052TIP3    H254648   0.588   6.575  17.008  1.9401  2.2763 -0.4481
11053TIP3   OH254649   3.455   6.667   3.327  0.0329  0.6350 -0.1881
11053TIP3    H154650   3.361   6.681   3.340  0.0648 -0.1774  1.0798
11053TIP3    H254651   3.495   6.753   3.344 -0.3643  0.6654  0.6092
11054TIP3   OH254652   2.780   4.044   0.154  0.1430  0.3732 -0.1097
11054TIP3    H154653   2.741   4.042   0.066 -0.8360  2.9091  0.1697
11054TIP3    H254654   2.874   4.057   0.138  0.2170 -0.9072 -0.7764
11055TIP3   OH254655   2.352   5.426   2.775  0.5853 -0.8915 -0.5090
11055TIP3    H154656   2.390   5.500   2.728 -1.2752 -0.2546 -1.0750
11055TIP3    H254657   2.403   5.422   2.856  0.8005  0.9608 -0.4993
11056TIP3   OH254658   5.282   6.535   6.516 -0.0431  0.7872  0.2286
11056TIP3    H154659   5.256   6.543   6.608 -0.4617 -3.7278  0.7167
11056TIP3    H254660   5.200   6.526   6.468  0.2345  1.1840 -0.3380
11057TIP3   OH254661   3.053   1.174   0.407 -0.1690 -0.0272  0.1532
11057TIP3    H154662   3.004   1.187   0.326 -0.0943  0.2455  0.1516
11057TIP3    H254663   3.016   1.238   0.468  0.2017  0.2002  0.1450
11058TIP3   OH254664   1.418   1.361  16.138  0.3057  0.2516 -0.4373
11058TIP3    H154665   1.462   1.292  16.087 -0.6434  0.0990 -1.0772
11058TIP3    H254666   1.417   1.327  16.227  1.4285  0.2363 -0.4116
11059TIP3   OH254667   3.193   4.967  15.226 -0.0006 -0.4187  0.4872
11059TIP3    H154668   3.268   4.932  15.274  0.4587 -0.7858 -0.4788
11059TIP3    H254669   3.143   5.015  15.292  0.1431 -1.6379  1.5131
11060TIP3   OH254670   2.779   3.443  13.622  0.1701 -0.3775 -0.2280
11060TIP3    H154671   2.700   3.395  13.647 -0.2419  0.6952  0.5903
11060TIP3    H254672   2.764   3.533  13.653  0.9824  0.2590 -1.5894
11061TIP3   OH254673   5.382   5.295  10.933  0.3844  0.7213  0.7621
11061TIP3    H154674   5.451   5.359  10.955 -0.0651  0.9122  1.6800
11061TIP3    H254675   5.375   5.240  11.011  0.0784  0.1770  0.3519
11062TIP3   OH254676   3.489   0.471  15.502  0.5626 -0.0917 -0.7662
11062TIP3    H154677   3.474   0.527  15.425  0.7711  1.4881  0.2889
11062TIP3    H254678   3.546   0.401  15.470  0.1411  0.1707 -2.1874
11063TIP3   OH254679   0.441   6.023  11.444 -0.2128  0.0649  0.2773
11063TIP3    H154680   0.475   6.005  11.532 -0.1180  1.2156  0.5009
11063TIP3    H254681   0.514   6.065  11.399 -0.4085 -0.1046 -0.2010
11064TIP3   OH254682   6.254   2.648   1.241 -0.2740 -0.0075  0.0546
11064TIP3    H154683   6.236   2.577   1.303 -0.7539 -0.6578 -0.8108
11064TIP3    H254684   6.259   2.605   1.156  0.8450  0.8069 -0.3204
11065TIP3   OH254685   2.421   5.069   2.398 -0.3870 -0.1892 -0.2388
11065TIP3    H154686   2.443   4.978   2.416  0.5697  0.0397 -0.1802
11065TIP3    H254687   2.454   5.118   2.473  0.2971  0.3456 -0.8672
11066TIP3   OH254688   1.863   0.198  11.068 -0.1856  0.4371  0.1611
11066TIP3    H154689   1.856   0.263  10.997 -1.6199  0.5284  0.3574
11066TIP3    H254690   1.931   0.138  11.038 -1.1041  0.1707 -1.5757
11067TIP3   OH254691   3.163   2.672  11.323  0.2362 -0.0758  0.3835
11067TIP3    H154692   3.154   2.645  11.415 -1.3872 -2.8231 -0.4462
11067TIP3    H254693   3.257   2.682  11.310  0.9028 -3.5646  1.4539
11068TIP3   OH254694   5.010   0.894   4.316 -0.5167  0.2032  0.0444
11068TIP3    H154695   5.013   0.800   4.298 -0.9352 -0.0722  1.3265
11068TIP3    H254696   4.942   0.927   4.257 -0.5192 -0.3350 -0.2616
11069TIP3   OH254697   0.086   6.023  12.369 -0.3075  0.0453  0.4713
11069TIP3    H154698   0.131   5.939  12.363  0.5367  0.5770 -1.0738
11069TIP3    H254699   0.036   6.029  12.288  1.3731  1.9527 -0.5192
11070TIP3   OH254700   1.022   6.582   0.777  0.1752 -0.1370  0.4596
11070TIP3    H154701   0.937   6.625   0.774 -0.0896 -0.6031  1.0774
11070TIP3    H254702   1.004   6.491   0.753  0.5806 -0.1151  0.0683
11071TIP3   OH254703   5.257   4.741   1.462 -0.2004  0.0818 -0.6363
11071TIP3    H154704   5.349   4.748   1.488  0.6300 -1.1177 -2.9886
11071TIP3    H254705   5.235   4.648   1.474 -0.3112 -0.1492 -2.3773
11072TIP3   OH254706   6.511   6.735   4.401 -0.1647  0.0090 -0.4967
11072TIP3    H154707   6.553   6.810   4.358 -0.4499  0.8365  0.6188
11072TIP3    H254708   6.422   6.734   4.364  0.3319 -0.8169 -1.7341
11073TIP3   OH254709   3.749   0.237   3.715  0.1048 -0.5629  0.0580
11073TIP3    H154710   3.705   0.308   3.668 -2.6299  0.0022  3.1328
11073TIP3    H254711   3.741   0.260   3.807  4.7401 -1.8294  1.0442
11074TIP3   OH254712   0.537   6.453   2.424  0.1068 -0.3464  0.6302
11074TIP3    H154713   0.478   6.391   2.468 -1.6976  0.3447 -0.6792
11074TIP3    H254714   0.602   6.398   2.380 -0.0334 -1.1740  1.4356
11075TIP3   OH254715   5.802   1.869  14.088  0.1438 -0.4113  0.1239
11075TIP3    H154716   5.752   1.930  14.033  2.8461  2.0471  0.1330
11075TIP3    H254717   5.803   1.788  14.038 -1.6173  0.2249 -1.0618
11076TIP3   OH254718   6.090   1.743  15.949 -0.0877 -0.5735 -0.4715
11076TIP3    H154719   6.010   1.791  15.973  0.4796  0.6639 -0.9321
11076TIP3    H254720   6.161   1.796  15.986  0.6677 -0.0542 -2.5434
11077TIP3   OH254721   2.620   2.255  10.818  0.1905  0.1164 -0.3677
11077TIP3    H154722   2.565   2.213  10.752  0.9370 -0.5288 -0.5971
11077TIP3    H254723   2.692   2.193  10.832 -0.1117  0.1029  1.2772
11078TIP3   OH254724   0.742   1.919  15.472  0.7713 -0.1057  0.0739
11078TIP3    H154725   0.821   1.969  15.493  0.1259  0.2080  1.9589
11078TIP3    H254726   0.679   1.985  15.444 -0.1260  0.2690  2.6977
11079TIP3   OH254727   1.950   0.204  12.469 -0.4271  0.4151  0.1876
11079TIP3    H154728   1.960   0.157  12.386  0.5879  0.6354  0.1717
11079TIP3    H254729   1.990   0.146  12.534  1.0838  1.3364  0.1275
11080TIP3   OH254730   3.989   5.803   3.072 -0.1104 -0.0846  0.6543
11080TIP3    H154731   3.938   5.724   3.087 -0.2720 -0.0883  0.0756
11080TIP3    H254732   4.079   5.772   3.063 -0.1830 -0.2109  0.3569
11081TIP3   OH254733   4.576   5.078   3.282 -0.7215  0.1108  0.3142
11081TIP3    H154734   4.585   5.123   3.366 -0.3488 -1.0739  0.9223
11081TIP3    H254735   4.579   5.149   3.217  1.0747  0.8795  1.1654
11082TIP3   OH254736   3.171   5.525   6.668 -0.2484 -0.5938 -0.2378
11082TIP3    H154737   3.202   5.464   6.735 -1.6339 -0.6944  0.3312
11082TIP3    H254738   3.251   5.569   6.637  0.3282  0.2196  2.2291
11083TIP3   OH254739   3.800   0.586  16.392 -0.7420 -0.2844 -0.2394
11083TIP3    H154740   3.851   0.661  16.360  0.3578 -1.6627 -1.8835
11083TIP3    H254741   3.756   0.619  16.471  2.0573  1.2295  0.8184
11084TIP3   OH254742   3.447   3.647  17.143 -0.0288  0.1850  0.4034
11084TIP3    H154743   3.424   3.718  17.083  0.3039 -0.9448 -1.1247
11084TIP3    H254744   3.395   3.572  17.113  0.8818 -0.6792  0.9108
11085TIP3   OH254745   6.195   4.208   2.460  0.4033  0.4618  0.0498
11085TIP3    H154746   6.114   4.173   2.498  0.8144  0.3619  0.8580
11085TIP3    H254747   6.265   4.171   2.514  0.8798  2.1631  0.6822
11086TIP3   OH254748   4.462   3.587   4.198  0.7468 -0.3244 -0.1008
11086TIP3    H154749   4.489   3.667   4.154  0.5373 -0.9698 -1.4459
11086TIP3    H254750   4.366   3.590   4.198  0.7186 -0.9819 -0.9582
11087TIP3   OH254751   0.941   6.325  15.804  0.3353 -0.3331  0.4462
11087TIP3    H154752   0.942   6.367  15.718  3.9566  1.2162  1.0475
11087TIP3    H254753   0.870   6.368  15.851  0.2973  1.0516 -0.7942
11088TIP3   OH254754   2.902   6.348  15.500 -0.4345  0.4116 -0.2605
11088TIP3    H154755   2.877   6.398  15.578 -0.5729  1.8380 -1.1768
11088TIP3    H254756   2.992   6.321  15.516 -0.5049  0.5883  0.4500
11089TIP3   OH254757   6.595   0.261   3.393 -0.1846  0.1853 -0.1786
11089TIP3    H154758   6.544   0.305   3.326 -1.2387 -0.8924 -0.1264
11089TIP3    H254759   6.634   0.186   3.349  0.2495  0.2510  0.0907
11090TIP3   OH254760   6.178   4.791   3.019 -0.1337  0.2069 -0.8755
11090TIP3    H154761   6.203   4.868   2.969 -0.3913 -0.0164 -1.3503
11090TIP3    H254762   6.207   4.810   3.108  0.6915  0.4276 -1.1884
11091TIP3   OH254763   4.761   0.843  12.424 -0.0303 -0.5748 -0.1998
11091TIP3    H154764   4.694   0.884  12.479  0.0706 -0.8545  0.1314
11091TIP3    H254765   4.780   0.760  12.467 -0.4846 -1.1393 -1.0593
11092TIP3   OH254766   6.812   5.166  15.960  0.0022  0.6204 -0.2689
11092TIP3    H154767   6.794   5.211  15.877 -1.6922 -0.1196 -0.3526
11092TIP3    H254768   6.880   5.103  15.939 -0.3490  0.5013 -1.0934
11093TIP3   OH254769   4.478   4.740  15.780  0.2207 -0.5460 -0.0179
11093TIP3    H154770   4.531   4.798  15.725 -0.5706  0.8262  0.6434
11093TIP3    H254771   4.527   4.657  15.779  0.2025 -0.6415 -2.8592
11094TIP3   OH254772   0.225   2.971  11.414 -0.3541 -0.0991 -0.0375
11094TIP3    H154773   0.175   3.022  11.478  1.8135  1.5699  0.4429
11094TIP3    H254774   0.301   2.939  11.463 -0.6838 -2.2700 -0.8324
11095TIP3   OH254775   4.884   2.909  14.861  0.6740 -0.0298  0.2775
11095TIP3    H154776   4.880   3.004  14.872 -0.4901  0.4594 -3.2859
11095TIP3    H254777   4.795   2.884  14.837  0.9175 -2.1264  1.3341
11096TIP3   OH254778   2.093   3.557   6.631  0.7952 -0.0148  0.6955
11096TIP3    H154779   2.181   3.532   6.602  0.1031 -0.2499 -1.3275
11096TIP3    H254780   2.073   3.636   6.581  0.4295  0.9222  2.2739
11097TIP3   OH254781   2.346   4.088  15.458 -0.0215 -0.2448  0.5151
11097TIP3    H154782   2.341   3.996  15.485  0.2548  0.1230  1.8796
11097TIP3    H254783   2.411   4.127  15.516  1.4866  0.3566 -1.4735
11098TIP3   OH254784   3.135   4.284  13.000 -0.1322  0.3147 -0.0313
11098TIP3    H154785   3.104   4.357  13.053  0.7150 -0.5108  1.6658
11098TIP3    H254786   3.224   4.268  13.029 -0.7055 -2.2247  0.6542
11099TIP3   OH254787   1.531   2.178  11.880  0.2645  0.3009 -0.9383
11099TIP3    H154788   1.609   2.123  11.875  0.6205  0.7330 -0.2910
11099TIP3    H254789   1.464   2.121  11.919  0.3994  0.0839 -1.0219
11100TIP3   OH254790   1.200   6.286   2.946 -0.4050 -0.1551 -0.1964
11100TIP3    H154791   1.160   6.303   3.031  1.7747  1.1558  0.6781
11100TIP3    H254792   1.274   6.229   2.966 -1.3112 -1.9272 -1.6308
11101TIP3   OH254793   1.463   1.465   3.474 -0.5563 -0.0325  0.3525
11101TIP3    H154794   1.435   1.523   3.403 -1.3560 -0.5491  0.2353
11101TIP3    H254795   1.513   1.521   3.533  0.8044  0.2548 -1.0110
11102TIP3   OH254796   1.822   5.808  15.024  0.2178 -0.0609 -0.5170
11102TIP3    H154797   1.860   5.834  15.108 -1.2266  0.4195  0.0097
11102TIP3    H254798   1.832   5.886  14.969  1.3978 -0.4587 -0.9071
11103TIP3   OH254799   4.911   0.335  16.805  0.6780 -0.6290 -0.2534
11103TIP3    H154800   4.887   0.419  16.764 -1.8302 -1.5217 -0.8305
11103TIP3    H254801   4.958   0.288  16.736  0.7056 -0.3054 -0.4610
11104TIP3   OH254802   0.328   3.497   4.458 -0.5293 -0.0809  0.2178
11104TIP3    H154803   0.392   3.528   4.394 -0.6397 -0.8812 -0.2911
11104TIP3    H254804   0.375   3.502   4.542 -0.2356  0.5503  0.0214
11105TIP3   OH254805   3.894   3.473   1.540 -0.0036 -0.4242 -0.2291
11105TIP3    H154806   3.849   3.492   1.623  2.0451 -1.3109  1.1718
11105TIP3    H254807   3.826   3.434   1.485 -1.4585  0.2630  0.9953
11106TIP3   OH254808   3.267   6.316   3.684  0.1893 -0.1568  0.3080
11106TIP3    H154809   3.197   6.290   3.625  0.6924 -1.7199  0.3504
11106TIP3    H254810   3.310   6.390   3.640 -0.9426  0.2716 -0.1027
11107TIP3   OH254811   1.690   3.720  12.732 -0.5435  0.2569  0.2596
11107TIP3    H154812   1.697   3.713  12.636 -0.5236  3.3069 -0.0696
11107TIP3    H254813   1.781   3.716  12.763 -0.4793  0.1107  0.0554
11108TIP3   OH254814   0.143   1.113   6.013  0.2786 -0.3896 -0.4087
11108TIP3    H154815   0.220   1.079   6.059  0.0343 -1.0946 -0.5108
11108TIP3    H254816   0.080   1.041   6.016 -0.1708 -0.0166 -0.8210
11109TIP3   OH254817   3.824   0.468  17.158  0.5676 -0.1213  0.6286
11109TIP3    H154818   3.919   0.477  17.150  0.3692  0.6283 -1.3564
11109TIP3    H254819   3.813   0.397  17.221  2.4598 -0.7358  0.3568
11110TIP3   OH254820   6.397   0.367  13.845 -0.5668  0.3243  0.0411
11110TIP3    H154821   6.362   0.390  13.931 -0.5953  0.0439  0.1035
11110TIP3    H254822   6.395   0.272  13.843  0.8161  0.2735  0.2976
11111TIP3   OH254823   4.240   5.708   2.971  0.2208  0.0600  0.1762
11111TIP3    H154824   4.193   5.690   2.890 -1.1909  1.2897  0.6858
11111TIP3    H254825   4.241   5.623   3.017 -1.9625  0.0891  0.3609
11112TIP3   OH254826   5.044   0.630  12.315 -0.0410 -0.4799  0.4166
11112TIP3    H154827   4.951   0.611  12.322  0.0315 -0.9349  0.2178
11112TIP3    H254828   5.084   0.581  12.387  0.0789 -0.5557  0.2994
11113TIP3   OH254829   4.824   3.834   2.084 -0.7074 -0.4828  0.2491
11113TIP3    H154830   4.774   3.752   2.084 -1.2186 -0.1754  0.7082
11113TIP3    H254831   4.784   3.886   2.013  0.2712 -1.0096 -0.7247
11114TIP3   OH254832   4.229   1.320   5.550 -0.9917 -0.5708 -0.5969
11114TIP3    H154833   4.237   1.415   5.549  0.4587 -0.6423  0.5461
11114TIP3    H254834   4.168   1.300   5.479 -2.3265  1.2821 -0.0358
11115TIP3   OH254835   1.376   3.750  11.718  0.1403 -0.1730 -0.5609
11115TIP3    H154836   1.397   3.800  11.640  0.5388 -2.3503 -1.9220
11115TIP3    H254837   1.286   3.721  11.705  0.7739 -2.0243 -1.1124
11116TIP3   OH254838   1.846   3.513  14.958 -0.1098  0.3897 -0.0848
11116TIP3    H154839   1.901   3.495  15.035 -1.0503 -3.3121 -0.0819
11116TIP3    H254840   1.900   3.486  14.884 -0.3576  0.9278 -0.4620
11117TIP3   OH254841   4.483   5.503   3.879  0.5767  0.1172 -0.0303
11117TIP3    H154842   4.535   5.569   3.833 -0.8927  0.0670 -1.8712
11117TIP3    H254843   4.406   5.551   3.910  0.1928 -0.4344 -0.1209
11118TIP3   OH254844   0.649   1.948  15.814  0.4029  0.3645  0.1681
11118TIP3    H154845   0.620   2.005  15.743  1.8389  1.3629  0.3442
11118TIP3    H254846   0.582   1.956  15.881 -0.0509  0.8351 -0.3367
11119TIP3   OH254847   1.179   0.099  16.056  0.6242 -0.1482 -0.1949
11119TIP3    H154848   1.144   0.020  16.096  0.5670  0.4293  0.9650
11119TIP3    H254849   1.151   0.170  16.115  3.1915  0.4200  0.4763
11120TIP3   OH254850   4.815   4.733  14.075  0.4888  0.1580  0.3124
11120TIP3    H154851   4.757   4.699  14.007  2.0269  0.9587 -1.4853
11120TIP3    H254852   4.766   4.722  14.156 -1.2638 -1.1984 -0.8593
11121TIP3   OH254853   4.531   2.664  14.535 -0.1623  0.0795 -0.0512
11121TIP3    H154854   4.536   2.678  14.441 -0.7263 -0.1148 -0.1104
11121TIP3    H254855   4.453   2.610  14.548  0.5402 -0.8617  0.4178
11122TIP3   OH254856   2.239   1.173   2.150  0.0136 -0.4919 -0.0327
11122TIP3    H154857   2.194   1.162   2.233 -2.5479 -0.2860 -1.3187
11122TIP3    H254858   2.228   1.265   2.127  0.2635 -0.6466 -0.8296
11123TIP3   OH254859   2.772   3.601   2.506 -0.4240 -0.4836  0.0232
11123TIP3    H154860   2.801   3.560   2.425  1.4233  0.3254  0.2147
11123TIP3    H254861   2.712   3.670   2.479 -0.6873 -0.9393 -0.5619
11124TIP3   OH254862   0.110   0.322   1.987 -0.5040  0.3763 -0.5955
11124TIP3    H154863   0.075   0.344   1.900 -0.3838 -0.4261 -0.8539
11124TIP3    H254864   0.032   0.310   2.041 -0.5911  0.2924 -0.7375
11125TIP3   OH254865   4.187   1.595   5.545 -0.0960 -0.3149 -0.4393
11125TIP3    H154866   4.118   1.627   5.487  0.7165  1.2962 -0.6005
11125TIP3    H254867   4.180   1.650   5.623  2.1159  1.2274 -1.2129
11126TIP3   OH254868   6.342   4.147   0.011  0.5925 -0.4666 -0.6712
11126TIP3    H154869   6.268   4.208   0.013  1.1448  0.2171 -0.3659
11126TIP3    H254870   6.365   4.135   0.104  1.3271 -0.0760 -0.7916
11127TIP3   OH254871   1.329   3.710  14.203  0.4549 -0.1237  0.0828
11127TIP3    H154872   1.327   3.803  14.225  0.7047  1.1208 -4.1751
11127TIP3    H254873   1.412   3.698  14.156 -0.0102 -2.2495 -0.3085
11128TIP3   OH254874   1.953   0.397   5.809 -0.2549  0.3005 -0.0754
11128TIP3    H154875   1.949   0.447   5.890  0.3256 -0.1011  0.2023
11128TIP3    H254876   1.935   0.462   5.740  0.7092  0.9483  0.2663
11129TIP3   OH254877   4.518   6.819   6.425  0.2322 -0.1479 -0.0485
11129TIP3    H154878   4.592   6.832   6.485  0.6175 -0.0371 -0.5439
11129TIP3    H254879   4.444   6.862   6.468  0.4332 -0.3275  0.4876
11130TIP3   OH254880   4.486   2.766  14.279 -0.4280 -0.0334 -0.1652
11130TIP3    H154881   4.497   2.732  14.191  0.0973 -2.1302  0.6538
11130TIP3    H254882   4.404   2.816  14.276  0.5284  1.5830 -2.2571
11131TIP3   OH254883   5.204   3.225  16.001 -0.3892  0.1398 -0.1814
11131TIP3    H154884   5.140   3.158  15.977 -0.3122 -1.0677  2.5430
11131TIP3    H254885   5.152   3.292  16.046 -0.2004  1.0053 -1.2222
11132TIP3   OH254886   0.734   5.608  13.520 -0.3673  0.4832  0.3042
11132TIP3    H154887   0.794   5.534  13.532 -1.3187 -0.4710 -0.5694
11132TIP3    H254888   0.656   5.583  13.569  0.5042  2.5225  2.9563
11133TIP3   OH254889   4.859   0.966   1.159  0.7822 -0.0289  0.1189
11133TIP3    H154890   4.772   0.979   1.123  0.6652  0.3959  0.5409
11133TIP3    H254891   4.862   0.874   1.184 -0.0964  0.2949  1.5197
11134TIP3   OH254892   5.546   1.439  16.183 -0.5109 -0.1586 -0.2827
11134TIP3    H154893   5.454   1.434  16.207 -1.3218 -0.5629 -3.1859
11134TIP3    H254894   5.552   1.515  16.125  1.2589  0.5531  0.7174
11135TIP3   OH254895   4.130   4.973   1.617  0.0436 -0.2536 -0.7405
11135TIP3    H154896   4.207   5.005   1.571 -0.2638  0.7292 -0.5920
11135TIP3    H254897   4.165   4.923   1.690  0.6183  2.3507  0.8789
11136TIP3   OH254898   0.800   1.704   2.324 -0.6801 -0.3341  0.2335
11136TIP3    H154899   0.767   1.649   2.395 -0.1890  0.4401  1.0861
11136TIP3    H254900   0.774   1.793   2.349  2.2052  0.3648  1.1128
11137TIP3   OH254901   1.797   1.729   3.539 -0.3834 -0.0676 -0.0572
11137TIP3    H154902   1.752   1.659   3.586  0.4850 -0.1894  0.6149
11137TIP3    H254903   1.753   1.809   3.569  0.8616 -0.0390  1.8603
11138TIP3   OH254904   3.377   2.507   1.787 -0.1432  0.2790  0.1697
11138TIP3    H154905   3.466   2.531   1.812 -0.7246  0.1274  2.6486
11138TIP3    H254906   3.336   2.478   1.869 -2.3650  0.0072 -0.9629
11139TIP3   OH254907   3.579   6.261   2.642 -0.0607  0.0804 -0.3667
11139TIP3    H154908   3.529   6.204   2.702 -1.8510  3.0086  1.1666
11139TIP3    H254909   3.628   6.319   2.700  3.5150 -1.1935 -1.8761
11140TIP3   OH254910   5.423   5.993  11.265  0.2542 -0.4248  0.1493
11140TIP3    H154911   5.434   5.913  11.317  1.2645 -0.4652 -0.1168
11140TIP3    H254912   5.377   6.053  11.323  0.5279 -0.7967  0.7541
11141TIP3   OH254913   2.661   6.476   5.521 -0.2308 -0.2474  0.3480
11141TIP3    H154914   2.692   6.550   5.572 -0.2428 -0.0490  0.0680
11141TIP3    H254915   2.716   6.402   5.549  0.7186  0.1619 -0.3716
11142TIP3   OH254916   3.922   3.571  16.418  0.0863  0.3060 -0.3957
11142TIP3    H154917   3.926   3.645  16.478  1.2786  0.1601 -0.2607
11142TIP3    H254918   3.889   3.607  16.336  3.0844  1.6090 -1.1645
11143TIP3   OH254919   3.051   6.461  14.268  0.4804 -0.5595 -0.2856
11143TIP3    H154920   3.043   6.557  14.268  0.9248 -0.4411  2.0565
11143TIP3    H254921   3.144   6.445  14.250  0.2089 -0.6287 -1.7090
11144TIP3   OH254922   2.524   4.793   4.139 -0.4668  0.1050  0.4380
11144TIP3    H154923   2.527   4.843   4.058 -0.9048 -0.6639 -0.0635
11144TIP3    H254924   2.547   4.704   4.114 -1.0530 -0.2378  1.0723
11145TIP3   OH254925   1.976   1.268   2.984  0.2239 -0.1895  0.1406
11145TIP3    H154926   1.988   1.234   3.073 -0.0841  1.2354  0.7630
11145TIP3    H254927   1.902   1.329   2.992 -0.1319 -0.4123 -1.2155
11146TIP3   OH254928   5.927   1.973   1.456  0.2160  0.2432 -0.3764
11146TIP3    H154929   5.886   1.919   1.523 -0.0217 -0.7460 -1.2996
11146TIP3    H254930   5.864   1.974   1.384 -0.4266  2.8963  0.1006
11147TIP3   OH254931   0.661   5.552   3.797 -0.1783 -0.5760 -0.7443
11147TIP3    H154932   0.605   5.497   3.852 -0.0118  1.5988  1.7963
11147TIP3    H254933   0.604   5.582   3.726 -1.7394  0.0356  0.7037
11148TIP3   OH254934   0.555   3.492  13.592 -0.3580  0.2140 -0.7964
11148TIP3    H154935   0.517   3.447  13.515  2.2602 -0.9202 -1.5347
11148TIP3    H254936   0.499   3.569  13.604 -1.7536 -0.3579 -2.9167
11149TIP3   OH254937   5.434   5.582   1.640 -0.6830  0.0823  0.0961
11149TIP3    H154938   5.462   5.511   1.698  1.8418  0.7118 -0.2219
11149TIP3    H254939   5.411   5.654   1.699 -0.0305  0.0712  0.3742
11150TIP3   OH254940   5.999   4.430   2.473  0.7511  0.0391  0.0943
11150TIP3    H154941   6.012   4.483   2.552  0.3939  2.1304 -1.1998
11150TIP3    H254942   6.080   4.379   2.466  1.3781  0.8413  1.0540
11151TIP3   OH254943   4.585   0.121  14.755 -0.5285 -0.1714  0.7049
11151TIP3    H154944   4.636   0.124  14.837 -1.8190  0.9410  1.5015
11151TIP3    H254945   4.590   0.210  14.721  0.1311 -0.6645 -0.5529
11152TIP3   OH254946   0.464   1.674   2.296  0.3303  0.1280 -0.4648
11152TIP3    H154947   0.450   1.661   2.202 -0.1680  1.5839 -0.6290
11152TIP3    H254948   0.391   1.629   2.337 -1.3843  2.1977 -0.9983
11153TIP3   OH254949   4.849   1.093   1.633  0.0259 -0.1133  0.3186
11153TIP3    H154950   4.754   1.102   1.623 -0.1235  2.2975  2.6970
11153TIP3    H254951   4.860   1.007   1.674 -0.9327 -1.1411 -1.4633
11154TIP3   OH254952   5.541   5.005   1.452 -0.0220 -0.3641 -0.0158
11154TIP3    H154953   5.637   5.001   1.445  0.0555 -0.3001  0.9002
11154TIP3    H254954   5.511   5.014   1.362  0.9779  2.5043 -0.1488
11155TIP3   OH254955   0.438   4.007  13.631  0.4055 -0.3502 -0.3092
11155TIP3    H154956   0.466   4.039  13.717 -0.4634 -0.5962  0.0714
11155TIP3    H254957   0.413   3.916  13.647 -2.5718  0.4048 -0.1658
11156TIP3   OH254958   1.129   4.297   4.903 -0.6030 -0.2415 -0.4360
11156TIP3    H154959   1.100   4.301   4.994  1.1980 -1.9030  0.2873
11156TIP3    H254960   1.065   4.240   4.860 -0.7120 -0.5572  0.1333
11157TIP3   OH254961   5.599   6.328  13.535  0.5346 -0.1693 -0.7722
11157TIP3    H154962   5.629   6.412  13.568  1.4945  0.0939 -2.2450
11157TIP3    H254963   5.578   6.277  13.614  1.1323  0.9994  0.1695
11158TIP3   OH254964   0.752   3.229  13.590 -0.7619 -0.7152 -0.1290
11158TIP3    H154965   0.784   3.313  13.557  0.3932 -1.3471 -0.6723
11158TIP3    H254966   0.749   3.172  13.513 -0.9291 -1.3601  0.3454
11159TIP3   OH254967   6.771   5.436  11.515 -0.0661  0.0731 -0.0456
11159TIP3    H154968   6.835   5.367  11.533  0.5250  0.1850 -1.5721
11159TIP3    H254969   6.823   5.516  11.513 -0.6364  0.4937  0.9510
11160TIP3   OH254970   5.957   0.266  14.538  0.4706 -0.5833  0.0180
11160TIP3    H154971   6.042   0.299  14.509  1.3331  0.4035  3.2589
11160TIP3    H254972   5.971   0.172  14.550  0.7049 -0.6406 -0.6384
11161TIP3   OH254973   4.723   2.361   5.827 -0.0545  0.0091  0.1378
11161TIP3    H154974   4.674   2.288   5.865  0.8548 -0.6529  0.0608
11161TIP3    H254975   4.655   2.422   5.797 -0.8438 -0.9974 -0.1909
11162TIP3   OH254976   1.262   0.505   5.412  0.0926 -0.4966 -0.1758
11162TIP3    H154977   1.224   0.528   5.327  0.5873 -0.6169 -0.4305
11162TIP3    H254978   1.356   0.517   5.401  0.4296 -2.8001 -0.4160
11163TIP3   OH254979   1.375   1.322   3.115  0.2398 -0.5049  0.0458
11163TIP3    H154980   1.291   1.363   3.133 -0.0690 -0.7290 -0.8424
11163TIP3    H254981   1.401   1.357   3.030  0.9832 -0.5447  0.2440
11164TIP3   OH254982   1.891   6.006  16.581  0.3715 -0.3118 -0.3152
11164TIP3    H154983   1.966   6.048  16.623 -1.1144  1.7924  0.3801
11164TIP3    H254984   1.820   6.015  16.644 -1.0910 -0.0149 -1.9382
11165TIP3   OH254985   2.195   4.037   5.477 -0.0757 -0.8850 -0.1826
11165TIP3    H154986   2.128   3.990   5.427 -1.1550 -0.9056  1.2156
11165TIP3    H254987   2.155   4.122   5.496  0.8143 -0.4046 -0.4071
11166TIP3   OH254988   3.241   5.097   4.397  0.1501 -0.0083 -0.0516
11166TIP3    H154989   3.202   5.010   4.405  1.3337 -0.6539 -0.8924
11166TIP3    H254990   3.169   5.153   4.367 -0.9348 -0.4001  1.6785
11167TIP3   OH254991   4.184   0.871  15.551 -0.2728  0.1300  0.0919
11167TIP3    H154992   4.124   0.815  15.501  0.9692 -0.8647 -0.3288
11167TIP3    H254993   4.201   0.821  15.631  0.4350  0.1485 -0.0469
11168TIP3   OH254994   2.929   3.487  14.999  0.1029  0.3989 -0.5398
11168TIP3    H154995   2.979   3.497  15.080  0.2587 -1.5300 -0.3479
11168TIP3    H254996   2.838   3.479  15.028  0.1621 -0.3247 -0.5339
11169TIP3   OH254997   1.759   5.864   4.787 -0.0383  0.1242 -0.2263
11169TIP3    H154998   1.754   5.959   4.800 -1.6566  0.3684 -2.1515
11169TIP3    H254999   1.757   5.827   4.875  1.8529  1.8747  0.6373
11170TIP3   OH255000   0.685   6.210  13.601 -0.0206  0.5327 -0.1824
11170TIP3    H155001   0.686   6.177  13.691 -0.2572  0.7440 -0.0995
11170TIP3    H255002   0.749   6.156  13.555 -0.0936  0.2464  0.0489
11171TIP3   OH255003   3.817   1.432  15.109  0.1090 -0.2860 -0.2827
11171TIP3    H155004   3.865   1.507  15.074 -1.2476  0.0887 -1.4308
11171TIP3    H255005   3.877   1.358  15.097  1.1938  0.4841  0.2401
11172TIP3   OH255006   4.632   2.744  10.314  0.2436  0.2999 -0.7138
11172TIP3    H155007   4.714   2.791  10.303  0.6691 -0.2340  0.0992
11172TIP3    H255008   4.606   2.763  10.404  0.6198 -1.3145 -0.2343
11173TIP3   OH255009   1.422   6.211  11.254  0.2940 -0.1554 -0.3534
11173TIP3    H155010   1.340   6.209  11.303 -0.4067 -0.9385 -1.5186
11173TIP3    H255011   1.482   6.158  11.307 -0.7699 -1.9150 -0.8376
11174TIP3   OH255012   6.792   6.239   5.736  0.4732 -0.2945  0.0793
11174TIP3    H155013   6.817   6.328   5.760 -1.8501 -0.2071  2.6462
11174TIP3    H255014   6.697   6.243   5.724  0.4038 -2.2902 -0.4730
11175TIP3   OH255015   2.170   3.913  14.838  0.5006 -0.5049 -0.0032
11175TIP3    H155016   2.248   3.890  14.788  0.5276 -0.1214 -0.1469
11175TIP3    H255017   2.108   3.946  14.773  0.2299 -0.7796  0.1144
11176TIP3   OH255018   6.299   4.544   3.557  0.6881 -0.0665 -0.1596
11176TIP3    H155019   6.366   4.537   3.489 -0.9101  3.4517 -2.4212
11176TIP3    H255020   6.341   4.593   3.628  0.4388  3.3112 -2.1012
11177TIP3   OH255021   2.720   0.389  15.358 -0.2088  0.7772 -0.3068
11177TIP3    H155022   2.748   0.387  15.449  1.0669  1.7058 -0.6506
11177TIP3    H255023   2.685   0.301  15.341  1.9410 -0.2729  0.3536
11178TIP3   OH255024   0.404   0.759  14.877  0.0016  0.0074  0.3060
11178TIP3    H155025   0.428   0.849  14.899 -0.3250  0.4820 -1.2132
11178TIP3    H255026   0.322   0.745  14.925 -1.0675  1.2618 -1.0711
11179TIP3   OH255027   4.785   2.931  15.335  0.3507  0.2408 -0.5134
11179TIP3    H155028   4.855   2.904  15.275  0.3153 -0.0694 -0.4169
11179TIP3    H255029   4.726   2.856  15.338  0.3594  0.2483 -0.0771
11180TIP3   OH255030   0.509   6.069  16.955  0.3374  0.3415 -0.0078
11180TIP3    H155031   0.467   6.004  17.012  1.1522 -0.3911 -0.2170
11180TIP3    H255032   0.487   6.040  16.866  1.8785 -0.5183 -0.1547
11181TIP3   OH255033   2.348   4.686   4.564  0.3028  0.4571  0.1563
11181TIP3    H155034   2.266   4.654   4.526 -0.2515 -0.2507  1.8594
11181TIP3    H255035   2.400   4.608   4.580  1.7581  0.9565 -1.7486
11182TIP3   OH255036   5.763   1.130  13.166  0.1813 -0.6581 -0.3662
11182TIP3    H155037   5.742   1.101  13.255 -0.2852  0.8150  0.0360
11182TIP3    H255038   5.830   1.197  13.178  0.3563 -0.6783 -1.1613
11183TIP3   OH255039   5.744   1.285   3.770 -0.1807 -0.0535 -0.0936
11183TIP3    H155040   5.710   1.197   3.788 -0.5199  0.0409 -0.2556
11183TIP3    H255041   5.807   1.301   3.840 -2.0155  0.6129  1.5252
11184TIP3   OH255042   0.126   1.430  16.593  0.1942 -0.4443 -0.0798
11184TIP3    H155043   0.033   1.431  16.568  0.2236  1.8154 -0.3431
11184TIP3    H255044   0.173   1.444  16.511  0.6715  0.0008  0.2623
11185TIP3   OH255045   0.942   1.311   2.967  0.2089 -0.0543 -0.0021
11185TIP3    H155046   0.917   1.223   2.994  1.4016 -0.5435 -0.4060
11185TIP3    H255047   0.905   1.320   2.879  0.2989 -0.2566 -0.0621
11186TIP3   OH255048   1.116   2.992  16.917 -0.0422 -0.0204 -0.6451
11186TIP3    H155049   1.024   3.013  16.902 -1.0891 -1.8598  2.3842
11186TIP3    H255050   1.156   3.075  16.942 -1.1002  0.6251 -1.0608
11187TIP3   OH255051   5.311   5.291  13.924 -0.1086 -0.3167  0.2396
11187TIP3    H155052   5.241   5.227  13.913 -0.0729 -0.3889  0.4297
11187TIP3    H255053   5.355   5.294  13.840 -1.5102  1.1195 -0.5071
11188TIP3   OH255054   2.856   3.435   0.368 -0.4043 -0.1787 -0.0669
11188TIP3    H155055   2.909   3.484   0.305  0.9190 -1.6593 -0.1638
11188TIP3    H255056   2.776   3.413   0.321  0.1509 -0.4316 -0.9109
11189TIP3   OH255057   6.789   1.929  13.504 -0.3561 -0.1178 -0.1431
11189TIP3    H155058   6.782   1.855  13.565  0.4685  0.1075  0.2325
11189TIP3    H255059   6.879   1.960  13.514  0.4121 -1.2371 -2.7962
11190TIP3   OH255060   1.169   5.991  11.941  0.1291 -0.1009  0.5442
11190TIP3    H155061   1.227   5.997  12.017  1.4982 -2.4842 -0.2206
11190TIP3    H255062   1.081   5.982  11.980  0.5303  0.8956  1.7682
11191TIP3   OH255063   4.986   1.152   1.980  0.1353  0.0391 -0.0391
11191TIP3    H155064   5.081   1.158   1.991  0.2256  0.9085 -1.0719
11191TIP3    H255065   4.963   1.231   1.930 -0.9025 -0.9665 -1.1950
11192TIP3   OH255066   5.655   4.937  13.841  0.0365 -0.3067 -0.0614
11192TIP3    H155067   5.718   4.953  13.910 -0.6438 -1.6082  0.9127
11192TIP3    H255068   5.595   5.012  13.844  1.5739  1.0145 -1.0996
11193TIP3   OH255069   2.075   1.742   3.626  0.1608  0.4227 -0.3095
11193TIP3    H155070   1.985   1.741   3.593 -0.2486  1.2151  0.7165
11193TIP3    H255071   2.102   1.650   3.626 -0.5433  0.2078 -0.9102
11194TIP3   OH255072   6.157   4.158   4.962  0.7322 -0.0977 -0.2290
11194TIP3    H155073   6.238   4.190   5.003  1.6827 -0.8346 -1.4573
11194TIP3    H255074   6.181   4.143   4.870 -0.9365  0.1106 -0.7258
11195TIP3   OH255075   6.418   1.684  13.842  0.1107  0.0959  0.5148
11195TIP3    H155076   6.331   1.650  13.823  0.7326 -0.7383 -0.9774
11195TIP3    H255077   6.402   1.773  13.875 -1.3094 -0.1732  0.6116
11196TIP3   OH255078   4.487   0.118   1.581  0.2490 -0.1491 -0.8018
11196TIP3    H155079   4.521   0.168   1.655 -1.0877  0.7745 -0.7773
11196TIP3    H255080   4.497   0.026   1.607  0.4817  0.1520  0.1939
11197TIP3   OH255081   3.569   2.752  11.383 -0.1291  0.3436  0.0102
11197TIP3    H155082   3.595   2.661  11.391  0.8966  0.5384 -0.8317
11197TIP3    H255083   3.533   2.775  11.469 -4.2361 -1.9436 -0.8173
11198TIP3   OH255084   1.927   2.743  11.393  0.1263  0.1451  0.3848
11198TIP3    H155085   1.965   2.656  11.381 -0.2561 -0.3182  2.2280
11198TIP3    H255086   1.871   2.756  11.316  0.7042 -0.9461 -0.2392
11199TIP3   OH255087   2.316   3.567  11.210  0.1308 -0.9413 -0.1590
11199TIP3    H155088   2.266   3.526  11.140  0.9652 -1.2146 -0.6145
11199TIP3    H255089   2.407   3.543  11.192  0.3913 -0.7916  0.8672
11200TIP3   OH255090   4.506   6.301  14.072 -0.0772  0.1188 -0.1714
11200TIP3    H155091   4.523   6.264  14.159  2.5064 -0.6223 -0.8931
11200TIP3    H255092   4.501   6.396  14.087  1.6784  0.1301  0.6815
11201TIP3   OH255093   0.441   2.347  14.605 -0.1823 -0.0289  0.6004
11201TIP3    H155094   0.366   2.334  14.547  1.0853  0.0796 -1.1678
11201TIP3    H255095   0.484   2.261  14.607  0.6990  0.3828 -0.0147
11202TIP3   OH255096   4.017   3.652  14.855 -0.1253  0.0522  0.0042
11202TIP3    H155097   3.951   3.708  14.815 -0.7143 -0.7395 -0.1615
11202TIP3    H255098   4.007   3.666  14.949  0.5021  1.0703 -0.0720
11203TIP3   OH255099   5.355   6.020  13.179  0.1097 -0.5752  0.3138
11203TIP3    H155100   5.344   6.090  13.243  0.1829  1.3873 -1.7221
11203TIP3    H255101   5.342   6.062  13.094 -2.3857 -3.4894 -0.9585
11204TIP3   OH255102   3.549   2.236  16.749  0.3994  0.0449 -0.1898
11204TIP3    H155103   3.457   2.235  16.720  0.1352  0.1234  0.6320
11204TIP3    H255104   3.544   2.248  16.843  1.2833  0.9183 -0.2461
11205TIP3   OH255105   2.866   5.501   6.266 -0.0785  0.5124  0.2266
11205TIP3    H155106   2.911   5.500   6.351  0.6647  0.0324 -0.1619
11205TIP3    H255107   2.793   5.440   6.276  0.7741 -0.5444  0.1256
11206TIP3   OH255108   4.117   1.229   4.435 -0.0294 -0.1549  0.1732
11206TIP3    H155109   4.076   1.190   4.512 -0.3048  0.5520  0.3855
11206TIP3    H255110   4.210   1.234   4.457  0.1357 -1.3940 -0.1547
11207TIP3   OH255111   0.113   0.771   2.541  0.1730  0.1620 -0.6277
11207TIP3    H155112   0.019   0.765   2.556 -0.6593  0.5715 -4.7737
11207TIP3    H255113   0.129   0.861   2.514  1.9518  0.2863  0.5830
11208TIP3   OH255114   3.602   3.553   1.498  0.0262  0.2965 -0.1774
11208TIP3    H155115   3.637   3.640   1.477 -1.3957  0.8847 -0.2766
11208TIP3    H255116   3.584   3.513   1.413  1.1607 -0.3124 -0.1375
11209TIP3   OH255117   3.945   0.393  15.168 -0.3260  0.4158  0.4088
11209TIP3    H155118   3.891   0.471  15.153 -1.0437 -0.0957  0.2812
11209TIP3    H255119   3.947   0.348  15.083 -2.5695 -1.3429  1.1984
11210TIP3   OH255120   5.617   2.562  13.401  0.6279 -0.3520  0.4743
11210TIP3    H155121   5.578   2.512  13.329  2.3441  0.4129 -1.0916
11210TIP3    H255122   5.660   2.636  13.358 -0.5357  1.6625  2.5651
11211TIP3   OH255123   3.085   0.739   2.730 -0.0674  0.0836 -0.0547
11211TIP3    H155124   3.008   0.696   2.769  0.4229 -1.4418 -0.6911
11211TIP3    H255125   3.122   0.791   2.801 -0.7856 -0.4287  0.7212
11212TIP3   OH255126   2.605   3.693   0.831 -0.2563 -0.0650 -0.6465
11212TIP3    H155127   2.644   3.763   0.779  0.8331 -0.5433 -0.4978
11212TIP3    H255128   2.664   3.684   0.907 -1.7552  0.5583  0.6449
11213TIP3   OH255129   1.351   2.098  14.410 -0.3293 -0.6281  0.2663
11213TIP3    H155130   1.357   2.176  14.465 -1.7990 -0.1158 -0.2471
11213TIP3    H255131   1.425   2.104  14.350 -0.9007  0.8425 -0.3305
11214TIP3   OH255132   6.708   4.340   4.006  0.3573 -0.1557  0.5992
11214TIP3    H155133   6.762   4.379   3.938  0.2553  0.9528  1.1347
11214TIP3    H255134   6.729   4.246   4.002  1.0450  0.0241 -0.3212
11215TIP3   OH255135   0.057   3.008  10.897  0.4127  0.1302 -0.3648
11215TIP3    H155136   0.119   2.978  10.830  1.0290 -1.1560  0.7377
11215TIP3    H255137   0.111   3.055  10.960 -0.0988  0.9330 -0.5117
11216TIP3   OH255138   0.837   4.534   0.625  0.1776 -0.2087 -0.0002
11216TIP3    H155139   0.808   4.506   0.538 -1.0798  2.8469 -0.7147
11216TIP3    H255140   0.846   4.629   0.617  0.6304  0.0886  3.0660
11217TIP3   OH255141   1.435   2.994   6.124  0.0045 -0.0076 -0.0839
11217TIP3    H155142   1.423   3.032   6.211 -0.1653  0.6646 -0.3915
11217TIP3    H255143   1.529   2.996   6.110 -0.1078  1.9322 -0.7899
11218TIP3   OH255144   2.005   3.965   1.766 -0.1293 -0.1658  0.6403
11218TIP3    H155145   2.099   3.968   1.746 -0.7823  0.8348 -3.0369
11218TIP3    H255146   1.986   4.050   1.807  0.4025 -0.0068  0.5602
11219TIP3   OH255147   0.273   5.038   5.895  0.5766  0.0847  0.2064
11219TIP3    H155148   0.192   4.989   5.910  0.7709  0.2710  2.1152
11219TIP3    H255149   0.252   5.099   5.824 -0.4878 -0.8600 -0.3250
11220TIP3   OH255150   2.909   2.109   3.023  0.5053 -0.0575 -0.3190
11220TIP3    H155151   2.957   2.192   3.029 -0.0804  0.4020 -1.6804
11220TIP3    H255152   2.869   2.098   3.110 -1.1703  2.1875 -0.7453
11221TIP3   OH255153   1.908   3.751  16.674 -0.1997  0.4448  0.1870
11221TIP3    H155154   1.861   3.705  16.605  1.6519 -1.1266 -0.1168
11221TIP3    H255155   1.854   3.828  16.693 -1.3798  0.2766 -2.1289
11222TIP3   OH255156   4.142   0.751   0.180 -0.0118 -0.2984 -0.2248
11222TIP3    H155157   4.229   0.786   0.164 -0.1546  0.0629 -0.2095
11222TIP3    H255158   4.091   0.825   0.212 -0.2750 -0.5504 -0.0544
11223TIP3   OH255159   6.234   4.921   4.033  0.1779 -0.3221  0.4364
11223TIP3    H155160   6.248   4.829   4.057  0.8492 -0.6862 -1.1845
11223TIP3    H255161   6.322   4.955   4.017 -0.1543  0.1690 -0.4293
11224TIP3   OH255162   4.505   3.566   4.520 -0.1166  0.0491  0.1498
11224TIP3    H155163   4.587   3.607   4.546  0.2892 -0.6734  0.0269
11224TIP3    H255164   4.486   3.602   4.433  0.0367  0.2588  0.2038
11225TIP3   OH255165   4.309   5.685   5.718  0.3317 -0.3450 -0.0585
11225TIP3    H155166   4.228   5.718   5.678 -0.1381  0.0499  1.1696
11225TIP3    H255167   4.378   5.718   5.661 -0.3079  0.3074 -0.4807
11226TIP3   OH255168   4.232   2.576  14.234  0.1519 -0.4159  0.2580
11226TIP3    H155169   4.215   2.633  14.308 -1.0495 -0.9827  0.4450
11226TIP3    H255170   4.312   2.528  14.258  0.9777  0.9145  0.2344
11227TIP3   OH255171   3.587   5.819  15.501 -0.5777  0.2889  0.0303
11227TIP3    H155172   3.495   5.841  15.491 -0.5680  2.9890  3.6429
11227TIP3    H255173   3.622   5.818  15.412 -3.0783  4.4434 -1.2654
11228TIP3   OH255174   5.831   2.878  11.256  0.1608 -0.3101  0.3229
11228TIP3    H155175   5.875   2.795  11.276 -0.1520 -0.3978  0.6669
11228TIP3    H255176   5.902   2.943  11.253  0.4812 -0.6867 -0.5491
11229TIP3   OH255177   2.258   6.292  15.590 -0.2320  0.0990 -0.1246
11229TIP3    H155178   2.165   6.294  15.612  0.3518 -0.5566  2.8935
11229TIP3    H255179   2.278   6.199  15.579  0.5189 -0.0723  2.0557
11230TIP3   OH255180   0.696   4.792   5.625  0.4189  0.5297  0.5155
11230TIP3    H155181   0.609   4.770   5.659  0.2519  0.7731  0.2512
11230TIP3    H255182   0.751   4.718   5.651 -0.1176 -0.1729 -0.3156
11231TIP3   OH255183   2.981   5.703  10.935 -0.3867  0.0620  0.0452
11231TIP3    H155184   3.007   5.704  11.027  0.6593  0.8384 -0.2311
11231TIP3    H255185   3.050   5.653  10.891 -1.2875 -0.9829 -0.2276
11232TIP3   OH255186   2.344   1.157   0.101  0.8383 -0.3178  0.7465
11232TIP3    H155187   2.295   1.190   0.178 -1.9768 -2.8607  0.2214
11232TIP3    H255188   2.296   1.192   0.026  2.8479  1.1329  0.0610
11233TIP3   OH255189   6.579   2.914  16.971  0.0105  0.1741 -0.2556
11233TIP3    H155190   6.625   2.832  16.951  0.0520  0.2097 -0.3089
11233TIP3    H255191   6.500   2.887  17.018 -0.0062  0.0995 -0.3270
11234TIP3   OH255192   1.255   1.050  14.577  0.1329 -0.3631 -0.0585
11234TIP3    H155193   1.308   1.130  14.582 -0.4010 -0.0219  3.9907
11234TIP3    H255194   1.167   1.080  14.556  0.0114  0.1456  1.0772
11235TIP3   OH255195   4.546   1.014   6.538 -0.7492 -0.6744 -0.1342
11235TIP3    H155196   4.529   0.920   6.531 -0.5769 -0.7947  0.9595
11235TIP3    H255197   4.541   1.033   6.632 -1.9147  0.6205 -0.4217
11236TIP3   OH255198   0.413   3.632   5.457 -0.1621 -0.0283  0.2649
11236TIP3    H155199   0.476   3.574   5.414  0.0840 -0.0499  0.6537
11236TIP3    H255200   0.404   3.706   5.396  2.5730  1.4986  1.5137
11237TIP3   OH255201   6.418   3.240  16.197  0.2804  1.0901  0.6168
11237TIP3    H155202   6.468   3.159  16.206 -0.5923  0.4339 -0.2535
11237TIP3    H255203   6.352   3.220  16.131 -0.6005  2.1975  1.1429
11238TIP3   OH255204   1.054   4.694   2.500 -0.3276 -0.2907  0.5445
11238TIP3    H155205   1.026   4.607   2.529  1.4363 -0.3797  2.1916
11238TIP3    H255206   1.016   4.754   2.564 -1.5823  0.1960 -0.6189
11239TIP3   OH255207   2.141   2.034  13.383 -0.0862 -0.3189 -0.8879
11239TIP3    H155208   2.118   2.107  13.325  0.5224 -0.1933 -0.9800
11239TIP3    H255209   2.065   1.976  13.379  0.0938 -0.5020 -2.1103
11240TIP3   OH255210   4.142   5.466   5.821  0.0989 -0.3909  0.3462
11240TIP3    H155211   4.064   5.508   5.786 -0.4007 -2.7114 -1.6267
11240TIP3    H255212   4.214   5.524   5.798 -0.8467  1.0212  0.8188
11241TIP3   OH255213   3.326   1.769   0.070  0.2422 -0.1120  0.2970
11241TIP3    H155214   3.416   1.794   0.051  0.6012  0.1892  2.1663
11241TIP3    H255215   3.322   1.676   0.049  0.5575  0.1866 -1.1710
11242TIP3   OH255216   6.169   2.212   4.659 -0.2471 -0.3480  0.3739
11242TIP3    H155217   6.250   2.189   4.614 -0.2231 -1.2208  0.8470
11242TIP3    H255218   6.117   2.257   4.593  1.5429  2.3819  0.6721
11243TIP3   OH255219   4.872   1.327   3.935  0.3423 -0.1632 -0.1735
11243TIP3    H155220   4.797   1.270   3.925  0.5069 -0.3736 -0.2165
11243TIP3    H255221   4.850   1.405   3.885  0.5394 -0.6011 -0.9550
11244TIP3   OH255222   4.655   0.356   3.134  0.8849  0.1587  0.2675
11244TIP3    H155223   4.567   0.356   3.172  0.8725 -0.6282  0.2481
11244TIP3    H255224   4.708   0.406   3.196  1.0078 -1.6414  1.6984
11245TIP3   OH255225   5.957   4.326  16.604  0.6193  0.0085 -0.5142
11245TIP3    H155226   5.882   4.329  16.544 -0.6544  0.9314  1.0327
11245TIP3    H255227   5.966   4.416  16.635  0.6371 -0.6132  1.3633
11246TIP3   OH255228   4.463   0.897   3.818 -0.3310  0.0444 -0.7113
11246TIP3    H155229   4.371   0.874   3.823  0.1273 -1.6434  1.5603
11246TIP3    H255230   4.488   0.878   3.728 -1.4497 -2.7771 -0.5224
11247TIP3   OH255231   2.945   6.511  12.671 -0.6198  0.3901  0.4712
11247TIP3    H155232   2.874   6.552  12.622 -1.2724 -0.6619  0.5032
11247TIP3    H255233   2.954   6.565  12.750 -1.2422  0.6500  0.3725
11248TIP3   OH255234   6.524   3.749  13.474 -0.0514  0.2084 -0.5413
11248TIP3    H155235   6.551   3.810  13.406 -1.0993  0.6591 -0.5675
11248TIP3    H255236   6.507   3.805  13.551  0.5140 -0.2271 -0.0868
11249TIP3   OH255237   6.388   0.465  16.927 -0.0106 -0.5352  0.0432
11249TIP3    H155238   6.456   0.509  16.875  0.1128  0.2226  0.8203
11249TIP3    H255239   6.334   0.536  16.960 -0.0700 -0.9953  0.9701
11250TIP3   OH255240   3.954   3.817  12.025 -0.0351  0.7153 -0.1564
11250TIP3    H155241   3.895   3.791  11.955 -2.1743  1.2943  1.3547
11250TIP3    H255242   4.005   3.890  11.988  0.2413 -0.2108 -1.6827
11251TIP3   OH255243   5.225   5.511   4.896 -0.0789  0.1482 -0.3211
11251TIP3    H155244   5.265   5.448   4.956 -1.1193 -0.6827 -0.4727
11251TIP3    H255245   5.293   5.526   4.829 -0.2761 -1.9061 -1.0549
11252TIP3   OH255246   6.556   1.668   3.524 -0.0371 -0.6649 -0.2967
11252TIP3    H155247   6.579   1.608   3.453 -0.6708 -1.3465  0.0544
11252TIP3    H255248   6.463   1.685   3.512 -0.1828 -0.9083  0.4542
11253TIP3   OH255249   6.283   1.429   5.094 -0.3069  0.0435 -0.7599
11253TIP3    H155250   6.341   1.390   5.159 -1.3518  0.1134  0.2436
11253TIP3    H255251   6.312   1.392   5.010  1.6517  0.6354 -0.4094
11254TIP3   OH255252   5.845   3.789  13.493 -0.2361 -0.1535  0.2820
11254TIP3    H155253   5.851   3.726  13.565 -2.5502 -0.2628  0.4425
11254TIP3    H255254   5.916   3.851  13.510 -0.4574 -0.4029  2.4510
11255TIP3   OH255255   2.352   3.737  15.001 -1.4551  0.1671  0.0198
11255TIP3    H155256   2.400   3.820  14.995  0.3649 -0.6703  2.1233
11255TIP3    H255257   2.341   3.710  14.910  1.0983  0.9513 -0.5969
11256TIP3   OH255258   0.264   1.008   4.889  0.2679  0.4171  0.0922
11256TIP3    H155259   0.329   0.988   4.822  0.9304  0.5270  0.6903
11256TIP3    H255260   0.188   0.955   4.865  0.3013  0.8384 -1.0262
11257TIP3   OH255261   5.780   1.327  11.070 -0.0949 -1.1052 -0.3289
11257TIP3    H155262   5.873   1.347  11.080 -0.3142  0.1747 -0.6712
11257TIP3    H255263   5.742   1.342  11.157 -0.4464  1.1689 -0.8244
11258TIP3   OH255264   5.981   6.065  15.576  0.1915  0.1391  0.0169
11258TIP3    H155265   6.009   6.037  15.664  0.0693 -1.6462 -0.4698
11258TIP3    H255266   5.933   6.146  15.591  1.1841  0.5099  1.4648
11259TIP3   OH255267   1.117   3.484   3.534 -0.4180 -0.3222 -0.0264
11259TIP3    H155268   1.173   3.560   3.516 -0.7752 -0.5740 -2.5254
11259TIP3    H255269   1.033   3.506   3.493 -0.6215 -1.9482 -0.5254
11260TIP3   OH255270   0.122   2.349   3.006 -0.2922  0.0602 -0.1193
11260TIP3    H155271   0.165   2.275   3.049 -0.4376  0.8231  1.4271
11260TIP3    H255272   0.193   2.410   2.988 -0.5392  0.9406  1.6400
11261TIP3   OH255273   2.373   1.693   2.458  0.4384 -0.3587  0.1716
11261TIP3    H155274   2.387   1.786   2.477  1.9042 -0.5480  0.1068
11261TIP3    H255275   2.441   1.648   2.508  0.5519 -1.3024 -0.8026
11262TIP3   OH255276   1.933   2.197   2.527 -0.4902 -0.3875 -0.2442
11262TIP3    H155277   2.008   2.140   2.510 -1.1634 -1.6029  0.6961
11262TIP3    H255278   1.858   2.138   2.527 -1.5722  0.8958 -1.8311
11263TIP3   OH255279   1.560   6.491  17.119  0.0188 -0.3805  0.2299
11263TIP3    H155280   1.565   6.400  17.147  1.5930 -0.3884 -0.0265
11263TIP3    H255281   1.555   6.541  17.201  1.1374 -0.5898  0.4310
11264TIP3   OH255282   2.870   0.562   4.877  1.1493 -0.1210  0.5068
11264TIP3    H155283   2.859   0.635   4.816 -1.6483  0.1302  1.1762
11264TIP3    H255284   2.894   0.604   4.960 -0.6816  0.1195  0.9489
11265TIP3   OH255285   4.641   4.015   1.928  0.2486 -0.4021  0.0396
11265TIP3    H155286   4.675   4.103   1.913  1.0197 -0.7841 -0.4930
11265TIP3    H255287   4.588   3.996   1.851  1.7085 -1.1603 -0.8323
11266TIP3   OH255288   6.128   3.403   2.638  0.4871  0.3620 -0.3208
11266TIP3    H155289   6.189   3.350   2.689  1.7584 -0.9105 -2.9160
11266TIP3    H255290   6.183   3.440   2.568 -1.1148  2.0258 -0.7480
11267TIP3   OH255291   4.012   4.544   4.231  0.0745 -0.0955 -0.1844
11267TIP3    H155292   4.037   4.482   4.300  0.2931  1.8223  1.5544
11267TIP3    H255293   3.918   4.530   4.220  0.2063 -1.0708 -0.1973
11268TIP3   OH255294   6.440   3.386  12.598 -0.3801  0.3224  0.2615
11268TIP3    H155295   6.517   3.412  12.648 -0.1521  0.3088 -0.0762
11268TIP3    H255296   6.397   3.320  12.652  0.9279 -1.1510 -0.4112
11269TIP3   OH255297   0.101   1.938   5.732  0.3563 -0.4161  0.3553
11269TIP3    H155298   0.147   1.886   5.799  1.5934 -0.6416 -0.6240
11269TIP3    H255299   0.171   1.970   5.675 -0.5492  0.9082 -0.0629
11270TIP3   OH255300   6.802   6.156   5.454  0.8240  0.0740 -0.5387
11270TIP3    H155301   6.855   6.162   5.533 -0.0462 -2.1183  0.2870
11270TIP3    H255302   6.766   6.244   5.443  0.8200  0.4106  1.6452
11271TIP3   OH255303   0.830   1.299   3.277  0.6405  0.0565 -0.0667
11271TIP3    H155304   0.820   1.280   3.184  0.7314  0.6831 -0.2137
11271TIP3    H255305   0.854   1.216   3.316 -1.6773 -0.7611 -0.2328
11272TIP3   OH255306   6.006   5.023   5.058  0.1600 -0.6793 -0.3186
11272TIP3    H155307   5.947   4.969   5.111  0.4079 -1.5274 -0.8880
11272TIP3    H255308   5.974   5.113   5.071  0.4958 -0.7884  1.6185
11273TIP3   OH255309   5.705   0.465  16.299 -0.4356  0.1189  0.5025
11273TIP3    H155310   5.759   0.390  16.325 -1.5059 -1.3714 -1.3324
11273TIP3    H255311   5.766   0.538  16.293  1.1194 -1.1692 -0.0918
11274TIP3   OH255312   3.333   6.042   5.740 -0.2278 -0.2759 -0.0078
11274TIP3    H155313   3.311   5.981   5.811 -0.0916  0.4853  0.6948
11274TIP3    H255314   3.252   6.052   5.691 -0.0325 -1.7378 -0.7034
11275TIP3   OH255315   3.852   2.048  11.663 -0.1159  0.3676 -0.1401
11275TIP3    H155316   3.894   2.121  11.707  0.4871 -0.9544  1.6249
11275TIP3    H255317   3.787   2.016  11.726  0.4650 -1.3421 -0.3501
11276TIP3   OH255318   5.663   0.581   1.928 -0.0432  0.1828  0.2352
11276TIP3    H155319   5.720   0.621   1.994 -0.3072 -0.2272  0.7178
11276TIP3    H255320   5.575   0.586   1.964  0.0069 -1.5735  0.7124
11277TIP3   OH255321   5.114   1.281   0.912 -0.3708  0.1700  0.0619
11277TIP3    H155322   5.090   1.232   0.990  2.3835  0.2717  1.0756
11277TIP3    H255323   5.092   1.372   0.933  0.0640  0.1540  0.6249
11278TIP3   OH255324   2.638   1.691   5.725  0.2303 -0.0464  0.0315
11278TIP3    H155325   2.585   1.764   5.691  0.4966  0.3954  0.5547
11278TIP3    H255326   2.655   1.715   5.816  0.8758 -0.4501  0.0162
11279TIP3   OH255327   5.483   2.716   4.225  0.0233 -0.5066 -0.0800
11279TIP3    H155328   5.392   2.691   4.242 -0.6909  1.9363 -0.0419
11279TIP3    H255329   5.527   2.702   4.308 -1.0301  1.0987  0.8102
11280TIP3   OH255330   5.116   0.946  12.953  0.0482  0.0034 -0.2602
11280TIP3    H155331   5.067   0.946  12.871 -0.2972 -1.6384 -0.0897
11280TIP3    H255332   5.052   0.969  13.020  0.5779  2.5235 -0.5199
11281TIP3   OH255333   5.410   3.340   1.890  0.1321  0.2811  0.3200
11281TIP3    H155334   5.350   3.336   1.964  0.7186 -1.7351  0.7437
11281TIP3    H255335   5.496   3.323   1.928  0.6097  0.3699 -0.6789
11282TIP3   OH255336   5.529   3.736   0.596  0.1812 -0.6736  0.0048
11282TIP3    H155337   5.490   3.771   0.676  1.8898 -2.2430  1.5738
11282TIP3    H255338   5.617   3.710   0.620  0.5953 -1.6664 -2.2834
11283TIP3   OH255339   2.380   3.985   1.870 -0.2690 -0.4461 -1.1667
11283TIP3    H155340   2.303   3.928   1.876 -1.0814  0.7991  1.4549
11283TIP3    H255341   2.355   4.052   1.805 -2.1543  0.8931  0.8205
11284TIP3   OH255342   0.179   4.728   2.696  0.7974 -0.1341  0.3279
11284TIP3    H155343   0.188   4.650   2.641  0.4943  0.1918 -0.1882
11284TIP3    H255344   0.106   4.776   2.657  0.8753  0.3251  0.7466
11285TIP3   OH255345   3.556   4.603  16.558  0.2576 -0.2580  0.1928
11285TIP3    H155346   3.495   4.575  16.490 -3.2093  1.2460  2.4093
11285TIP3    H255347   3.576   4.694  16.536  0.9169 -0.4444  0.0112
11286TIP3   OH255348   1.633   3.681  14.878 -0.3236 -0.6278 -0.0990
11286TIP3    H155349   1.719   3.643  14.897 -0.1937  0.2912  1.3721
11286TIP3    H255350   1.573   3.606  14.881  0.1135 -0.9726  1.3105
11287TIP3   OH255351   0.373   6.094   5.002 -0.1767 -0.2368 -0.6242
11287TIP3    H155352   0.460   6.090   4.961 -1.0164 -1.3405 -2.4307
11287TIP3    H255353   0.388   6.065   5.092  1.2895 -0.7426 -0.9876
11288TIP3   OH255354   1.813   4.750   4.554 -0.2011 -0.0313 -0.1171
11288TIP3    H155355   1.860   4.830   4.576  1.3158 -0.4897 -1.5477
11288TIP3    H255356   1.792   4.758   4.461  0.0103 -1.3043 -0.2971
11289TIP3   OH255357   6.602   4.811   2.838  0.3813 -0.4303 -0.2336
11289TIP3    H155358   6.602   4.862   2.919  0.6636  0.0110 -0.5094
11289TIP3    H255359   6.520   4.762   2.841 -0.5422  0.9989 -0.5488
11290TIP3   OH255360   2.777   0.128   3.091  0.5087  0.0368 -0.0619
11290TIP3    H155361   2.836   0.118   3.017  0.7095  1.6000 -0.1373
11290TIP3    H255362   2.785   0.045   3.139  0.8569 -0.7451 -1.4127
11291TIP3   OH255363   2.157   2.398   5.714  0.1692 -0.4709  0.2260
11291TIP3    H155364   2.189   2.467   5.773 -1.0676 -1.1778  1.8007
11291TIP3    H255365   2.199   2.417   5.630 -0.5102  2.5346  0.4379
11292TIP3   OH255366   6.470   2.113  15.353 -0.4102 -0.0243 -0.1997
11292TIP3    H155367   6.549   2.151  15.314 -0.1208  1.6099  1.8003
11292TIP3    H255368   6.398   2.155  15.307 -0.0862  2.4040  1.3087
11293TIP3   OH255369   0.824   5.935  11.722 -0.3223  0.4498 -0.1451
11293TIP3    H155370   0.809   6.029  11.713  2.6964  1.2899  2.2266
11293TIP3    H255371   0.885   5.913  11.651 -0.5188  0.4032 -0.3009
11294TIP3   OH255372   2.684   3.730  16.205  0.5543  0.0183 -0.3741
11294TIP3    H155373   2.737   3.652  16.187 -0.1295 -0.3088 -1.0067
11294TIP3    H255374   2.732   3.776  16.274  0.5010 -1.4288  0.6627
11295TIP3   OH255375   6.728   0.079  13.777  0.5007 -0.1336  0.2168
11295TIP3    H155376   6.761  -0.011  13.777  1.2152  0.0985  1.7101
11295TIP3    H255377   6.634   0.071  13.762  0.5380 -1.1310  0.5003
11296TIP3   OH255378   0.424   0.502  13.563  0.1163  0.8016  0.5889
11296TIP3    H155379   0.436   0.409  13.541 -1.5514  1.0729 -1.9175
11296TIP3    H255380   0.363   0.502  13.637  0.4484 -0.0915  0.8723
11297TIP3   OH255381   5.959   6.373   3.386  0.2507 -0.2291 -0.2623
11297TIP3    H155382   6.032   6.311   3.391 -0.0847 -0.5521  1.0912
11297TIP3    H255383   5.979   6.439   3.453 -0.2429  0.2027 -0.5278
11298TIP3   OH255384   5.205   1.140   1.428  0.4325 -0.0775 -0.1653
11298TIP3    H155385   5.198   1.053   1.467 -1.3064 -0.0519 -0.3186
11298TIP3    H255386   5.284   1.178   1.466  0.7905 -1.4352  0.4929
11299TIP3   OH255387   2.705   1.481  14.178  0.1034 -0.5358 -0.1092
11299TIP3    H155388   2.754   1.430  14.243  1.1357 -0.8354 -1.0927
11299TIP3    H255389   2.707   1.571  14.211 -3.3365 -1.2540  2.6451
11300TIP3   OH255390   1.593   3.235  15.727  0.0520  0.6404  0.2174
11300TIP3    H155391   1.538   3.291  15.673 -0.6590  0.8376  1.1271
11300TIP3    H255392   1.639   3.179  15.665 -1.2067  0.4390 -0.5623
11301TIP3   OH255393   0.626   4.335  13.022 -0.5319 -0.4383 -0.0094
11301TIP3    H155394   0.695   4.312  12.960  0.1796 -0.9276  0.9393
11301TIP3    H255395   0.659   4.412  13.068 -0.1911 -1.2140  1.0847
11302TIP3   OH255396   6.337   5.051   2.831  0.6339 -0.1861 -0.2082
11302TIP3    H155397   6.260   5.098   2.800  1.6694  0.9889 -1.1146
11302TIP3    H255398   6.380   5.112   2.891  1.8117 -0.0640 -1.1261
11303TIP3   OH255399   2.529   5.817   4.797  0.0121  0.3871 -0.0849
11303TIP3    H155400   2.553   5.756   4.867  0.0666 -0.6251 -0.9545
11303TIP3    H255401   2.564   5.901   4.825  0.6374 -0.1483  0.7824
11304TIP3   OH255402   5.191   2.546  16.975 -0.4483 -0.0022  0.2061
11304TIP3    H155403   5.267   2.533  17.031  0.6164  0.9348 -0.9614
11304TIP3    H255404   5.188   2.641  16.960 -0.9887 -0.1713 -0.9087
11305TIP3   OH255405   3.876   5.882  16.523  0.5751  0.0723 -0.3691
11305TIP3    H155406   3.915   5.965  16.495 -0.2823  0.4693 -0.4255
11305TIP3    H255407   3.950   5.828  16.550  1.2615  0.3827 -1.5632
11306TIP3   OH255408   3.126   2.327   6.302 -0.4430  0.2333  0.2233
11306TIP3    H155409   3.046   2.375   6.323 -0.8706 -0.7985  1.0915
11306TIP3    H255410   3.132   2.260   6.370  0.9050 -0.0238 -0.1155
11307TIP3   OH255411   0.328   6.469   1.026 -0.5474  0.5516 -0.2797
11307TIP3    H155412   0.308   6.548   1.075  0.5921  0.8724 -0.2949
11307TIP3    H255413   0.290   6.483   0.939 -1.2811  0.6127  0.0474
11308TIP3   OH255414   3.536   0.243  15.812  0.0963 -0.4985  0.4057
11308TIP3    H155415   3.486   0.176  15.766  1.7094 -2.0745  0.8576
11308TIP3    H255416   3.619   0.201  15.835  1.5299  1.8680  0.0205
11309TIP3   OH255417   5.135   3.340   5.790 -0.2187 -0.1668 -0.2518
11309TIP3    H155418   5.084   3.323   5.869  0.4548  0.6122  0.3626
11309TIP3    H255419   5.193   3.264   5.782  0.4290  0.2257  0.5880
11310TIP3   OH255420   6.102   5.293  14.347 -0.0459 -0.0504  0.2053
11310TIP3    H155421   6.129   5.382  14.368 -0.6690  0.2128 -0.1055
11310TIP3    H255422   6.149   5.273  14.265  0.8651 -0.3761  0.7900
11311TIP3   OH255423   2.636   2.349   6.033  0.3255 -0.4324 -0.6803
11311TIP3    H155424   2.696   2.423   6.029  0.8566 -0.7312  0.9435
11311TIP3    H255425   2.680   2.286   6.091 -1.1166 -1.0773 -0.2441
11312TIP3   OH255426   5.296   4.488  16.427 -0.5138  0.3130 -0.2842
11312TIP3    H155427   5.236   4.561  16.443 -1.5907 -0.1686 -1.9502
11312TIP3    H255428   5.242   4.410  16.435  0.2465 -0.2216 -0.2357
11313TIP3   OH255429   2.781   0.588  16.596  0.7404  0.0854  0.7735
11313TIP3    H155430   2.715   0.655  16.613  0.8210  0.5427 -0.5653
11313TIP3    H255431   2.864   0.635  16.605  0.7829  0.5664 -1.4538
11314TIP3   OH255432   3.633   1.861  11.788  0.0516 -0.1046 -0.9269
11314TIP3    H155433   3.561   1.803  11.811 -0.5821  1.3053  0.9677
11314TIP3    H255434   3.612   1.893  11.700 -1.1026 -0.5082 -0.8092
11315TIP3   OH255435   0.541   3.062   4.366 -0.1298  0.0782  0.8901
11315TIP3    H155436   0.483   2.996   4.326 -0.0195  0.6428 -0.2436
11315TIP3    H255437   0.524   3.141   4.315  0.6301  0.6104  1.4590
11316TIP3   OH255438   5.574   3.877   0.070 -0.1679 -0.5949 -0.2034
11316TIP3    H155439   5.599   3.820   0.142 -0.2502  0.1111  0.3976
11316TIP3    H255440   5.482   3.859   0.055 -0.2360 -0.5093  0.0976
11317TIP3   OH255441   0.969   5.160  14.741  0.2662  0.5083 -1.0292
11317TIP3    H155442   0.927   5.200  14.817 -0.2932  0.7687 -1.4679
11317TIP3    H255443   1.014   5.084  14.776 -1.1918 -0.2168 -0.6535
11318TIP3   OH255444   6.777   5.231  13.965  0.5349 -0.1517  0.1448
11318TIP3    H155445   6.789   5.199  13.875 -0.1761  0.7211 -0.2782
11318TIP3    H255446   6.739   5.157  14.012 -0.8512 -0.0340 -0.7516
11319TIP3   OH255447   4.590   2.804   6.143  0.4811  0.2336 -0.3060
11319TIP3    H155448   4.667   2.765   6.184  1.5458  1.5996 -0.8955
11319TIP3    H255449   4.517   2.750   6.172  1.6431 -1.0462  0.3660
11320TIP3   OH255450   6.509   0.158  14.023 -0.2725  0.1129 -0.7847
11320TIP3    H155451   6.417   0.165  14.047 -0.7683 -2.2543 -1.7047
11320TIP3    H255452   6.554   0.133  14.104 -0.4943  0.8275 -0.4380
11321TIP3   OH255453   6.442   4.633  15.845  0.0231  0.6368  0.2624
11321TIP3    H155454   6.448   4.688  15.767  0.2219  0.2604  0.0123
11321TIP3    H255455   6.533   4.617  15.871 -0.0349  0.4787  0.3732
11322TIP3   OH255456   5.506   2.523   5.177  0.4656  0.2535  0.4410
11322TIP3    H155457   5.473   2.600   5.130  1.6968  0.0800 -0.7777
11322TIP3    H255458   5.594   2.549   5.205  0.1945 -0.0790  1.6415
11323TIP3   OH255459   1.400   5.141   1.917 -0.5580  0.2901  0.1858
11323TIP3    H155460   1.392   5.170   2.007  0.8984  0.5255  0.2619
11323TIP3    H255461   1.398   5.222   1.865 -1.4206  0.1545 -0.0126
11324TIP3   OH255462   4.927   3.146   4.958 -0.1403 -0.0457  0.0802
11324TIP3    H155463   5.014   3.128   4.993  0.9004 -1.0140 -2.7283
11324TIP3    H255464   4.869   3.089   5.009  0.5977  1.5121  2.8273
11325TIP3   OH255465   0.569   1.962   2.570  0.2306  0.2377 -0.2680
11325TIP3    H155466   0.636   1.993   2.632  0.1062 -1.1034  0.5677
11325TIP3    H255467   0.511   1.908   2.622  0.1629 -1.0032 -1.5760
11326TIP3   OH255468   3.142   1.463   5.035 -0.3843 -0.6620 -0.0077
11326TIP3    H155469   3.224   1.505   5.061  0.4497 -2.4869  0.4758
11326TIP3    H255470   3.074   1.516   5.076  0.6930 -0.6610  1.8719
11327TIP3   OH255471   3.398   2.751  13.009 -0.2685  0.0307  0.4139
11327TIP3    H155472   3.352   2.715  13.085 -1.0138  1.3950  0.6411
11327TIP3    H255473   3.346   2.826  12.982  1.7564  1.6200  0.6231
11328TIP3   OH255474   3.662   1.762   4.234 -0.0230 -0.0141 -0.2280
11328TIP3    H155475   3.700   1.678   4.262 -0.2361  0.4539  1.6527
11328TIP3    H255476   3.716   1.828   4.277 -1.2214  0.7349  0.1854
11329TIP3   OH255477   4.643   5.863  11.568  0.6831  0.3137  0.0753
11329TIP3    H155478   4.709   5.930  11.549  0.0041  0.2528 -2.9481
11329TIP3    H255479   4.560   5.907  11.555  0.2115 -1.2437 -3.0484
11330TIP3   OH255480   0.189   1.275   3.692  0.8225  0.0032 -0.0123
11330TIP3    H155481   0.227   1.322   3.766  1.4352  1.2325 -1.0666
11330TIP3    H255482   0.117   1.330   3.662  0.2223 -0.7578 -0.0103
11331TIP3   OH255483   0.932   0.970  13.437 -0.0052 -0.0970  0.5516
11331TIP3    H155484   0.999   1.032  13.466  0.4287 -0.3190  0.0517
11331TIP3    H255485   0.982   0.898  13.398 -0.5658  0.2774 -0.9127
11332TIP3   OH255486   3.816   1.150  11.925  0.6751 -0.4429 -0.1232
11332TIP3    H155487   3.875   1.075  11.937  1.0637 -0.0395  0.5458
11332TIP3    H255488   3.844   1.190  11.843  0.8227 -0.7167 -0.2069
11333TIP3   OH255489   0.374   0.864   1.293 -0.6196  0.4123 -0.4490
11333TIP3    H155490   0.357   0.932   1.358  0.3279  0.4022 -0.1729
11333TIP3    H255491   0.435   0.804   1.337 -2.2447 -1.2023 -0.3082
11334TIP3   OH255492   5.391   4.228   2.487 -0.4804  0.1560  0.0090
11334TIP3    H155493   5.337   4.191   2.557  0.9370  0.1174  1.1137
11334TIP3    H255494   5.350   4.313   2.468 -2.4433 -0.9513 -1.0086
11335TIP3   OH255495   0.368   3.031   1.319 -0.8134 -0.3266 -0.3915
11335TIP3    H155496   0.415   3.100   1.272  0.9142 -1.2653 -0.1454
11335TIP3    H255497   0.348   3.069   1.404  1.9762 -0.6885  0.5410
11336TIP3   OH255498   3.639   1.224   1.496 -0.1875  0.6451  0.1403
11336TIP3    H155499   3.549   1.227   1.466  0.1863  0.1707 -1.0862
11336TIP3    H255500   3.663   1.316   1.508 -0.4529  0.8356 -0.7330
11337TIP3   OH255501   5.160   2.255   4.361 -0.1322 -0.7649 -0.2473
11337TIP3    H155502   5.214   2.316   4.412 -0.4244  0.8786 -1.7874
11337TIP3    H255503   5.119   2.198   4.426 -0.5301  1.2662  1.3733
11338TIP3   OH255504   6.655   5.944   3.174 -0.2985  0.1016 -0.3297
11338TIP3    H155505   6.703   5.867   3.203  0.3230  0.1239 -1.2639
11338TIP3    H255506   6.710   6.018   3.201 -2.5090  0.5578  3.8312
11339TIP3   OH255507   3.701   1.512  13.367 -0.4986 -0.5728 -0.6418
11339TIP3    H155508   3.670   1.423  13.378  0.2230 -0.8219 -0.6035
11339TIP3    H255509   3.682   1.555  13.451 -0.5977 -0.7610 -0.5682
11340TIP3   OH255510   1.470   4.733  13.336  0.7037 -0.2652  0.2615
11340TIP3    H155511   1.453   4.656  13.282  0.5490 -1.0953  1.4551
11340TIP3    H255512   1.387   4.750  13.380  0.6162  0.8526 -0.2876
11341TIP3   OH255513   3.883   1.271  16.075 -0.5198 -0.6474 -0.1728
11341TIP3    H155514   3.892   1.281  15.980  0.3725  1.5597  0.0650
11341TIP3    H255515   3.971   1.289  16.109 -1.7024  3.9919  1.2855
11342TIP3   OH255516   1.086   2.101   2.169 -0.0385  0.4268 -0.5020
11342TIP3    H155517   1.100   2.029   2.108  0.9183  0.9927 -0.9771
11342TIP3    H255518   1.162   2.099   2.226 -1.6823 -1.1165  1.7955
11343TIP3   OH255519   1.141   4.515   1.657 -0.1225  0.0792 -0.1187
11343TIP3    H155520   1.162   4.526   1.564 -0.6546  0.3202 -0.2117
11343TIP3    H255521   1.206   4.570   1.702 -0.4297  0.6848 -0.3971
11344TIP3   OH255522   0.211   2.369  14.476 -0.2778 -0.3759 -0.0220
11344TIP3    H155523   0.169   2.418  14.406 -2.0527 -0.8452  0.6701
11344TIP3    H255524   0.179   2.279  14.466  1.2072 -0.9595  0.0640
11345TIP3   OH255525   3.694   2.061  11.416  0.1294  0.0748  0.0349
11345TIP3    H155526   3.711   2.131  11.353  2.0322 -1.4377 -1.2113
11345TIP3    H255527   3.761   2.072  11.483  1.7922 -1.6815 -1.2272
11346TIP3   OH255528   4.645   0.876   5.194  0.1904 -0.1866 -0.2922
11346TIP3    H155529   4.696   0.865   5.114  1.0888  0.7457  0.1326
11346TIP3    H255530   4.582   0.804   5.193  1.8000 -1.6548 -0.6064
11347TIP3   OH255531   6.493   1.315  17.002 -0.1436 -0.0157 -0.0119
11347TIP3    H155532   6.504   1.298  17.095  0.9974  0.4957 -0.0402
11347TIP3    H255533   6.461   1.405  16.997  0.6406  0.2622 -0.1410
11348TIP3   OH255534   6.370   5.997  13.065  0.1999 -0.2365 -0.1565
11348TIP3    H155535   6.432   5.969  12.998 -1.1836 -0.5099 -1.3853
11348TIP3    H255536   6.424   6.036  13.133  1.7774 -1.3270 -0.7268
11349TIP3   OH255537   5.781   3.310  13.570  0.6968 -0.4440 -0.0246
11349TIP3    H155538   5.874   3.306  13.590  0.6308 -1.1084  0.1560
11349TIP3    H255539   5.768   3.244  13.502  0.3649 -0.3098 -0.0960
11350TIP3   OH255540   1.888   4.792   5.410  0.1052  0.2175  0.3536
11350TIP3    H155541   1.856   4.860   5.468  0.4860  0.3963  0.3585
11350TIP3    H255542   1.810   4.745   5.381 -0.0718 -0.0459  1.2231
11351TIP3   OH255543   1.297   2.786  12.903  0.8321 -0.1477 -0.0428
11351TIP3    H155544   1.391   2.767  12.906  0.9951  0.7697  0.9591
11351TIP3    H255545   1.275   2.782  12.810  2.0105  0.3276 -0.3587
11352TIP3   OH255546   3.864   5.336   1.039  0.2090  0.0507 -0.2695
11352TIP3    H155547   3.883   5.363   1.129 -0.4607 -0.3223 -0.0158
11352TIP3    H255548   3.854   5.241   1.043 -3.6460  0.3053  0.0216
11353TIP3   OH255549   1.296   1.694   5.607  0.0267  0.0003  0.2355
11353TIP3    H155550   1.220   1.686   5.549 -2.0794 -0.9456  2.8866
11353TIP3    H255551   1.309   1.605   5.641 -0.5231  0.9130  3.0792
11354TIP3   OH255552   0.282   1.048   4.164  0.0423  0.1740  0.6691
11354TIP3    H155553   0.279   1.131   4.116  1.5568 -0.1846 -0.1193
11354TIP3    H255554   0.199   1.045   4.211 -1.8822  0.2375 -2.4434
11355TIP3   OH255555   0.406   5.263   2.199 -0.2333  0.0325 -0.0818
11355TIP3    H155556   0.369   5.180   2.168  0.3979 -0.6034  0.8048
11355TIP3    H255557   0.402   5.255   2.295  0.5327  0.7088  0.0066
11356TIP3   OH255558   3.486   3.844  14.100  0.1670 -0.5968 -0.6756
11356TIP3    H155559   3.500   3.901  14.175  2.8111  0.7870 -2.0824
11356TIP3    H255560   3.563   3.787  14.098 -0.9006 -2.0994 -1.1378
11357TIP3   OH255561   3.489   5.627   5.086 -0.6655 -0.5589  0.0849
11357TIP3    H155562   3.483   5.713   5.128 -0.2357 -0.8974  0.8645
11357TIP3    H255563   3.580   5.623   5.054 -0.5491 -0.9089  0.4600
11358TIP3   OH255564   6.357   1.624  14.603 -0.4631 -0.1226 -0.3947
11358TIP3    H155565   6.405   1.635  14.521  1.7492  1.3533  0.9930
11358TIP3    H255566   6.266   1.643  14.581  0.0224 -0.1158 -2.5569
11359TIP3   OH255567   1.950   0.891  16.213 -0.2126 -0.2067  0.5017
11359TIP3    H155568   1.979   0.948  16.284 -0.7615  1.0297 -0.2281
11359TIP3    H255569   1.858   0.872  16.234 -0.9143  1.5671 -0.6869
11360TIP3   OH255570   6.437   0.443  15.320  0.0264 -0.0543 -0.3471
11360TIP3    H155571   6.347   0.476  15.311  0.3940  1.2286  0.5568
11360TIP3    H255572   6.443   0.375  15.253 -1.4498  0.2054 -0.7920
11361TIP3   OH255573   0.213   2.920   1.094 -0.1559  0.0770 -0.0097
11361TIP3    H155574   0.119   2.903   1.100  0.1259 -1.6903 -0.1107
11361TIP3    H255575   0.242   2.923   1.186  0.1037 -2.1906  0.0435
11362TIP3   OH255576   6.380   3.297   2.710  0.3657 -0.4991  0.3166
11362TIP3    H155577   6.432   3.376   2.727 -0.4647 -0.2503  1.9031
11362TIP3    H255578   6.399   3.275   2.619 -0.1139  2.0858 -0.4954
11363TIP3   OH255579   5.884   2.652  10.425 -0.4524 -0.7420 -0.3049
11363TIP3    H155580   5.914   2.694  10.344  1.1857  0.8884  1.0642
11363TIP3    H255581   5.809   2.704  10.453  0.7452  0.5248  0.6775
11364TIP3   OH255582   5.164   5.293   1.557  0.6814 -0.0780  0.2757
11364TIP3    H155583   5.219   5.226   1.598  1.0628 -0.1419 -0.3258
11364TIP3    H255584   5.218   5.328   1.486 -0.6965 -1.4219 -1.5182
11365TIP3   OH255585   5.284   1.840  13.960  0.3299 -0.4091 -0.3680
11365TIP3    H155586   5.238   1.835  14.044 -0.7764  0.1091 -0.9103
11365TIP3    H255587   5.368   1.799  13.975  0.2815 -0.0077  1.0903
11366TIP3   OH255588   1.343   3.244   3.589  0.0066  0.2869  0.1184
11366TIP3    H155589   1.283   3.233   3.515 -0.4985  1.3081  0.3573
11366TIP3    H255590   1.309   3.321   3.636  1.5116  0.8988  0.2547
11367TIP3   OH255591   5.311   4.892  12.365 -0.1666  0.2156 -0.9617
11367TIP3    H155592   5.243   4.830  12.340 -3.7333  3.2896  0.1478
11367TIP3    H255593   5.336   4.866  12.454  1.3427 -1.8219 -1.9221
11368TIP3   OH255594   2.627   3.315  12.061  0.0760 -0.3281 -0.3269
11368TIP3    H155595   2.706   3.365  12.040  0.3631 -1.3723 -1.8422
11368TIP3    H255596   2.617   3.327  12.156  0.3051  2.3038 -0.5448
11369TIP3   OH255597   3.676   1.543   3.231  0.0747  0.8519  0.6281
11369TIP3    H155598   3.676   1.622   3.286  0.3162  0.3629  1.3509
11369TIP3    H255599   3.605   1.557   3.169 -1.1856  0.8199  1.9812
11370TIP3   OH255600   0.290   1.261  15.321 -0.2725  0.5237  0.1887
11370TIP3    H155601   0.209   1.226  15.358 -1.2032  2.2744 -0.0821
11370TIP3    H255602   0.348   1.273  15.396  0.5189 -2.4385  0.2084
11371TIP3   OH255603   6.502   5.372  16.567  0.5600  0.0001 -0.0140
11371TIP3    H155604   6.438   5.441  16.585  0.2979 -0.5260  1.2576
11371TIP3    H255605   6.537   5.392  16.481  1.7782  2.7178  0.9993
11372TIP3   OH255606   3.418   3.233   3.889 -0.0634 -0.2266  0.3777
11372TIP3    H155607   3.372   3.282   3.821  0.4731 -0.8887 -0.4757
11372TIP3    H255608   3.382   3.267   3.971 -1.8164 -0.4484 -0.2455
11373TIP3   OH255609   3.751   2.499   1.989  0.4486  0.0002  0.4190
11373TIP3    H155610   3.817   2.518   1.922  0.4392 -0.5330  0.2564
11373TIP3    H255611   3.791   2.530   2.071  1.2192 -0.9974  0.4355
11374TIP3   OH255612   4.127   3.567   3.280  0.1058 -0.2133  0.3161
11374TIP3    H155613   4.124   3.582   3.375 -0.5791 -1.3992  0.4922
11374TIP3    H255614   4.185   3.492   3.269  0.1523 -0.1032 -0.2120
11375TIP3   OH255615   4.904   0.446   5.624 -0.9280  0.0533 -0.6027
11375TIP3    H155616   4.843   0.436   5.551 -1.4190  1.5925 -0.4458
11375TIP3    H255617   4.971   0.507   5.591 -0.3264 -0.4074 -0.2553
11376TIP3   OH255618   3.314   3.520  10.715  0.3323 -0.4106  0.0417
11376TIP3    H155619   3.285   3.451  10.656  0.6240  0.0877 -0.6991
11376TIP3    H255620   3.234   3.552  10.756 -0.0225  0.0158 -0.9485
11377TIP3   OH255621   0.258   4.977   0.142  0.2387 -0.3962 -0.5397
11377TIP3    H155622   0.243   4.971   0.236  0.0657 -2.6690 -0.6555
11377TIP3    H255623   0.179   5.020   0.108  0.5648  0.9933  0.3758
11378TIP3   OH255624   1.563   6.692  16.489 -0.1840  0.0218 -0.0290
11378TIP3    H155625   1.546   6.750  16.415  1.1780 -1.2441 -1.4056
11378TIP3    H255626   1.657   6.678  16.487 -0.2881 -1.0357  1.2110
11379TIP3   OH255627   0.797   0.799   3.965  0.2169 -0.1414  0.7429
11379TIP3    H155628   0.812   0.880   4.013 -1.8688  0.3517  0.6763
11379TIP3    H255629   0.721   0.817   3.910 -0.0233 -2.0008  0.3871
11380TIP3   OH255630   2.409   4.756  13.300 -0.3628  0.5663  0.4816
11380TIP3    H155631   2.371   4.777  13.386 -3.4819 -0.5218 -0.4708
11380TIP3    H255632   2.333   4.750  13.242  1.5899  0.5768 -2.2366
11381TIP3   OH255633   2.002   5.675   4.005  0.2432 -0.4243  0.2094
11381TIP3    H155634   2.060   5.634   4.070  0.1495 -0.5416  0.2201
11381TIP3    H255635   2.053   5.748   3.970  0.1943 -0.1925  0.6136
11382TIP3   OH255636   4.252   3.422   4.531  0.0086  0.0395  0.4537
11382TIP3    H155637   4.329   3.464   4.570 -0.6939 -0.2072  2.2197
11382TIP3    H255638   4.284   3.383   4.450  1.4525  0.9914  0.5267
11383TIP3   OH255639   2.315   3.130  12.930 -0.5005 -0.0162  0.0944
11383TIP3    H155640   2.289   3.038  12.943  0.9434 -0.5543 -0.5864
11383TIP3    H255641   2.401   3.137  12.972 -1.0706  1.3428  1.1045
11384TIP3   OH255642   3.722   4.308   3.553  0.2851 -0.4738 -0.0499
11384TIP3    H155643   3.767   4.345   3.628  1.0177  2.3532 -1.7589
11384TIP3    H255644   3.773   4.336   3.477 -1.0188 -2.2953 -1.7103
11385TIP3   OH255645   3.185   5.582  13.063 -0.6496 -0.0885 -0.1036
11385TIP3    H155646   3.150   5.496  13.043 -0.7978 -0.3627  1.2302
11385TIP3    H255647   3.121   5.644  13.027  0.7256 -0.3994 -3.4451
11386TIP3   OH255648   5.398   2.089   4.979  0.1349  0.3093 -0.2913
11386TIP3    H155649   5.464   2.147   5.018 -1.3243  1.5502  0.4405
11386TIP3    H255650   5.448   2.012   4.951  1.6555  0.4370  1.7711
11387TIP3   OH255651   4.734   4.488  16.887  0.1219 -0.0981  0.1383
11387TIP3    H155652   4.824   4.504  16.858 -0.6412  1.2443 -1.6990
11387TIP3    H255653   4.705   4.571  16.923 -0.1869 -0.7211  1.3894
11388TIP3   OH255654   0.028   2.269   4.783 -0.0296 -0.0251  0.5685
11388TIP3    H155655   0.104   2.237   4.735 -0.9429 -0.6622 -0.5146
11388TIP3    H255656   0.063   2.336   4.842  1.7310 -1.8698  1.7738
11389TIP3   OH255657   2.704   6.581   6.344  0.2617 -0.5293 -0.0315
11389TIP3    H155658   2.700   6.624   6.429  1.5661 -3.0430  1.4172
11389TIP3    H255659   2.613   6.559   6.324  0.0422 -1.0510  1.3887
11390TIP3   OH255660   0.376   6.353   5.949  0.0039 -0.0374 -0.1744
11390TIP3    H155661   0.297   6.327   5.996 -0.8979  2.1680 -0.3733
11390TIP3    H255662   0.437   6.381   6.017  0.5928 -1.5400 -0.0372
11391TIP3   OH255663   0.179   1.296   4.118 -0.2412  0.1191  0.3719
11391TIP3    H155664   0.211   1.372   4.069 -0.2212  0.5096  0.9777
11391TIP3    H255665   0.094   1.277   4.080 -0.3155  0.5429  0.3210
11392TIP3   OH255666   2.984   2.250   5.354  0.1208 -0.0827 -0.6075
11392TIP3    H155667   2.957   2.262   5.263 -0.5287  0.0850 -0.3984
11392TIP3    H255668   2.927   2.180   5.387  0.0222  0.1948 -0.1892
11393TIP3   OH255669   1.813   5.400   4.755  0.4413  0.3058  0.5642
11393TIP3    H155670   1.908   5.411   4.761  0.9072 -1.3615 -2.0986
11393TIP3    H255671   1.782   5.482   4.717  0.9206  0.5514  0.6925
11394TIP3   OH255672   2.619   5.173  16.532 -0.4581  0.0576 -0.1890
11394TIP3    H155673   2.700   5.148  16.577 -0.4693 -0.2933 -0.3581
11394TIP3    H255674   2.628   5.266  16.516  0.3474 -0.1579 -1.0804
11395TIP3   OH255675   4.212   0.994  14.645  0.0435 -0.8170  0.4184
11395TIP3    H155676   4.276   1.034  14.586 -1.3232  0.0780 -0.4979
11395TIP3    H255677   4.155   1.066  14.672 -0.1723 -1.4633  1.8058
11396TIP3   OH255678   5.452   6.276  11.881  0.7911  0.0117  0.3025
11396TIP3    H155679   5.362   6.259  11.908  1.1688 -0.7712  1.1271
11396TIP3    H255680   5.488   6.189  11.860  1.4092  0.2924  0.1581
11397TIP3   OH255681   0.825   5.492  14.147  0.0405 -0.1756 -0.6390
11397TIP3    H155682   0.829   5.407  14.104 -0.0443  0.7297 -2.5334
11397TIP3    H255683   0.917   5.516  14.162  0.0554 -0.7415  0.2475
11398TIP3   OH255684   0.482   6.474  10.366  0.4063 -0.4987 -0.2657
11398TIP3    H155685   0.393   6.473  10.331  1.3870 -2.3252 -3.0720
11398TIP3    H255686   0.477   6.422  10.446 -0.9362 -1.1783 -0.7547
11399TIP3   OH255687   3.457   0.366   5.574  0.6307  0.0954  0.3594
11399TIP3    H155688   3.469   0.311   5.651  0.0641  0.1852  0.5207
11399TIP3    H255689   3.545   0.388   5.546  0.9484 -2.3390 -0.7771
11400TIP3   OH255690   3.849   4.770   0.396  0.2985 -0.7090  0.4914
11400TIP3    H155691   3.892   4.718   0.329  1.1236 -0.0944  0.5274
11400TIP3    H255692   3.916   4.831   0.427 -0.6326  0.3897  0.4409
11401TIP3   OH255693   2.581   0.736   4.878 -0.4395 -0.4479  0.6470
11401TIP3    H155694   2.641   0.798   4.837  1.0686 -2.8255 -0.9425
11401TIP3    H255695   2.625   0.710   4.959  2.1148 -3.9896 -1.6211
11402TIP3   OH255696   2.668   1.311  12.230 -0.0698 -0.0224 -0.7460
11402TIP3    H155697   2.578   1.316  12.197 -0.2795 -0.6354 -0.2794
11402TIP3    H255698   2.675   1.383  12.292 -0.6609 -0.7557  0.1995
11403TIP3   OH255699   3.526   6.217  11.693  0.1218 -0.3939 -0.8461
11403TIP3    H155700   3.614   6.244  11.719  0.2520 -1.3197 -0.2722
11403TIP3    H255701   3.518   6.245  11.602  1.7196 -1.9410 -1.4977
11404TIP3   OH255702   4.023   4.392  11.633 -0.2936  0.9375  0.4369
11404TIP3    H155703   4.115   4.383  11.657 -0.3561 -0.3950  0.2393
11404TIP3    H255704   4.022   4.384  11.538 -0.6543  0.4970  0.4761
11405TIP3   OH255705   6.488   4.315  16.329  0.1247 -0.3841 -0.1104
11405TIP3    H155706   6.502   4.314  16.234  1.2388  1.4963 -0.0307
11405TIP3    H255707   6.437   4.395  16.345 -1.2953 -1.4188  0.7701
11406TIP3   OH255708   6.592   5.225   1.046  0.2851  0.0541  0.2545
11406TIP3    H155709   6.688   5.217   1.043  0.3106  0.1854  0.6818
11406TIP3    H255710   6.576   5.294   1.110 -0.1263 -0.6845  0.9622
11407TIP3   OH255711   2.701   1.369  14.468 -0.2752  0.3228 -0.0036
11407TIP3    H155712   2.608   1.380  14.447  0.1512  1.1794 -1.6169
11407TIP3    H255713   2.701   1.325  14.553 -2.1514  1.3782  0.6111
11408TIP3   OH255714   4.413   4.300   1.493  0.1712 -0.3002 -0.5812
11408TIP3    H155715   4.498   4.267   1.522  1.2029 -0.3268 -3.3823
11408TIP3    H255716   4.375   4.339   1.572  2.5859 -0.6680  0.8691
11409TIP3   OH255717   3.840   4.644  13.398 -0.4572  0.7070 -0.1137
11409TIP3    H155718   3.860   4.551  13.400 -0.6509  0.6280  2.5553
11409TIP3    H255719   3.921   4.687  13.426 -1.2257  1.0347  1.8224
11410TIP3   OH255720   4.633   5.429   5.981  0.1821 -0.2624  0.0325
11410TIP3    H155721   4.643   5.344   6.025  1.3784  0.0761  0.4454
11410TIP3    H255722   4.562   5.415   5.918  0.3407 -1.5569  0.1171
11411TIP3   OH255723   1.492   2.938   1.574 -0.4608 -0.0998 -0.0245
11411TIP3    H155724   1.437   3.002   1.529 -1.6609  0.5817  2.2340
11411TIP3    H255725   1.450   2.854   1.557  0.4375 -0.2006 -2.0086
11412TIP3   OH255726   2.491   0.560   3.492 -0.5499  0.0070 -0.0720
11412TIP3    H155727   2.457   0.486   3.441 -0.2037  0.6448 -1.2850
11412TIP3    H255728   2.580   0.533   3.515 -0.3077  0.1622 -0.7935
11413TIP3   OH255729   2.491   2.411  17.190  0.0333  0.3194  0.2371
11413TIP3    H155730   2.417   2.352  17.173 -0.8313  1.5493 -0.4063
11413TIP3    H255731   2.499   2.463  17.110  0.8793  0.9808  0.7364
11414TIP3   OH255732   5.786   2.812   1.320  0.5903  0.2674 -0.2630
11414TIP3    H155733   5.846   2.801   1.394 -1.4056 -1.4168  1.2318
11414TIP3    H255734   5.704   2.771   1.349 -0.2348 -0.6852 -3.4971
11415TIP3   OH255735   5.145   3.464  17.098 -0.0426 -0.0586 -0.2250
11415TIP3    H155736   5.199   3.475  17.176 -0.9453 -2.4042  0.8105
11415TIP3    H255737   5.111   3.552  17.080  0.9698  0.7119  1.4224
11416TIP3   OH255738   2.857   1.941   5.798  0.4800 -0.2597  0.4137
11416TIP3    H155739   2.909   1.864   5.821 -0.5608 -0.4675  2.2774
11416TIP3    H255740   2.784   1.940   5.860  0.2052  2.0175  0.2148
11417TIP3   OH255741   3.848   3.826  13.743 -0.1030 -0.0194  0.2899
11417TIP3    H155742   3.907   3.758  13.776 -0.0859 -0.6485 -0.9858
11417TIP3    H255743   3.906   3.889  13.701 -0.3435 -1.0402 -1.6782
11418TIP3   OH255744   2.011   2.867   3.650 -0.4360 -0.1168  0.2362
11418TIP3    H155745   2.092   2.862   3.701 -1.4373 -1.2858  1.7989
11418TIP3    H255746   1.946   2.903   3.710 -1.1058  0.8071 -0.9951
11419TIP3   OH255747   6.741   0.398  12.874  0.0012 -0.2317 -0.1369
11419TIP3    H155748   6.762   0.392  12.781  0.5194 -1.2721  0.0388
11419TIP3    H255749   6.798   0.468  12.908 -0.9407  0.8892 -0.7902
11420TIP3   OH255750   0.121   5.554   4.135 -0.1362 -0.2270  0.7686
11420TIP3    H155751   0.168   5.470   4.137  0.3503  0.0442  0.7878
11420TIP3    H255752   0.184   5.615   4.096  0.8329  0.9502  3.8921
11421TIP3   OH255753   1.063   4.645   0.884 -0.3121 -0.6759 -0.1170
11421TIP3    H155754   1.027   4.726   0.847  0.2652 -0.2343  0.2656
11421TIP3    H255755   1.148   4.635   0.840  0.2904 -0.2533  0.9129
11422TIP3   OH255756   0.378   0.612  16.379 -0.0697 -0.1748 -0.1148
11422TIP3    H155757   0.361   0.652  16.294 -1.4714 -0.9780 -0.2548
11422TIP3    H255758   0.326   0.664  16.441 -0.3415 -0.5617 -0.0105
11423TIP3   OH255759   1.006   2.710   4.762 -0.1834 -0.1677 -0.8598
11423TIP3    H155760   0.922   2.732   4.802 -1.7340 -2.4017 -2.6903
11423TIP3    H255761   1.062   2.785   4.785 -2.9708  2.0540 -0.6451
11424TIP3   OH255762   2.599   5.662   5.935 -0.2876  0.0987 -0.0816
11424TIP3    H155763   2.610   5.756   5.919 -0.4010 -0.2082 -2.3379
11424TIP3    H255764   2.507   5.651   5.956 -0.0775  0.5773  1.1854
11425TIP3   OH255765   6.742   5.269  15.065 -0.7645 -0.2724 -0.0978
11425TIP3    H155766   6.780   5.347  15.026 -2.8019  1.4935  1.2364
11425TIP3    H255767   6.818   5.218  15.095  0.6692  0.2197 -2.6491
11426TIP3   OH255768   5.991   6.160  13.878  0.1843 -0.1143 -0.2041
11426TIP3    H155769   6.057   6.147  13.946  2.3798  1.3553 -1.8983
11426TIP3    H255770   6.009   6.092  13.813 -1.4763 -1.1066  0.3280
11427TIP3   OH255771   4.232   4.065  12.395  0.6986  0.1851 -0.4428
11427TIP3    H155772   4.259   4.098  12.481  1.6931  0.2567 -0.7771
11427TIP3    H255773   4.163   4.001  12.415  0.4099  0.7199  0.3565
11428TIP3   OH255774   5.039   0.022   0.336  0.8566  0.2883  0.2977
11428TIP3    H155775   5.006   0.019   0.426  1.3599  1.6026  0.5451
11428TIP3    H255776   5.131  -0.003   0.343  0.2355 -2.4249 -0.2647
11429TIP3   OH255777   3.638   5.747  12.858 -0.1309 -0.5039 -0.4009
11429TIP3    H155778   3.597   5.676  12.908  1.1177 -0.0381  1.3665
11429TIP3    H255779   3.566   5.810  12.844 -1.2218 -1.9868 -1.8915
11430TIP3   OH255780   4.011   4.861  12.198  0.3560 -0.5085 -0.5105
11430TIP3    H155781   4.008   4.793  12.131  2.5214  0.1180 -1.3514
11430TIP3    H255782   4.103   4.863  12.225 -0.0202  0.8476  0.7908
11431TIP3   OH255783   4.963   6.150  12.591  0.0781  0.1399  0.3258
11431TIP3    H155784   4.962   6.232  12.641 -1.7694  0.0813  0.4912
11431TIP3    H255785   4.915   6.088  12.647 -1.3127 -0.1573 -1.1275
11432TIP3   OH255786   0.152   3.085  15.593  0.5857  0.3681  0.2600
11432TIP3    H155787   0.078   3.037  15.556  0.4630  0.1208  0.8184
11432TIP3    H255788   0.227   3.056  15.541  0.1186  1.5653 -1.1501
11433TIP3   OH255789   5.204   3.231  11.425  0.8174  0.3324  1.1841
11433TIP3    H155790   5.203   3.187  11.341  0.9537  0.2628  1.2182
11433TIP3    H255791   5.244   3.169  11.485  0.0782  0.1097  1.4560
11434TIP3   OH255792   1.487   1.777   0.035  0.8233  0.0797  0.6009
11434TIP3    H155793   1.402   1.736   0.053  0.8315  0.2189  0.9535
11434TIP3    H255794   1.470   1.871   0.041  0.9332  0.1146  0.3588
11435TIP3   OH255795   4.056   6.285  16.833  0.1728  0.0305 -0.5047
11435TIP3    H155796   4.052   6.191  16.815 -1.7554 -0.3500  1.4831
11435TIP3    H255797   4.126   6.295  16.897  0.3443 -0.0605 -0.6776
11436TIP3   OH255798   6.561   1.809  15.906  0.8244  0.1514 -0.0973
11436TIP3    H155799   6.616   1.734  15.927  0.1318 -0.3464 -0.0350
11436TIP3    H255800   6.623   1.880  15.891  1.4362  0.2819  2.5000
11437TIP3   OH255801   2.729   3.686   4.353  0.7401 -0.3241 -0.5975
11437TIP3    H155802   2.816   3.725   4.359 -0.6170  3.3752 -2.4057
11437TIP3    H255803   2.744   3.601   4.311  3.4577  0.2467 -0.9574
11438TIP3   OH255804   0.823   6.178   5.219 -0.4921  0.1168 -0.0924
11438TIP3    H155805   0.857   6.138   5.138 -0.0853  1.6653 -0.7086
11438TIP3    H255806   0.900   6.192   5.273 -0.7077 -0.4317  0.3716
11439TIP3   OH255807   5.851   1.641   5.366 -0.2353  0.4938  0.1716
11439TIP3    H155808   5.832   1.706   5.299 -0.9469 -0.0011 -0.1116
11439TIP3    H255809   5.892   1.568   5.318  1.3026  1.0311  0.5928
11440TIP3   OH255810   4.750   3.234   3.409 -0.5500  0.9025 -0.3269
11440TIP3    H155811   4.749   3.329   3.400 -1.2627  1.1603  1.8783
11440TIP3    H255812   4.842   3.210   3.396 -0.1179  2.0614  0.3853
11441TIP3   OH255813   6.788   3.534   4.097 -0.0925 -0.1108  0.0932
11441TIP3    H155814   6.851   3.580   4.154 -1.4523  0.3961  1.2441
11441TIP3    H255815   6.803   3.441   4.116 -0.2126  0.0371  0.9551
11442TIP3   OH255816   0.023   1.703   3.357 -0.0235 -0.3783  0.0802
11442TIP3    H155817  -0.048   1.664   3.305  0.3354  1.5362 -1.9653
11442TIP3    H255818  -0.022   1.766   3.414 -0.1349 -0.5617  0.1999
11443TIP3   OH255819   1.644   6.608  15.516  0.4519  0.5522 -0.2088
11443TIP3    H155820   1.733   6.619  15.549  0.4961 -0.2123 -0.0586
11443TIP3    H255821   1.592   6.588  15.594 -0.0613  2.0284 -0.1317
11444TIP3   OH255822   1.105   3.428   5.265 -0.0641 -0.5308  0.2449
11444TIP3    H155823   1.138   3.342   5.239  1.6914  0.5129 -1.1723
11444TIP3    H255824   1.068   3.465   5.185 -2.2744 -0.5487  1.1940
11445TIP3   OH255825   0.954   4.841   1.921 -0.0778 -0.1216  0.0429
11445TIP3    H155826   1.042   4.875   1.903 -0.5149  0.7154 -0.5495
11445TIP3    H255827   0.970   4.760   1.969  0.9850  1.0790  1.8202
11446TIP3   OH255828   2.438   3.235  16.214 -0.4049  0.2895  0.4163
11446TIP3    H155829   2.368   3.300  16.218  0.0610  0.7681  1.0680
11446TIP3    H255830   2.399   3.160  16.170 -1.0983  0.8307  0.0957
11447TIP3   OH255831   4.130   4.422   0.988 -0.1302 -0.0139  0.1812
11447TIP3    H155832   4.133   4.486   0.917 -1.2375  0.6996  0.7508
11447TIP3    H255833   4.198   4.451   1.049  0.4309 -0.2955 -0.3036
11448TIP3   OH255834   4.830   3.647  16.194 -0.5026 -0.1071  0.6636
11448TIP3    H155835   4.807   3.733  16.229 -0.7049 -0.4044  1.2713
11448TIP3    H255836   4.810   3.586  16.265 -0.2262 -0.6426  0.2866
11449TIP3   OH255837   1.843   4.255  11.167 -0.1274  0.5624 -0.4254
11449TIP3    H155838   1.821   4.162  11.155  1.7698  0.0683 -0.4931
11449TIP3    H255839   1.916   4.270  11.106 -1.2019  2.4596 -1.3379
11450TIP3   OH255840   2.305   3.724  12.628 -0.8182  0.2800  0.0800
11450TIP3    H155841   2.353   3.737  12.710  0.3289 -2.3654 -0.0803
11450TIP3    H255842   2.337   3.795  12.571  1.9569 -0.5368  0.4515
11451TIP3   OH255843   4.591   3.975   0.116 -0.3295 -0.4256  0.2134
11451TIP3    H155844   4.626   3.929   0.192  0.7681 -2.6765 -1.5359
11451TIP3    H255845   4.654   3.958   0.046 -1.4750  1.2637 -1.3327
11452TIP3   OH255846   5.796   1.056  15.632  0.3204  0.4813  0.4454
11452TIP3    H155847   5.725   1.121  15.631 -1.0891 -1.0026 -0.3055
11452TIP3    H255848   5.803   1.029  15.723 -1.1796 -0.4695  0.3089
11453TIP3   OH255849   3.357   3.943  13.053  0.3312 -0.4761  0.4799
11453TIP3    H155850   3.266   3.965  13.033 -0.1961 -2.0838  0.9455
11453TIP3    H255851   3.388   3.899  12.974  1.0606  0.9818 -0.0755
11454TIP3   OH255852   2.735   6.025  16.941  0.3322  0.5644 -0.1407
11454TIP3    H155853   2.640   6.024  16.953  0.2807  0.9361 -0.5001
11454TIP3    H255854   2.754   5.943  16.896 -0.2037  1.7849 -2.7882
11455TIP3   OH255855   4.430   4.779  12.611 -0.3687  0.5340  0.6790
11455TIP3    H155856   4.514   4.822  12.628  0.4711 -0.6875 -0.1473
11455TIP3    H255857   4.382   4.840  12.555 -0.2313  1.4475  1.5357
11456TIP3   OH255858   4.542   4.426  12.072  0.4334  0.4762 -0.6702
11456TIP3    H155859   4.468   4.380  12.111  1.7815 -1.1952  0.0721
11456TIP3    H255860   4.504   4.479  12.003 -1.9709  2.7333  2.1055
11457TIP3   OH255861   2.001   3.560   0.425 -0.4341  0.4765 -0.2242
11457TIP3    H155862   2.056   3.631   0.459 -1.1650  0.8389  0.2290
11457TIP3    H255863   2.063   3.490   0.403  0.2875  1.2205 -0.6025
11458TIP3   OH255864   0.036   1.177   4.974 -0.4035  0.0226  0.2575
11458TIP3    H155865   0.045   1.112   4.905  0.6249 -0.4003  0.7666
11458TIP3    H255866   0.123   1.216   4.981 -0.7175  0.6581  0.7313
11459TIP3   OH255867   0.789   2.257  15.538  0.2983  0.1763 -0.4767
11459TIP3    H155868   0.724   2.309  15.492  0.3393  2.3272  1.6741
11459TIP3    H255869   0.740   2.217  15.610  1.0694  0.9002  0.4875
11460TIP3   OH255870   5.161   2.948  12.556 -0.0580  0.4554 -0.2158
11460TIP3    H155871   5.252   2.958  12.584 -0.4317 -0.5675  1.5119
11460TIP3    H255872   5.164   2.881  12.487  0.3102 -1.3219  1.4282
11461TIP3   OH255873   0.687   0.302  11.420  0.1426  0.1397  1.0521
11461TIP3    H155874   0.700   0.392  11.449 -1.5717 -0.1366  2.9042
11461TIP3    H255875   0.605   0.275  11.462 -0.2426 -1.7607 -0.7650
11462TIP3   OH255876   6.695   1.860   2.402 -0.2256  0.2177 -0.3317
11462TIP3    H155877   6.641   1.840   2.326 -2.2400 -0.5808  1.2072
11462TIP3    H255878   6.656   1.809   2.473  1.6989  0.7619  1.2080
11463TIP3   OH255879   3.409   4.160  17.190  0.7304  0.3052  0.2083
11463TIP3    H155880   3.329   4.120  17.156  1.0977  0.1123 -0.4588
11463TIP3    H255881   3.442   4.212  17.117  0.6216  1.2963  0.8459
11464TIP3   OH255882   0.729   1.224   6.661  0.1720  0.0991 -0.1602
11464TIP3    H155883   0.788   1.154   6.688  0.2040  0.4199  0.6099
11464TIP3    H255884   0.655   1.218   6.722  0.6257  1.3515  0.5626
11465TIP3   OH255885   5.707   2.671   0.208 -0.4033  0.0132  0.1256
11465TIP3    H155886   5.638   2.619   0.248  1.1369  0.1388  3.2940
11465TIP3    H255887   5.787   2.620   0.223  0.4855  0.8822 -1.4263
11466TIP3   OH255888   0.379   0.009  11.017  0.1775  0.5885  0.1961
11466TIP3    H155889   0.293   0.049  11.007 -1.3308 -2.6923 -1.1619
11466TIP3    H255890   0.441   0.081  11.001 -2.2631  2.6129 -0.8040
11467TIP3   OH255891   0.675   1.828   3.665 -0.1471 -0.3876 -0.7540
11467TIP3    H155892   0.646   1.753   3.716 -1.1271  1.0870  0.9953
11467TIP3    H255893   0.693   1.896   3.730 -1.2630  1.5408 -2.3373
11468TIP3   OH255894   0.450   4.319  13.247  0.0375  0.5599 -0.2509
11468TIP3    H155895   0.502   4.341  13.169  2.2821  1.7788  1.4377
11468TIP3    H255896   0.429   4.404  13.286 -1.4258 -0.0123  0.2777
11469TIP3   OH255897   2.444   5.842   2.062 -0.1403  0.0449 -0.0194
11469TIP3    H155898   2.368   5.791   2.088 -1.1209  1.5155  0.1275
11469TIP3    H255899   2.518   5.783   2.076 -1.0210 -0.6566  2.0701
11470TIP3   OH255900   5.867   3.530  11.774 -0.5424  0.0919 -0.6583
11470TIP3    H155901   5.871   3.448  11.824  1.9117  0.3689 -0.2632
11470TIP3    H255902   5.780   3.565  11.792 -1.3237 -1.9583 -0.1136
11471TIP3   OH255903   2.220   0.851  13.258  0.1712 -0.7010  0.6989
11471TIP3    H155904   2.281   0.836  13.186 -0.3627  3.4440 -0.9007
11471TIP3    H255905   2.265   0.912  13.316 -1.1113 -0.3181  1.3454
11472TIP3   OH255906   3.341   1.037  13.308 -0.1333 -0.2708  0.0801
11472TIP3    H155907   3.285   1.088  13.249  1.5264  1.3483 -0.1911
11472TIP3    H255908   3.394   0.982  13.251  1.3643  1.1845 -0.0336
11473TIP3   OH255909   4.883   4.182   0.072 -0.5516  0.5651 -0.3342
11473TIP3    H155910   4.839   4.101   0.099 -0.2984  0.5042 -0.1029
11473TIP3    H255911   4.921   4.160  -0.013  0.9749 -0.1149  0.4817
11474TIP3   OH255912   3.687   2.033  14.499 -0.1436  0.2080 -0.2859
11474TIP3    H155913   3.613   2.042  14.558 -1.0868  1.8971 -1.6525
11474TIP3    H255914   3.666   2.089  14.424  1.9449 -0.2338 -1.2860
11475TIP3   OH255915   6.066   4.544  15.738 -0.6406  0.4098  0.4022
11475TIP3    H155916   6.072   4.628  15.692 -0.8194 -0.2584 -0.8968
11475TIP3    H255917   5.983   4.507  15.709  0.2536 -1.0132 -0.4863
11476TIP3   OH255918   3.334   3.774   4.833 -0.3165  0.1205 -0.1169
11476TIP3    H155919   3.412   3.785   4.888 -1.4721 -0.6608  1.7472
11476TIP3    H255920   3.261   3.800   4.889 -1.5134 -0.3048 -1.4296
11477TIP3   OH255921   2.849   0.710  10.882 -0.1679 -0.4836 -0.0127
11477TIP3    H155922   2.765   0.755  10.885 -0.2436 -0.6354  3.1180
11477TIP3    H255923   2.911   0.777  10.853 -0.8359  0.7085  1.1892
11478TIP3   OH255924   4.451   6.562   3.354 -0.3786 -0.3924  0.2792
11478TIP3    H155925   4.471   6.481   3.306 -1.1993 -0.3795 -0.1038
11478TIP3    H255926   4.417   6.621   3.287  0.2136  0.2779  0.5586
11479TIP3   OH255927   3.063   2.062  12.563  0.0670  0.2056  0.0699
11479TIP3    H155928   3.039   1.977  12.525 -1.6115  0.1615  1.1304
11479TIP3    H255929   3.123   2.101  12.499  0.7361 -1.6829 -0.5283
11480TIP3   OH255930   3.116   2.185  11.968 -0.3077 -0.0059  0.4961
11480TIP3    H155931   3.050   2.159  11.903  0.1581 -0.6257  0.2570
11480TIP3    H255932   3.198   2.185  11.919  0.3646 -2.3806  1.4930
11481TIP3   OH255933   5.344   3.180  16.920 -0.2910  0.2029 -0.2638
11481TIP3    H155934   5.323   3.271  16.898 -1.1289  0.2350  0.5536
11481TIP3    H255935   5.276   3.129  16.876 -1.7565  0.2442  1.7803
11482TIP3   OH255936   4.201   1.265  15.941  0.1562 -0.4150 -0.0062
11482TIP3    H155937   4.142   1.304  15.876 -0.1180  1.7340  1.4026
11482TIP3    H255938   4.182   1.172  15.938 -1.4415 -0.0943 -1.4380
11483TIP3   OH255939   2.705   0.704  12.659 -0.4283 -0.1711  0.5483
11483TIP3    H155940   2.632   0.681  12.602 -0.1903  1.3348 -0.4277
11483TIP3    H255941   2.693   0.797  12.677 -0.3171 -0.5256  2.7514
11484TIP3   OH255942   2.328   6.396  10.849  0.8544 -0.1269 -0.2127
11484TIP3    H155943   2.361   6.308  10.830  2.0410  0.3421 -0.3697
11484TIP3    H255944   2.406   6.448  10.868  0.0324  0.1533  3.1353
11485TIP3   OH255945   2.677   0.252  11.578  0.1921 -0.0873 -0.9775
11485TIP3    H155946   2.733   0.330  11.583  0.0322 -0.0307  0.7219
11485TIP3    H255947   2.701   0.201  11.656  0.4269 -1.8534 -2.1480
11486TIP3   OH255948   6.355   4.498  15.621 -0.0321 -0.1418 -0.7219
11486TIP3    H155949   6.405   4.417  15.612  0.9042  0.4687 -1.2196
11486TIP3    H255950   6.360   4.520  15.714 -0.3540 -0.6782 -0.5706
11487TIP3   OH255951   0.238   0.511  12.824  0.0531  0.4911 -0.2075
11487TIP3    H155952   0.277   0.440  12.874 -1.2558  0.2199  0.4877
11487TIP3    H255953   0.185   0.559  12.888 -1.5162  0.2491 -1.2658
11488TIP3   OH255954   2.233   0.464   2.672  0.0573 -0.4797  0.6350
11488TIP3    H155955   2.319   0.455   2.633  0.9474  1.7607  1.8995
11488TIP3    H255956   2.180   0.508   2.605  1.2126  2.1493  1.3053
11489TIP3   OH255957   1.536   0.282   2.188 -0.5475 -0.2805  0.1975
11489TIP3    H155958   1.607   0.228   2.223 -0.6766 -0.8759 -0.4603
11489TIP3    H255959   1.526   0.352   2.254  1.6536  0.7075 -0.3958
11490TIP3   OH255960   6.345   1.341   1.636  0.0137 -0.5279  0.0926
11490TIP3    H155961   6.372   1.418   1.587  1.0576  0.1777  1.6883
11490TIP3    H255962   6.268   1.369   1.686  0.3886 -0.4944  0.6701
11491TIP3   OH255963   1.277   0.003   5.090 -0.4435 -0.5676 -0.3506
11491TIP3    H155964   1.295  -0.047   5.011  0.5443 -0.0778 -0.4503
11491TIP3    H255965   1.322   0.087   5.076 -1.3649  0.0215  0.1675
11492TIP3   OH255966   3.342   0.624  13.053 -0.1688 -0.0962 -0.5587
11492TIP3    H155967   3.350   0.717  13.033 -0.0706 -0.3369 -1.6566
11492TIP3    H255968   3.248   0.609  13.057 -0.2138  0.3692  1.2521
11493TIP3   OH255969   5.170   3.682   3.183 -0.4578 -0.2753 -0.0293
11493TIP3    H155970   5.200   3.746   3.248  1.3192 -2.8669  1.9825
11493TIP3    H255971   5.189   3.722   3.098  1.1923  1.5805  1.1244
11494TIP3   OH255972   0.151   4.233  17.015  0.0890 -0.6748  0.0555
11494TIP3    H155973   0.108   4.170  17.073  1.1312 -0.7196  0.8154
11494TIP3    H255974   0.237   4.194  16.997  1.7007  1.5102  2.4138
11495TIP3   OH255975   4.340   0.779  11.958 -0.7563  0.9415  0.1904
11495TIP3    H155976   4.249   0.808  11.969 -0.8108  0.6389  0.5425
11495TIP3    H255977   4.333   0.689  11.927 -0.5723  0.8091  0.5367
11496TIP3   OH255978   0.958   1.109  14.465  0.2897  0.5517  0.5927
11496TIP3    H155979   0.960   1.015  14.482  1.6671  0.9205  2.7802
11496TIP3    H255980   0.893   1.143  14.527  0.3132  1.1397  0.2937
11497TIP3   OH255981   1.483   0.004  16.692  0.1596  0.4686 -0.3666
11497TIP3    H155982   1.532  -0.061  16.642 -0.6490 -0.0927 -0.4424
11497TIP3    H255983   1.464   0.073  16.628 -0.5266 -0.0627 -0.7473
11498TIP3   OH255984   2.187   4.618   1.227  0.4116  0.3890  0.1756
11498TIP3    H155985   2.207   4.674   1.152 -0.1275  0.3744  0.0166
11498TIP3    H255986   2.270   4.575   1.248 -0.0965 -2.2658 -2.5619
11499TIP3   OH255987   4.312   6.311  12.771 -0.0695 -0.1806  0.5678
11499TIP3    H155988   4.361   6.304  12.853 -1.6338  0.2838  1.5855
11499TIP3    H255989   4.249   6.238  12.774  1.2360 -1.4685 -1.2497
11500TIP3   OH255990   1.314   2.115   1.767  1.1718  0.2709 -0.1042
11500TIP3    H155991   1.250   2.139   1.699 -0.5150 -0.3002  1.2303
11500TIP3    H255992   1.366   2.045   1.727 -0.4686 -0.7774 -0.4812
11501TIP3   OH255993   1.151   3.679  15.068  0.1466 -0.6430 -0.1709
11501TIP3    H155994   1.234   3.693  15.115  0.4377 -1.5742 -0.3870
11501TIP3    H255995   1.151   3.586  15.047 -0.9860 -0.6537 -0.1467
11502TIP3   OH255996   5.821   5.242   4.264 -0.0452  0.1023  0.5467
11502TIP3    H155997   5.800   5.286   4.346  0.4181 -1.4677  1.5501
11502TIP3    H255998   5.911   5.266   4.245 -1.0494  2.9693 -1.2211
11503TIP3   OH255999   5.955   0.182  15.816  0.0017 -0.4672  0.2634
11503TIP3    H156000   5.887   0.234  15.773  0.2810 -0.2436  0.0897
11503TIP3    H256001   6.026   0.244  15.831  0.3041 -0.7800  0.1300
11504TIP3   OH256002   0.189   5.390   4.618  0.1181 -0.6384  0.4806
11504TIP3    H156003   0.120   5.414   4.556  1.2549 -3.2512 -2.0240
11504TIP3    H256004   0.260   5.452   4.601  0.3457 -1.2162 -0.7662
11505TIP3   OH256005   5.491   3.316  16.011 -0.4363 -0.3357 -0.0074
11505TIP3    H156006   5.484   3.275  16.097 -0.5061  0.5527  0.4268
11505TIP3    H256007   5.404   3.353  15.995 -0.4254 -0.4962 -0.4628
11506TIP3   OH256008   2.345   5.552   2.159 -0.0115  0.2599 -0.2002
11506TIP3    H156009   2.422   5.528   2.108 -0.0606  0.7201 -0.5044
11506TIP3    H256010   2.336   5.484   2.226 -0.1690 -0.5556 -1.0453
11507TIP3   OH256011   2.571   1.199  15.944  0.1702  0.9862  0.3265
11507TIP3    H156012   2.613   1.118  15.975 -0.2845  0.5395 -0.2120
11507TIP3    H256013   2.621   1.269  15.986 -0.4384  0.4149  2.1165
11508TIP3   OH256014   4.018   4.551  16.830  0.3758  0.1076  0.3309
11508TIP3    H156015   3.976   4.636  16.839 -1.7951 -0.9245  0.5877
11508TIP3    H256016   4.088   4.551  16.895  0.5102  1.7433  0.2072
11509TIP3   OH256017   1.323   6.385   0.920  0.1743 -0.1417  0.0475
11509TIP3    H156018   1.387   6.421   0.859  0.2362  0.0943  0.2498
11509TIP3    H256019   1.239   6.418   0.889  0.2385  0.2396  0.2750
11510TIP3   OH256020   4.792   3.166  10.866 -0.4435  0.2835 -0.0328
11510TIP3    H156021   4.703   3.139  10.889 -0.3726  0.3028  0.2811
11510TIP3    H256022   4.808   3.127  10.781 -0.7459  0.2625 -0.0822
11511TIP3   OH256023   3.668   0.387  13.547 -0.3287 -0.1464 -0.1408
11511TIP3    H156024   3.584   0.379  13.501  0.2158  0.4500 -1.2869
11511TIP3    H256025   3.669   0.477  13.580 -0.3261 -0.2885  0.2479
11512TIP3   OH256026   5.465   2.859  13.339 -0.0832 -0.1137  0.3064
11512TIP3    H156027   5.553   2.860  13.301 -0.3005  0.4713 -0.1923
11512TIP3    H256028   5.422   2.784  13.298 -0.0615  0.0471 -0.0071
11513TIP3   OH256029   5.025   4.980  13.734  0.0673  0.5923  0.2120
11513TIP3    H156030   4.929   4.977  13.729 -0.0871  0.6974  2.2690
11513TIP3    H256031   5.046   5.073  13.726 -0.0043  0.5856 -0.0791
11514TIP3   OH256032   4.062   2.778  11.899 -0.5271 -0.6946 -0.4617
11514TIP3    H156033   3.974   2.774  11.935 -0.3198 -0.2755  0.0901
11514TIP3    H256034   4.049   2.770  11.804 -1.2323  0.3564 -0.4706
11515TIP3   OH256035   6.539   4.167  14.475  0.1583  0.4690 -0.4260
11515TIP3    H156036   6.554   4.089  14.421  0.6244 -0.4588  1.0103
11515TIP3    H256037   6.515   4.133  14.561  0.4930  1.9082  0.2691
11516TIP3   OH256038   5.247   0.159  16.892 -0.1217  0.4906 -0.5208
11516TIP3    H156039   5.234   0.254  16.885 -0.2957  0.4849 -0.2678
11516TIP3    H256040   5.342   0.148  16.891 -0.0426  0.8015  1.0985
11517TIP3   OH256041   5.114   5.927   2.285  0.3222 -0.0638  0.5062
11517TIP3    H156042   5.046   5.944   2.220 -1.2179 -1.1423  1.7650
11517TIP3    H256043   5.181   5.993   2.267 -0.6450  0.4936 -1.3196
11518TIP3   OH256044   0.343   3.327  11.644 -0.1522 -0.2157 -0.1380
11518TIP3    H156045   0.332   3.419  11.621 -0.1888  0.2410  1.5599
11518TIP3    H256046   0.437   3.317  11.659 -0.3082 -0.0891  1.0174
11519TIP3   OH256047   3.965   3.744  15.448 -0.2574 -0.3323  0.0472
11519TIP3    H156048   3.992   3.830  15.414 -0.0479  0.9935  3.2327
11519TIP3    H256049   4.019   3.732  15.526 -0.4733 -3.3208 -0.1784
11520TIP3   OH256050   4.812   1.677  16.559  0.1431  0.2528  0.3137
11520TIP3    H156051   4.738   1.723  16.519 -0.0890  0.6431  1.1647
11520TIP3    H256052   4.869   1.747  16.591  1.3543 -0.0211 -1.1213
11521TIP3   OH256053   5.368   1.155   2.486  0.0605 -1.3694  0.2067
11521TIP3    H156054   5.356   1.162   2.391  1.4864 -1.9138 -0.0352
11521TIP3    H256055   5.279   1.153   2.521 -0.4909 -1.3768 -1.1367
11522TIP3   OH256056   0.612   0.027  12.498  0.8467 -0.1826 -0.4351
11522TIP3    H156057   0.655   0.107  12.468  3.0116 -0.9117  0.5147
11522TIP3    H256058   0.597   0.042  12.592 -0.0166 -0.3896 -0.5266
11523TIP3   OH256059   3.938   3.758  12.285  0.0955  0.0770  0.3809
11523TIP3    H156060   3.919   3.763  12.191  0.7908  0.3449  0.2465
11523TIP3    H256061   3.856   3.781  12.327 -0.7632 -1.7974 -0.1267
11524TIP3   OH256062   3.476   0.617   4.793 -0.0520  0.1974 -0.3964
11524TIP3    H156063   3.544   0.557   4.823 -0.3414 -0.1212 -0.3556
11524TIP3    H256064   3.457   0.672   4.869  2.3992  2.4784 -1.3104
11525TIP3   OH256065   3.075   2.367  16.657  0.3219 -0.5309  0.2664
11525TIP3    H156066   3.006   2.434  16.653 -0.9499 -1.7952  0.3817
11525TIP3    H256067   3.154   2.416  16.678 -0.9780  0.7181  2.7668
11526TIP3   OH256068   1.983   2.049  14.468  0.3235 -0.3104 -0.3036
11526TIP3    H156069   2.054   2.102  14.433  0.9777 -0.2003  1.1092
11526TIP3    H256070   2.019   2.010  14.548 -0.5956 -1.7661 -0.5486
11527TIP3   OH256071   5.436   5.168   4.586 -0.1392  0.3904  0.6540
11527TIP3    H156072   5.490   5.121   4.649  1.4392  0.0472 -0.8734
11527TIP3    H256073   5.499   5.217   4.532 -1.4533  1.0078 -0.3765
11528TIP3   OH256074   3.922   0.985   3.746  0.7073 -0.2146  0.6107
11528TIP3    H156075   4.014   0.962   3.728  0.3758 -0.6567 -0.6588
11528TIP3    H256076   3.893   1.028   3.665 -0.4895 -0.9862  0.6183
11529TIP3   OH256077   6.350   4.791   4.326  0.1200  0.2038  0.7326
11529TIP3    H156078   6.352   4.710   4.275  1.4544 -0.6730  2.1219
11529TIP3    H256079   6.419   4.845   4.287  0.0964  0.1601  0.6289
11530TIP3   OH256080   0.265   3.509   1.315  0.4259  0.6634  0.0420
11530TIP3    H156081   0.260   3.450   1.240 -3.6618  0.1249  0.4876
11530TIP3    H256082   0.245   3.595   1.278 -0.5514  0.5682  0.3235
11531TIP3   OH256083   5.869   4.173   2.290 -0.6331  0.1783 -0.0404
11531TIP3    H156084   5.928   4.099   2.279  0.1241  0.6814  0.4745
11531TIP3    H256085   5.805   4.164   2.220 -0.3965 -0.8084 -0.1413
11532TIP3   OH256086   0.652   3.446   0.331  0.5318  0.2041 -0.5318
11532TIP3    H156087   0.619   3.373   0.279 -0.4601  0.3989 -0.1985
11532TIP3    H256088   0.579   3.508   0.334  1.4671  1.3808 -1.1107
11533TIP3   OH256089   4.526   5.899  16.471  0.0640  0.1394  0.6000
11533TIP3    H156090   4.621   5.883  16.473  0.0166 -0.6933 -1.4918
11533TIP3    H256091   4.502   5.909  16.563  1.4974 -3.8803  1.6069
11534TIP3   OH256092   1.791   3.953   5.317  0.0794  0.6077  0.2371
11534TIP3    H156093   1.728   4.015   5.354  1.4457  1.8931  0.5045
11534TIP3    H256094   1.739   3.875   5.297 -1.4597  1.3755  1.0580
11535TIP3   OH256095   2.951   3.290   5.282 -0.3408  0.1263  0.7826
11535TIP3    H156096   3.044   3.276   5.298 -0.4965 -3.0831 -0.3973
11535TIP3    H256097   2.907   3.221   5.331 -1.9723  0.4926 -0.0856
11536TIP3   OH256098   1.260   6.459   0.434 -0.1241  0.4579 -0.0717
11536TIP3    H156099   1.275   6.553   0.435 -1.6520  0.7169 -0.0678
11536TIP3    H256100   1.297   6.430   0.351 -1.9605  1.4978 -1.3262
11537TIP3   OH256101   5.310   1.233   3.462  0.3799 -0.1992 -0.3788
11537TIP3    H156102   5.344   1.172   3.527  0.8552 -2.0011 -2.2240
11537TIP3    H256103   5.295   1.314   3.511  2.3476 -0.9271  1.6062
11538TIP3   OH256104   1.132   1.665   6.168  0.0540  0.3866 -0.2954
11538TIP3    H156105   1.190   1.618   6.107 -1.6247  0.1729 -1.8005
11538TIP3    H256106   1.119   1.603   6.240 -0.6267 -0.7481 -1.3546
11539TIP3   OH256107   3.343   0.947  11.466  0.1070 -0.1352  0.1453
11539TIP3    H156108   3.305   0.865  11.435 -0.7992  0.1529  0.4441
11539TIP3    H256109   3.427   0.921  11.505 -0.5701 -1.0712  1.0662
11540TIP3   OH256110   2.532   0.277  15.778 -0.1627  0.2046 -0.1494
11540TIP3    H156111   2.522   0.183  15.796  2.1311  0.3111  2.2066
11540TIP3    H256112   2.487   0.320  15.851 -0.2253  0.9460 -0.6183
11541TIP3   OH256113   2.150   0.767   4.257  0.1819 -0.1713 -0.4448
11541TIP3    H156114   2.208   0.692   4.243 -1.8371 -2.1076  0.9812
11541TIP3    H256115   2.071   0.747   4.207 -1.0477  0.1573  1.2807
11542TIP3   OH256116   3.114   3.918  15.112 -0.0334  0.1300 -0.4069
11542TIP3    H156117   3.110   4.011  15.132  0.5104  0.3857 -1.4225
11542TIP3    H256118   3.023   3.888  15.119 -0.2244  0.7509 -0.1732
11543TIP3   OH256119   2.832   3.487   2.268  0.0916  0.1212 -0.1175
11543TIP3    H156120   2.880   3.563   2.235 -0.2616  0.9584  1.2160
11543TIP3    H256121   2.809   3.438   2.189  0.7237  1.1443 -0.9805
11544TIP3   OH256122   6.115   2.011   0.157 -0.1135 -0.0199 -0.0931
11544TIP3    H156123   6.035   2.044   0.198  0.6191 -0.9619  2.2475
11544TIP3    H256124   6.092   1.925   0.123 -0.2005 -0.0882  0.1449
11545TIP3   OH256125   1.102   2.327   3.994  0.0066  0.1299 -0.1390
11545TIP3    H156126   1.169   2.394   3.985 -0.4210  0.4269 -1.3314
11545TIP3    H256127   1.128   2.258   3.932 -1.0324  0.4897 -1.0223
11546TIP3   OH256128   5.016   5.322  11.859 -0.1501  0.2864 -0.2959
11546TIP3    H156129   4.988   5.330  11.950  0.2252 -0.2966 -0.1256
11546TIP3    H256130   4.936   5.298  11.812 -0.0536 -0.9165  0.1203
11547TIP3   OH256131   2.220   2.321   2.670 -0.3365 -0.3342  0.1501
11547TIP3    H156132   2.179   2.278   2.745 -0.4070 -0.2082  0.1828
11547TIP3    H256133   2.182   2.409   2.668 -1.1106 -0.6695 -0.6436
11548TIP3   OH256134   3.072   6.350  14.700 -0.4239  0.2880  0.3926
11548TIP3    H156135   3.123   6.347  14.781  0.0218 -1.0212  0.0935
11548TIP3    H256136   3.095   6.434  14.660  1.9182 -0.4443  0.0493
11549TIP3   OH256137   1.215   3.067  11.429 -0.3361 -0.3188 -0.2118
11549TIP3    H156138   1.254   3.150  11.455 -0.0551 -0.6839  0.5494
11549TIP3    H256139   1.281   3.027  11.372 -0.0251 -0.4892  0.2673
11550TIP3   OH256140   5.465   2.815   4.523 -0.2817  0.0036  0.6340
11550TIP3    H156141   5.387   2.788   4.473  0.2168  0.0821 -0.2051
11550TIP3    H256142   5.502   2.887   4.473 -0.2988  0.7302  1.6438
11551TIP3   OH256143   3.108   2.022  13.318  0.2058 -0.2287  1.2187
11551TIP3    H156144   3.079   1.981  13.237  0.0217  0.2588  1.0293
11551TIP3    H256145   3.057   2.103  13.323  1.7441  0.8291  0.6998
11552TIP3   OH256146   5.488   1.885   3.128  0.0314  0.0102  0.1989
11552TIP3    H156147   5.540   1.928   3.060 -1.2226  2.2810  0.5823
11552TIP3    H256148   5.414   1.847   3.081  1.0912 -1.7705 -0.1276
11553TIP3   OH256149   3.797   4.051  14.620 -0.4312  0.1261 -0.2609
11553TIP3    H156150   3.785   4.146  14.622  0.7943  0.3453 -1.7433
11553TIP3    H256151   3.770   4.025  14.532  0.1188 -0.7716 -0.1777
11554TIP3   OH256152   2.883   5.739  11.498 -0.0408 -0.0858  0.4764
11554TIP3    H156153   2.875   5.706  11.408  0.4104  0.0662  0.3787
11554TIP3    H256154   2.976   5.757  11.508 -0.4225  2.3474  0.1223
11555TIP3   OH256155   5.050   0.680   1.801 -0.1103 -0.4942 -0.2663
11555TIP3    H156156   5.077   0.679   1.893  1.2125 -0.2444 -0.6425
11555TIP3    H256157   5.131   0.692   1.752 -1.0455  1.9321 -1.3698
11556TIP3   OH256158   0.636   6.174  12.781 -0.4808 -0.1768  0.2746
11556TIP3    H156159   0.619   6.080  12.785  1.9913 -0.7658 -1.0010
11556TIP3    H256160   0.601   6.202  12.696 -0.6157 -0.0898  0.3585
11557TIP3   OH256161   6.626   2.251  13.860  0.3154  0.6574 -0.1544
11557TIP3    H156162   6.709   2.245  13.907 -1.0377 -0.2228  2.2623
11557TIP3    H256163   6.603   2.160  13.842 -0.7410  0.8147  0.3706
11558TIP3   OH256164   4.130   3.980  14.013  0.7139 -0.1810  0.4328
11558TIP3    H156165   4.036   3.962  14.016  0.5715  0.2757 -0.7154
11558TIP3    H256166   4.145   4.041  14.085  0.1255 -0.2349  0.6080
11559TIP3   OH256167   3.954   6.757   0.282  0.5793  0.3108  0.2643
11559TIP3    H156168   4.029   6.730   0.335  1.0076 -2.2918 -1.4673
11559TIP3    H256169   3.987   6.826   0.226  1.2467  0.2443  0.5692
11560TIP3   OH256170   2.471   1.562   3.588 -0.0662  0.2958  0.2017
11560TIP3    H156171   2.427   1.570   3.503 -1.4894  0.6340  0.9588
11560TIP3    H256172   2.434   1.483   3.626 -1.0488  1.3243  1.4337
11561TIP3   OH256173   1.191   1.023   1.274  0.4296 -0.7011 -0.6397
11561TIP3    H156174   1.157   1.062   1.194 -0.5948 -0.3166 -0.0455
11561TIP3    H256175   1.171   0.930   1.266  1.0796 -0.7990 -1.1852
11562TIP3   OH256176   1.426   5.780  16.584  0.1259  0.1436  0.2369
11562TIP3    H156177   1.432   5.685  16.591  1.1849  0.3044  3.1054
11562TIP3    H256178   1.515   5.808  16.560  0.2993  0.4659  1.2006
11563TIP3   OH256179   2.932   0.582   0.719 -0.0551 -0.6402  0.0722
11563TIP3    H156180   2.838   0.562   0.720 -0.9830  2.9637 -0.2422
11563TIP3    H256181   2.950   0.608   0.629  0.9948 -0.3196  0.3642
11564TIP3   OH256182   3.626   6.214  16.543 -0.3536  0.5338  0.9957
11564TIP3    H156183   3.671   6.204  16.459 -0.1999  0.6830  1.0609
11564TIP3    H256184   3.536   6.186  16.526 -0.1933  0.0556  0.9079
11565TIP3   OH256185   1.190   2.289  14.821 -0.4565 -0.1219 -0.1679
11565TIP3    H156186   1.173   2.381  14.801 -0.7665 -0.3820 -1.1435
11565TIP3    H256187   1.104   2.253  14.843 -0.4008 -0.2785 -0.2073
11566TIP3   OH256188   0.653   6.137   5.466  0.4079  0.3248 -0.9525
11566TIP3    H156189   0.589   6.066   5.459 -2.3131  2.6747 -2.0168
11566TIP3    H256190   0.725   6.110   5.408  0.2112 -2.1464 -0.1867
11567TIP3   OH256191   1.384   0.068  14.409  0.4146 -0.0328 -0.4041
11567TIP3    H156192   1.289   0.074  14.414  0.3423  0.2380 -1.8314
11567TIP3    H256193   1.400   0.010  14.334  1.3738 -0.0199 -0.2144
11568TIP3   OH256194   0.459   4.100  13.006 -0.3889  0.3777  0.2489
11568TIP3    H156195   0.497   4.187  12.993  0.7675 -0.0909  0.3744
11568TIP3    H256196   0.529   4.039  12.984 -0.0593 -0.5061  3.2464
11569TIP3   OH256197   1.606   4.116  15.499 -0.4781 -0.3016  0.1205
11569TIP3    H156198   1.548   4.141  15.427 -0.9408 -1.3470  0.1091
11569TIP3    H256199   1.693   4.112  15.460 -0.5507  0.2966 -0.1038
11570TIP3   OH256200   5.791   6.341   5.779 -0.0963 -0.2393 -0.0886
11570TIP3    H156201   5.709   6.292   5.773 -0.9856  0.8973  1.7142
11570TIP3    H256202   5.845   6.288   5.838  0.4994 -0.9947 -1.2865
11571TIP3   OH256203   5.310   1.439   4.451 -0.3443  0.3550  0.0335
11571TIP3    H156204   5.304   1.419   4.545 -2.4182 -0.0706 -0.1304
11571TIP3    H256205   5.333   1.355   4.411  2.3644  0.8977  0.2303
11572TIP3   OH256206   1.288   0.303   0.011  0.5189 -0.5663 -0.0951
11572TIP3    H156207   1.236   0.235   0.054 -1.3413  0.9617  0.2335
11572TIP3    H256208   1.375   0.295   0.051 -0.5648 -0.5440  2.5066
11573TIP3   OH256209   1.586   3.449   2.132  0.3905  0.0065 -0.2502
11573TIP3    H156210   1.653   3.443   2.064  0.7273 -0.2317  0.0952
11573TIP3    H256211   1.619   3.393   2.203  0.9302  1.6297  0.8470
11574TIP3   OH256212   2.144   3.183   2.795  0.3422 -0.2297 -0.4802
11574TIP3    H156213   2.107   3.235   2.867 -0.3362 -1.2153 -0.0877
11574TIP3    H256214   2.212   3.130   2.837  0.2004 -0.5338 -0.6338
11575TIP3   OH256215   1.560   1.043  15.214  0.2302 -0.0430 -0.0134
11575TIP3    H156216   1.488   1.106  15.209  0.9523  1.5059  4.4135
11575TIP3    H256217   1.637   1.092  15.187  0.2994 -0.1669 -0.0417
11576TIP3   OH256218   4.790   3.223  13.472 -0.1739  0.0156 -0.2274
11576TIP3    H156219   4.697   3.231  13.494  0.1656  1.6891  0.7460
11576TIP3    H256220   4.798   3.135  13.434 -1.6708 -1.2570  2.1431
11577TIP3   OH256221   2.809   2.975  11.480 -0.2410  0.4197  0.2632
11577TIP3    H156222   2.890   2.963  11.430 -1.4368  0.7702 -1.8655
11577TIP3    H256223   2.771   2.888  11.486 -0.0111  0.3479  0.7688
11578TIP3   OH256224   1.285   5.965  15.019  0.2197 -0.2355  0.3847
11578TIP3    H156225   1.266   6.045  15.067 -1.9303  0.0362 -0.8283
11578TIP3    H256226   1.368   5.983  14.975  0.4826  0.7708  1.2509
11579TIP3   OH256227   5.731   2.990  16.113 -0.6710  0.0446  0.0502
11579TIP3    H156228   5.772   3.069  16.077 -2.6551  1.0012 -0.2643
11579TIP3    H256229   5.747   2.923  16.047  0.9860  0.1676  0.2853
11580TIP3   OH256230   6.748   2.930  15.518  0.4628  0.1708  0.0462
11580TIP3    H156231   6.769   2.879  15.596  1.5014 -1.3251 -1.1572
11580TIP3    H256232   6.683   2.878  15.472 -0.1336  1.0403 -0.1187
11581TIP3   OH256233   3.815   4.620  15.102  0.2355  0.2850  0.6308
11581TIP3    H156234   3.828   4.629  15.196  0.3231  0.9536  0.5603
11581TIP3    H256235   3.897   4.582  15.070  1.1412  2.2209  0.5189
11582TIP3   OH256236   5.540   3.858   1.181 -0.1916  0.3445 -0.1995
11582TIP3    H156237   5.591   3.931   1.145 -0.4407  0.5952 -0.0488
11582TIP3    H256238   5.549   3.789   1.116  0.3475  0.3831 -0.1759
11583TIP3   OH256239   5.766   0.833  11.114 -0.1107  0.2610 -0.0530
11583TIP3    H156240   5.725   0.892  11.178  1.7741  0.5440  0.9706
11583TIP3    H256241   5.851   0.812  11.153 -0.1095 -1.9283 -1.1367
11584TIP3   OH256242   4.784   5.643  16.233 -0.2959  0.0935 -0.5913
11584TIP3    H156243   4.747   5.556  16.216  0.5271 -0.1496 -1.2011
11584TIP3    H256244   4.788   5.649  16.328 -0.5500 -0.4517 -0.5426
11585TIP3   OH256245   6.561   0.908   1.683  0.2085 -0.8862  0.1523
11585TIP3    H156246   6.607   0.827   1.663  0.4733 -0.6875 -0.0445
11585TIP3    H256247   6.468   0.884   1.681  0.2672 -1.0652 -0.4252
11586TIP3   OH256248   5.452   5.958  11.595 -0.2861 -0.2715  0.5834
11586TIP3    H156249   5.362   5.960  11.630 -0.0398  0.8688  1.1890
11586TIP3    H256250   5.462   6.042  11.550  0.7975  0.0254  1.3509
11587TIP3   OH256251   1.247   4.777  12.771 -0.4812 -0.5893 -0.0449
11587TIP3    H156252   1.216   4.724  12.845  1.7073  0.4422  1.7359
11587TIP3    H256253   1.341   4.784  12.785  0.0411 -0.4475 -3.0867
11588TIP3   OH256254   6.480   1.960  10.902  0.1201  0.0732 -0.3689
11588TIP3    H156255   6.493   1.994  10.814  1.1828  0.6206 -0.0246
11588TIP3    H256256   6.569   1.951  10.937 -0.3109  0.5801  0.9086
11589TIP3   OH256257   5.999   3.632   1.271 -0.1940 -0.2251 -0.0808
11589TIP3    H156258   6.012   3.544   1.306 -0.5088  0.2679  1.3202
11589TIP3    H256259   5.904   3.644   1.271 -0.1104  0.8204  1.6407
11590TIP3   OH256260   0.937   4.380  10.858  0.0654 -0.3131  0.0145
11590TIP3    H156261   0.940   4.448  10.926  0.3073  0.2173 -0.5164
11590TIP3    H256262   0.987   4.307  10.895  1.6826  0.6080 -0.2743
11591TIP3   OH256263   3.809   4.096  12.074  0.1452 -0.2593  0.1107
11591TIP3    H156264   3.904   4.087  12.082  0.0450 -0.5798  1.0842
11591TIP3    H256265   3.791   4.081  11.981  1.0238 -0.3538 -0.0519
11592TIP3   OH256266   1.904   2.745  15.968  0.1438  0.1259  0.6515
11592TIP3    H156267   1.903   2.824  15.914 -0.1311 -1.0821 -1.2045
11592TIP3    H256268   1.813   2.713  15.966  0.8955 -2.2102 -1.7992
11593TIP3   OH256269   0.682   5.531  13.255 -0.8036  0.1766  0.9710
11593TIP3    H156270   0.722   5.475  13.189 -2.1548  0.7005 -0.3600
11593TIP3    H256271   0.749   5.541  13.322  0.0694 -1.6344  0.4368
11594TIP3   OH256272   3.281   1.239   4.959  0.4159 -0.0563  0.3446
11594TIP3    H156273   3.227   1.317   4.967  1.4855  0.6813  0.6422
11594TIP3    H256274   3.288   1.204   5.048 -0.5718 -0.8689  0.1217
11595TIP3   OH256275   2.630   5.174  11.755  0.8670  0.7092  0.3307
11595TIP3    H156276   2.609   5.182  11.662  0.1655 -2.2783  0.1282
11595TIP3    H256277   2.551   5.205  11.800 -0.6617 -1.9808 -0.2601
11596TIP3   OH256278   1.403   3.179   1.457  0.2142  0.0892 -0.4680
11596TIP3    H156279   1.495   3.205   1.455  0.4051 -0.5975 -2.0068
11596TIP3    H256280   1.379   3.170   1.364 -1.3125 -0.0330 -0.0766
11597TIP3   OH256281   2.486   1.246   0.885  0.0023 -0.6672  0.2126
11597TIP3    H156282   2.476   1.239   0.980 -3.2429 -1.7129 -0.0664
11597TIP3    H256283   2.416   1.306   0.858  0.3788 -0.9752 -1.5966
11598TIP3   OH256284   3.828   5.737   3.835  0.1881  0.1438  0.0780
11598TIP3    H156285   3.760   5.720   3.769  1.2934 -0.3865 -0.9624
11598TIP3    H256286   3.835   5.655   3.884  1.6887 -0.6378 -1.3608
11599TIP3   OH256287   2.942   3.745  15.236  0.5910 -0.2885 -0.2773
11599TIP3    H156288   2.869   3.685  15.250  0.1249  0.1783 -0.6586
11599TIP3    H256289   2.989   3.747  15.319 -0.4766  0.2527  0.3203
11600TIP3   OH256290   4.105   3.467   2.921  0.0856  0.0255 -0.2645
11600TIP3    H156291   4.056   3.437   2.844  0.6074  0.8414 -0.9483
11600TIP3    H256292   4.166   3.396   2.940  0.0049 -0.1545 -0.6634
11601TIP3   OH256293   0.355   5.577  12.920  0.3058 -0.2760  0.2214
11601TIP3    H156294   0.332   5.496  12.966 -2.2063  0.3936  0.2823
11601TIP3    H256295   0.364   5.643  12.989  4.6640 -0.8160  0.4254
11602TIP3   OH256296   6.262   6.610  12.266 -0.4023  0.2251  0.8337
11602TIP3    H156297   6.270   6.614  12.362 -0.2394  1.1245  0.7951
11602TIP3    H256298   6.179   6.565  12.251 -0.0956 -0.5576  1.3853
11603TIP3   OH256299   1.299   1.795   6.610  0.0877  0.3411 -0.1240
11603TIP3    H156300   1.344   1.843   6.680  0.4166  0.8728 -0.6833
11603TIP3    H256301   1.219   1.845   6.595 -0.5540 -0.4195  0.6440
11604TIP3   OH256302   6.614   5.793   4.072  0.5562  0.0088  0.1949
11604TIP3    H156303   6.636   5.717   4.127  1.7554  0.9738  1.1305
11604TIP3    H256304   6.562   5.850   4.130  0.3416  0.2584 -0.2381
11605TIP3   OH256305   4.818   6.591  12.974 -0.2083 -0.4771  0.0737
11605TIP3    H156306   4.831   6.535  13.051 -0.7649 -0.6085  0.0721
11605TIP3    H256307   4.810   6.531  12.901 -2.6186 -0.5095  0.3124
11606TIP3   OH256308   0.741   0.606   4.582  0.1462 -0.1610 -0.2744
11606TIP3    H156309   0.722   0.661   4.506  1.2907  0.1979 -0.3200
11606TIP3    H256310   0.684   0.640   4.651  0.8717  1.1281 -0.2863
11607TIP3   OH256311   0.391   1.805   5.239 -0.3990 -0.5320  0.0523
11607TIP3    H156312   0.359   1.886   5.279  1.5330 -0.3422  1.3824
11607TIP3    H256313   0.442   1.834   5.164  1.3884 -0.3166  1.2663
11608TIP3   OH256314   4.224   2.990   3.498  0.4279  0.8586  0.2122
11608TIP3    H156315   4.229   2.911   3.445  1.0873  1.2803 -0.3645
11608TIP3    H256316   4.257   2.963   3.584  0.8955  0.5717 -0.0538
11609TIP3   OH256317   1.599   5.592  10.947 -0.8463  0.3892  0.5657
11609TIP3    H156318   1.594   5.687  10.941 -0.4662  0.3371 -1.6353
11609TIP3    H256319   1.516   5.561  10.910  0.0668 -0.1137 -1.1685
11610TIP3   OH256320   4.251   5.186  13.463  0.0766  0.2709  0.2547
11610TIP3    H156321   4.229   5.203  13.554  0.1186  0.7218  0.1853
11610TIP3    H256322   4.172   5.146  13.425  0.4819 -1.0932  0.7927
11611TIP3   OH256323   6.469   3.755  14.678  0.8230  0.5238 -0.6107
11611TIP3    H156324   6.395   3.781  14.623  0.7077  0.2629 -0.5804
11611TIP3    H256325   6.440   3.774  14.767  0.2452 -0.8525 -0.4802
11612TIP3   OH256326   2.999   1.968  16.770  0.1340  0.1734 -0.1868
11612TIP3    H156327   2.963   2.008  16.691 -1.3196  1.9063  1.2375
11612TIP3    H256328   3.092   1.957  16.752  0.2508  2.5803 -1.3778
11613TIP3   OH256329   1.746   4.063  13.965 -0.2101 -0.0413 -0.3632
11613TIP3    H156330   1.682   4.116  14.012 -0.6148 -1.5174  0.8159
11613TIP3    H256331   1.810   4.126  13.933 -1.3770  1.2897 -0.1600
11614TIP3   OH256332   2.299   3.220   4.374  0.3109 -0.6372 -0.0508
11614TIP3    H156333   2.365   3.206   4.306 -1.7729 -0.7200 -2.2170
11614TIP3    H256334   2.265   3.308   4.356  0.7797 -0.0020  1.9434
11615TIP3   OH256335   5.067   2.356   4.739  0.3748  0.2587  0.2490
11615TIP3    H156336   5.120   2.281   4.711  0.7009  0.2767  0.8095
11615TIP3    H256337   4.985   2.317   4.771  1.1654 -0.0027  2.0463
11616TIP3   OH256338   0.010   6.328   2.770 -0.6401  0.6053 -0.0620
11616TIP3    H156339  -0.027   6.406   2.730 -0.8508  0.6402  0.2009
11616TIP3    H256340   0.073   6.360   2.834 -1.8019  0.6083  1.1187
11617TIP3   OH256341   2.534   4.357  16.003  0.0980  0.1004  0.2115
11617TIP3    H156342   2.617   4.398  15.978  1.2710 -0.9943  2.1080
11617TIP3    H256343   2.556   4.302  16.078 -2.5856  0.7201  1.5569
11618TIP3   OH256344   4.467   2.424   2.499  0.4091 -0.1940  0.0637
11618TIP3    H156345   4.488   2.404   2.590 -0.4911 -1.1016  0.0834
11618TIP3    H256346   4.400   2.360   2.475 -0.1889  0.7657 -0.8889
11619TIP3   OH256347   3.038   4.290  16.454  0.2044  0.2088  0.8727
11619TIP3    H156348   3.036   4.385  16.461 -0.0658  0.1283  1.9722
11619TIP3    H256349   2.967   4.269  16.393  1.5685  0.8185 -1.0456
11620TIP3   OH256350   0.291   2.611   4.256 -0.2291  0.7514 -0.0591
11620TIP3    H156351   0.275   2.574   4.169  1.6135 -1.5458  0.4761
11620TIP3    H256352   0.357   2.554   4.295 -0.5781  2.0243  2.6644
11621TIP3   OH256353   6.221   2.690  11.498  0.1904 -0.4392  0.0476
11621TIP3    H156354   6.248   2.727  11.414 -0.2219  0.2200  0.1948
11621TIP3    H256355   6.235   2.596  11.489  2.4981 -0.1521  0.1164
11622TIP3   OH256356   1.630   6.300  15.756  0.0594 -0.8023  0.0913
11622TIP3    H156357   1.626   6.393  15.779  0.2768 -0.6250 -0.5578
11622TIP3    H256358   1.586   6.295  15.670  2.5746 -0.8060 -1.2813
11623TIP3   OH256359   0.833   0.106   0.380  0.1778 -0.2424  0.3897
11623TIP3    H156360   0.788   0.116   0.296 -2.2762  0.0459  1.6454
11623TIP3    H256361   0.871   0.193   0.398  0.0870 -0.1027 -0.0962
11624TIP3   OH256362   0.677   1.693  12.496 -0.3113 -0.3005 -0.3469
11624TIP3    H156363   0.733   1.754  12.544  1.3460 -3.0593  1.5054
11624TIP3    H256364   0.589   1.728  12.507  0.3041  0.6529  2.5256
11625TIP3   OH256365   3.921   4.403   5.728 -0.3297  0.4122  0.0587
11625TIP3    H156366   3.876   4.458   5.663  0.6871  2.1474  0.7406
11625TIP3    H256367   3.874   4.421   5.810 -0.7414 -0.7038  0.0817
11626TIP3   OH256368   5.998   3.075  11.325 -0.2456  0.0072 -1.0379
11626TIP3    H156369   6.080   3.073  11.276 -0.6080 -1.0684 -1.6430
11626TIP3    H256370   5.958   3.159  11.302  0.4633  0.3341 -1.0970
11627TIP3   OH256371   3.687   2.709   5.027 -0.3530  0.5161  0.2368
11627TIP3    H156372   3.607   2.730   5.076 -0.3216 -1.0099  1.0162
11627TIP3    H256373   3.697   2.614   5.039  0.1759  0.2530 -1.9792
11628TIP3   OH256374   6.681   3.324  16.630  0.0743  0.3831 -0.0098
11628TIP3    H156375   6.638   3.400  16.668 -1.4360 -0.1970 -0.4990
11628TIP3    H256376   6.715   3.275  16.705 -1.1654  0.2452  0.4720
11629TIP3   OH256377   6.188   4.561  13.829 -0.1484  0.0833  0.3640
11629TIP3    H156378   6.194   4.652  13.859  0.9314 -0.2404  1.1906
11629TIP3    H256379   6.207   4.508  13.908  0.0216 -0.8335 -0.2742
11630TIP3   OH256380   4.623   1.723   1.486  0.7600 -0.3067  0.2669
11630TIP3    H156381   4.589   1.701   1.572 -0.8815  0.2917 -0.1828
11630TIP3    H256382   4.677   1.801   1.500 -0.9214  0.8771  0.5670
11631TIP3   OH256383   2.139   1.418  10.425  0.7475 -0.0671  0.1235
11631TIP3    H156384   2.222   1.459  10.450  0.1570  0.7610  0.7746
11631TIP3    H256385   2.072   1.468  10.471 -0.1800 -0.3121 -0.9075
11632TIP3   OH256386   6.364   2.805   4.692 -0.2575  0.2872  0.7841
11632TIP3    H156387   6.438   2.745   4.701 -2.1360 -2.4971 -0.6330
11632TIP3    H256388   6.354   2.815   4.597 -2.4897 -0.5996  0.8725
11633TIP3   OH256389   4.947   4.210  13.455  0.3070 -0.1019 -0.3247
11633TIP3    H156390   4.980   4.252  13.375 -1.4666  1.0189 -0.5120
11633TIP3    H256391   4.856   4.189  13.436 -0.0612 -0.0882  1.2971
11634TIP3   OH256392   6.506   1.833   0.398 -0.7165  0.1764  0.1142
11634TIP3    H156393   6.523   1.840   0.492  0.0831 -1.7430  0.1527
11634TIP3    H256394   6.458   1.913   0.377 -2.3532 -0.0894  2.4524
11635TIP3   OH256395   0.045   6.082   1.174 -0.6465 -0.0592  0.4415
11635TIP3    H156396  -0.031   6.139   1.188 -1.6321 -1.3212  0.4037
11635TIP3    H256397   0.015   5.995   1.199  1.1788 -0.4164  1.6257
11636TIP3   OH256398   0.110   5.062   2.892  0.2661  0.4755 -0.1767
11636TIP3    H156399   0.073   5.090   2.809  0.0260 -1.0571 -0.6174
11636TIP3    H256400   0.154   4.979   2.873  0.0592 -0.0046  1.2462
11637TIP3   OH256401   0.505   2.613  11.178  0.2346 -0.1781 -0.1224
11637TIP3    H156402   0.554   2.531  11.186  0.0955 -0.2397  0.1109
11637TIP3    H256403   0.442   2.596  11.108  1.1336  0.2020 -1.0665
11638TIP3   OH256404   5.598   2.474   5.615  0.8818 -0.1611  0.3796
11638TIP3    H156405   5.548   2.411   5.563  0.3660  1.0644 -0.6808
11638TIP3    H256406   5.684   2.477   5.573  1.4798 -1.3562  1.4517
11639TIP3   OH256407   0.809   1.463  10.541 -0.2204  0.2303 -0.0952
11639TIP3    H156408   0.808   1.382  10.591  0.4053  0.0719 -0.3366
11639TIP3    H256409   0.749   1.448  10.468  0.1863 -0.1583 -0.3551
11640TIP3   OH256410   3.386   1.214   0.878  0.0003  0.0674  0.8707
11640TIP3    H156411   3.315   1.231   0.816  0.7066  0.6602  0.2027
11640TIP3    H256412   3.401   1.120   0.872  1.8472  0.4119 -1.9264
11641TIP3   OH256413   3.442   2.652  14.996  0.4346 -0.0571 -0.3959
11641TIP3    H156414   3.407   2.714  14.933 -1.8585 -0.5896  0.2487
11641TIP3    H256415   3.444   2.700  15.079  0.8370 -0.1858 -0.3252
11642TIP3   OH256416   2.553   6.476  16.943  0.1613 -0.2875 -0.0716
11642TIP3    H156417   2.547   6.381  16.934  0.5344 -0.2656 -0.6079
11642TIP3    H256418   2.533   6.509  16.855  1.4896  0.0614 -0.2660
11643TIP3   OH256419   5.904   2.081   0.711 -0.3344 -0.3271  0.2521
11643TIP3    H156420   5.897   2.167   0.670 -0.5694 -0.7658 -0.6396
11643TIP3    H256421   5.820   2.070   0.756  0.1492  0.4069  1.3894
11644TIP3   OH256422   2.325   3.978  16.192  0.4277 -0.2547 -0.2052
11644TIP3    H156423   2.285   3.956  16.108 -1.9427 -1.9328  1.2514
11644TIP3    H256424   2.383   3.905  16.211 -1.2406 -1.3838  0.8591
11645TIP3   OH256425   5.241   6.588  15.380 -0.4605  0.1324  0.4058
11645TIP3    H156426   5.243   6.492  15.385  1.0630  0.0787 -0.6973
11645TIP3    H256427   5.151   6.611  15.402 -0.9217 -1.5712  0.4285
11646TIP3   OH256428   0.078   1.830   0.983 -0.2403 -0.2910  0.3726
11646TIP3    H156429  -0.012   1.809   1.010 -0.4200  0.4124  0.3470
11646TIP3    H256430   0.068   1.877   0.901  0.1258  0.1979  0.6050
11647TIP3   OH256431   2.388   3.542   4.099 -0.5032  0.2202 -0.1811
11647TIP3    H156432   2.388   3.637   4.112  0.0481  0.1755  0.1866
11647TIP3    H256433   2.301   3.514   4.128 -0.0904  0.4146  1.3560
11648TIP3   OH256434   3.327   3.223  12.636  0.6655 -0.5055  0.3768
11648TIP3    H156435   3.306   3.228  12.729 -0.8321  1.9641  0.0032
11648TIP3    H256436   3.419   3.249  12.631  0.4861  0.3461  1.1326
11649TIP3   OH256437   0.554   2.561   3.734 -0.7137  0.0933 -0.0129
11649TIP3    H156438   0.642   2.565   3.696 -0.2496 -2.6600  0.5843
11649TIP3    H256439   0.568   2.569   3.828 -0.8572 -2.0492  0.2346
11650TIP3   OH256440   1.232   0.120  16.524  0.9002  1.1722  0.2383
11650TIP3    H156441   1.156   0.156  16.569 -0.3048 -3.2079  2.3247
11650TIP3    H256442   1.300   0.187  16.532 -1.4973  3.5566  2.0819
11651TIP3   OH256443   0.190   0.178   4.307  0.4084  0.3365 -0.0476
11651TIP3    H156444   0.259   0.221   4.356  1.2561  0.2330 -1.1087
11651TIP3    H256445   0.172   0.238   4.234 -0.1568  0.0524 -0.1477
11652TIP3   OH256446   6.278   6.206  16.173 -0.3139  0.9263  0.4678
11652TIP3    H156447   6.230   6.158  16.105  1.6886  0.0503 -0.4262
11652TIP3    H256448   6.311   6.284  16.129 -1.1913  1.7273  1.1796
11653TIP3   OH256449   3.844   5.825   5.972 -0.5273 -0.0817 -0.0814
11653TIP3    H156450   3.781   5.815   6.043 -0.0767  2.9363  0.8416
11653TIP3    H256451   3.920   5.774   5.999 -1.1464 -0.6778  0.5680
11654TIP3   OH256452   2.887   0.322  14.313  0.8092  0.4517 -0.3729
11654TIP3    H156453   2.810   0.378  14.298  1.6105  1.3095 -1.4768
11654TIP3    H256454   2.959   0.383  14.327  1.7694 -0.2676 -1.9299
11655TIP3   OH256455   1.191   3.324  12.467 -0.1722  0.0785 -0.1247
11655TIP3    H156456   1.108   3.283  12.442 -0.6066 -0.5550  2.1353
11655TIP3    H256457   1.166   3.399  12.521  0.6605  2.8355 -3.2573
11656TIP3   OH256458   5.293   6.203  14.820  0.1528 -0.1010 -0.0340
11656TIP3    H156459   5.244   6.128  14.854  0.9669 -0.7887 -0.3560
11656TIP3    H256460   5.278   6.201  14.725  0.2333  0.1022 -0.0520
11657TIP3   OH256461   4.279   3.128  12.426  0.3723  0.0077  0.2907
11657TIP3    H156462   4.270   3.060  12.492 -0.5691 -0.9308 -0.7686
11657TIP3    H256463   4.222   3.199  12.457 -0.0373 -0.4113  0.5063
11658TIP3   OH256464   6.298   6.279   5.031 -0.4764  0.1511 -0.4492
11658TIP3    H156465   6.334   6.237   5.109 -0.8985 -0.9532 -0.8258
11658TIP3    H256466   6.283   6.370   5.057  1.8435  0.4666 -0.0520
11659TIP3   OH256467   6.143   6.534  11.940 -0.3077  0.5947 -0.1357
11659TIP3    H156468   6.195   6.612  11.960  0.3008  0.3298 -0.6462
11659TIP3    H256469   6.136   6.533  11.845 -1.2212  0.5972 -0.0759
11660TIP3   OH256470   0.607   5.127  14.075 -0.0014 -0.6605  0.2949
11660TIP3    H156471   0.692   5.154  14.110  0.1045  0.8656 -1.0316
11660TIP3    H256472   0.610   5.031  14.076  1.5739 -0.6328  0.6473
11661TIP3   OH256473   2.103   1.466  15.871  0.5475  0.4098  0.4320
11661TIP3    H156474   2.173   1.404  15.850  0.4202  0.5442 -0.4351
11661TIP3    H256475   2.124   1.544  15.821 -1.5645 -0.4141 -1.9906
11662TIP3   OH256476   0.273   3.747  13.161  0.7585 -0.0383  0.0544
11662TIP3    H156477   0.280   3.705  13.075  3.0546  1.5707 -0.6436
11662TIP3    H256478   0.239   3.678  13.219  0.0466 -1.4331 -1.9308
11663TIP3   OH256479   2.851   3.964  11.680 -0.0018  0.1398  0.4311
11663TIP3    H156480   2.902   3.885  11.663 -1.8107 -0.9200 -0.3946
11663TIP3    H256481   2.835   4.002  11.594  0.7370  1.3743  0.8131
11664TIP3   OH256482   0.163   5.259  14.162  0.0099 -0.5436  0.3029
11664TIP3    H156483   0.111   5.228  14.087  0.9283 -0.5972 -0.3286
11664TIP3    H256484   0.105   5.248  14.237 -1.3390  0.5010 -0.5188
11665TIP3   OH256485   6.097   2.126   0.962 -0.1952 -0.0329 -0.4345
11665TIP3    H156486   6.148   2.203   0.940 -1.0992  0.6413 -0.2522
11665TIP3    H256487   6.016   2.135   0.911  0.2263 -1.5328 -1.4101
11666TIP3   OH256488   4.374   1.891  13.625 -0.1821 -0.5780  0.6245
11666TIP3    H156489   4.429   1.959  13.665 -1.0144 -0.6051  1.9037
11666TIP3    H256490   4.358   1.829  13.696 -1.8188 -0.5848  0.3009
11667TIP3   OH256491   2.360   6.669  11.112 -0.2849  0.1278  0.3956
11667TIP3    H156492   2.405   6.594  11.072 -2.5455 -1.3427  0.4536
11667TIP3    H256493   2.269   6.661  11.083 -0.9078  2.0011  1.6523
11668TIP3   OH256494   2.500   5.668  16.473  0.2145  0.2677  0.3823
11668TIP3    H156495   2.536   5.756  16.466  1.0003  0.0400  1.3893
11668TIP3    H256496   2.413   5.681  16.510 -1.0630  0.8647 -2.5379
11669TIP3   OH256497   3.353   5.554  13.463  0.2642  0.1446 -0.9579
11669TIP3    H156498   3.315   5.620  13.522 -0.0884 -1.2489  0.4270
11669TIP3    H256499   3.286   5.486  13.457  1.8847 -1.6526  0.3207
11670TIP3   OH256500   0.680   4.842   2.092  0.4161  0.1628  0.1563
11670TIP3    H156501   0.733   4.783   2.038  1.4322  1.9731 -0.9055
11670TIP3    H256502   0.590   4.812   2.079  0.7834 -0.3551 -1.3888
11671TIP3   OH256503   0.104   4.176  15.651  0.8991  0.0392  0.7591
11671TIP3    H156504   0.093   4.161  15.745  1.1677 -0.1879  0.7536
11671TIP3    H256505   0.015   4.166  15.616  0.9254 -0.7232  0.8730
11672TIP3   OH256506   6.312   5.375   1.311 -0.1035 -0.1317 -0.5062
11672TIP3    H156507   6.341   5.449   1.256 -2.5429  0.6377 -0.8727
11672TIP3    H256508   6.383   5.311   1.303  2.4386  2.3540  0.3254
11673TIP3   OH256509   4.705   5.528   5.709  0.0707 -0.2205 -0.1751
11673TIP3    H156510   4.733   5.501   5.622 -1.0652 -1.3829 -0.2174
11673TIP3    H256511   4.686   5.446   5.755  0.8051  0.3631  1.2382
11674TIP3   OH256512   0.226   2.931   2.900  0.6649  0.2793 -0.3681
11674TIP3    H156513   0.178   3.006   2.863 -0.4030 -0.0852  0.2343
11674TIP3    H256514   0.304   2.970   2.939  1.1842  0.8201 -1.8563
11675TIP3   OH256515   4.997   3.515  16.759 -0.0560 -0.3167  0.5002
11675TIP3    H156516   4.937   3.493  16.830  0.6487  0.0282  1.2087
11675TIP3    H256517   5.041   3.433  16.738 -0.5653 -0.5129  0.1562
11676TIP3   OH256518   5.737   0.513   6.757  0.2119  0.5240  0.2790
11676TIP3    H156519   5.688   0.574   6.701 -1.5208  0.0405  1.2307
11676TIP3    H256520   5.724   0.428   6.717 -2.1781 -0.0439  2.0601
11677TIP3   OH256521   4.296   0.102   2.994 -0.3216  0.4130  0.1154
11677TIP3    H156522   4.250   0.071   3.072 -1.3853  0.7524 -0.3625
11677TIP3    H256523   4.246   0.178   2.965 -0.0198  0.2136 -0.9731
11678TIP3   OH256524   3.811   2.960   1.772 -0.5217 -0.4480 -0.5851
11678TIP3    H156525   3.766   2.904   1.709 -0.5466 -0.1009 -0.8804
11678TIP3    H256526   3.754   2.960   1.849 -1.0288 -0.0181 -0.9557
11679TIP3   OH256527   4.284   3.023   5.291 -0.0340  0.2062 -0.2918
11679TIP3    H156528   4.245   3.102   5.255 -0.3245  0.6820  1.0219
11679TIP3    H256529   4.338   2.989   5.220  0.7980  2.0581 -0.6152
11680TIP3   OH256530   4.412   0.822   2.624 -0.0211 -0.3805 -0.5453
11680TIP3    H156531   4.425   0.728   2.637  0.7330  0.0618  2.9249
11680TIP3    H256532   4.331   0.841   2.670  0.9224  0.9348  0.6406
11681TIP3   OH256533   0.138   5.920   6.072  0.4560  0.5969 -0.2571
11681TIP3    H156534   0.061   5.885   6.118  0.2748  0.8352 -0.3747
11681TIP3    H256535   0.129   5.887   5.983  2.3658 -2.3763  0.5233
11682TIP3   OH256536   4.956   1.911  10.568 -0.0703  0.0337 -0.1051
11682TIP3    H156537   5.036   1.935  10.615 -0.1047 -0.4067  0.1826
11682TIP3    H256538   4.886   1.940  10.627 -0.1358  0.8755 -0.5803
11683TIP3   OH256539   0.531   2.682  15.266 -0.1092 -0.2612  0.5598
11683TIP3    H156540   0.588   2.759  15.263 -0.6583  0.1331 -0.0544
11683TIP3    H256541   0.543   2.640  15.181 -0.6493 -0.2352  0.4679
11684TIP3   OH256542   6.163   5.338   5.197 -0.2462 -0.1237 -0.5795
11684TIP3    H156543   6.251   5.367   5.175 -1.1462  2.3621 -1.1852
11684TIP3    H256544   6.119   5.416   5.229 -2.3726 -1.2101 -0.6627
11685TIP3   OH256545   0.758   4.094  15.138 -0.4683  0.6793 -0.1144
11685TIP3    H156546   0.677   4.118  15.184  1.1814  3.2828  1.7707
11685TIP3    H256547   0.808   4.046  15.204  0.5941  1.5151 -0.2937
11686TIP3   OH256548   0.483   3.141   3.582  0.2351 -0.1758  0.0230
11686TIP3    H156549   0.529   3.085   3.520 -0.6086 -0.6917 -0.1510
11686TIP3    H256550   0.456   3.082   3.652  0.0031  0.1515  0.2108
11687TIP3   OH256551   2.898   5.381   0.898  0.1668 -0.0522 -0.2296
11687TIP3    H156552   2.922   5.454   0.842 -0.4711  1.1043  0.9403
11687TIP3    H256553   2.810   5.402   0.928 -0.7202 -2.1523 -1.1738
11688TIP3   OH256554   5.849   3.795  10.294 -0.4172 -0.1537 -0.7899
11688TIP3    H156555   5.916   3.863  10.302  0.0952 -0.7850  0.4503
11688TIP3    H256556   5.845   3.754  10.380 -0.4980 -1.9236 -1.5934
11689TIP3   OH256557   3.366   6.193  12.590 -0.5761  0.2774  0.3985
11689TIP3    H156558   3.286   6.181  12.538 -0.4862 -1.2090  0.5625
11689TIP3    H256559   3.398   6.280  12.564 -1.3726  0.2308 -0.8632
11690TIP3   OH256560   2.343   6.003  16.305 -0.2514 -0.0049  0.0101
11690TIP3    H156561   2.310   6.056  16.378  0.5581  0.2166  0.2280
11690TIP3    H256562   2.419   5.957  16.342  0.2463  0.2148 -0.7315
11691TIP3   OH256563   1.941   6.145  16.326 -0.5721 -0.0000  0.3311
11691TIP3    H156564   1.934   6.114  16.416 -0.0479 -0.9983  0.0427
11691TIP3    H256565   1.851   6.168  16.302 -0.6786  0.5379  1.1876
11692TIP3   OH256566   5.923   4.179  15.547 -0.1765 -0.1342 -0.1901
11692TIP3    H156567   6.002   4.189  15.494  0.5954  2.3963  1.2563
11692TIP3    H256568   5.954   4.143  15.630 -0.7384 -0.3188 -0.0521
11693TIP3   OH256569   6.205   5.794  13.845 -0.4394 -0.2125  0.1008
11693TIP3    H156570   6.257   5.855  13.897  1.2083 -2.0775  0.7560
11693TIP3    H256571   6.148   5.850  13.793 -0.2275  1.8088  1.9125
11694TIP3   OH256572   1.255   1.468   0.922  0.1943  0.0735 -0.3510
11694TIP3    H156573   1.304   1.391   0.892 -1.8183 -1.3219 -0.3243
11694TIP3    H256574   1.282   1.480   1.013  0.7291 -0.4395 -0.4373
11695TIP3   OH256575   5.937   0.831  13.581 -0.0036  0.3527 -0.3080
11695TIP3    H156576   5.967   0.751  13.539  0.1865  0.3316 -0.1350
11695TIP3    H256577   5.842   0.821  13.588 -0.2328  0.9789 -2.0479
11696TIP3   OH256578   3.084   3.765   1.635  0.1983 -0.3246  0.3532
11696TIP3    H156579   3.094   3.850   1.592 -0.4581 -0.0651  0.6933
11696TIP3    H256580   2.996   3.736   1.612 -0.2529 -0.0865  1.6486
11697TIP3   OH256581   1.015   1.914   2.925  0.2955 -0.6293 -0.3011
11697TIP3    H156582   1.092   1.858   2.928  0.2221 -0.7622 -0.8950
11697TIP3    H256583   0.999   1.936   3.017  1.8948  0.5670 -0.2478
11698TIP3   OH256584   6.651   3.456   5.129 -0.6682 -0.1815  0.4992
11698TIP3    H156585   6.638   3.549   5.110  1.8381  0.0742 -0.3336
11698TIP3    H256586   6.612   3.410   5.054  0.9450  0.3943 -0.7449
11699TIP3   OH256587   0.958   1.077   6.567  0.1905  0.0229  0.2476
11699TIP3    H156588   1.008   1.156   6.590  0.8091 -0.1177 -0.5837
11699TIP3    H256589   0.992   1.051   6.482 -0.8067 -0.5008 -0.0054
11700TIP3   OH256590   3.300   3.072   4.908  0.2331 -0.1361  0.3480
11700TIP3    H156591   3.238   3.141   4.884  0.1579 -0.2226  0.2953
11700TIP3    H256592   3.379   3.119   4.935 -0.6989  0.1099  2.9674
11701TIP3   OH256593   3.153   3.097   2.499 -0.3060 -0.2662  0.4624
11701TIP3    H156594   3.112   3.170   2.453 -1.6554 -0.9665  0.5121
11701TIP3    H256595   3.132   3.021   2.445  0.1792 -0.7630  0.9704
11702TIP3   OH256596   2.529   2.463  16.389 -0.3485 -0.1807  0.1863
11702TIP3    H156597   2.445   2.434  16.356 -0.2180 -0.2019 -0.1378
11702TIP3    H256598   2.547   2.407  16.464 -1.0222  0.3947  0.7952
11703TIP3   OH256599   0.740   5.304   5.307  0.3864  0.2926  0.1225
11703TIP3    H156600   0.715   5.334   5.219  0.6812 -3.5418 -1.4819
11703TIP3    H256601   0.696   5.365   5.366 -1.6163  1.8166 -2.6628
11704TIP3   OH256602   0.552   2.071  15.353  0.5703  0.2805 -0.4897
11704TIP3    H156603   0.505   2.150  15.328 -1.4630 -0.0968  1.7683
11704TIP3    H256604   0.489   2.000  15.342  1.6535 -0.7372 -0.4340
11705TIP3   OH256605   2.969   4.230  16.987 -0.0941 -0.4173  0.4430
11705TIP3    H156606   2.992   4.202  16.899  1.0370  0.1675  0.5376
11705TIP3    H256607   2.875   4.248  16.983 -0.6811 -3.1834  0.1267
11706TIP3   OH256608   1.727   4.546   4.722 -0.0599 -0.0646 -0.3752
11706TIP3    H156609   1.739   4.620   4.663  1.1164 -1.6779 -2.2635
11706TIP3    H256610   1.651   4.499   4.686 -2.5442  1.5045  2.3368
11707TIP3   OH256611   0.890   6.126  12.632 -0.3062 -0.0050 -0.0739
11707TIP3    H156612   0.827   6.122  12.704 -0.1737  1.3685  0.1420
11707TIP3    H256613   0.855   6.066  12.566 -0.9684 -0.4974  0.7041
11708TIP3   OH256614   3.726   6.066   5.486  0.1273  0.4135 -0.0607
11708TIP3    H156615   3.747   6.108   5.569  0.9693  0.0870 -0.1006
11708TIP3    H256616   3.698   5.977   5.510 -0.7749  0.6872 -0.0468
11709TIP3   OH256617   1.058   5.625  16.640  0.9707  0.6625 -0.1345
11709TIP3    H156618   1.006   5.666  16.571  0.8417  0.1491 -0.3482
11709TIP3    H256619   1.006   5.550  16.667  0.7768  1.1559  0.8908
11710TIP3   OH256620   4.626   0.435  14.900  0.4115 -0.2187 -0.5930
11710TIP3    H156621   4.586   0.419  14.815  0.1172 -0.9501 -0.3232
11710TIP3    H256622   4.611   0.529  14.916 -1.3509 -0.4846 -0.4412
11711TIP3   OH256623   4.883   5.648   3.628 -0.5462  0.4297 -0.3278
11711TIP3    H156624   4.894   5.648   3.533 -1.2576 -0.4639 -0.4220
11711TIP3    H256625   4.915   5.562   3.656  0.4544  1.0030  0.3529
11712TIP3   OH256626   3.426   4.776  14.499  0.3472  0.0200  0.2527
11712TIP3    H156627   3.455   4.816  14.417 -1.2672  2.4783  0.7567
11712TIP3    H256628   3.331   4.788  14.498  0.0412 -1.9646  1.4898
11713TIP3   OH256629   3.398   1.979   2.371  0.7214 -0.4335 -0.2698
11713TIP3    H156630   3.439   2.055   2.412 -1.5116  1.2327 -0.9587
11713TIP3    H256631   3.424   1.985   2.279 -0.7279  0.4335 -0.6398
11714TIP3   OH256632   6.086   3.086   2.260  0.4487  0.4763  0.2035
11714TIP3    H156633   6.111   3.066   2.351 -0.1732 -1.7163 -0.0496
11714TIP3    H256634   5.995   3.057   2.254  0.2797  1.2117 -0.9521
11715TIP3   OH256635   0.225   4.485  11.996  1.0125  0.0941  1.1532
11715TIP3    H156636   0.137   4.447  11.990  0.5248  1.3083 -0.4007
11715TIP3    H256637   0.238   4.503  12.089 -1.2755  1.7457  1.2558
11716TIP3   OH256638   2.316   0.374   5.279  0.3256 -0.2355 -0.5491
11716TIP3    H156639   2.275   0.296   5.242  0.1169  0.1611 -1.1503
11716TIP3    H256640   2.410   0.356   5.274  0.3897  0.4262 -2.6892
11717TIP3   OH256641   5.599   4.670  13.809  0.1252 -0.4187 -0.3851
11717TIP3    H156642   5.603   4.766  13.815 -0.3532 -0.3496 -1.0540
11717TIP3    H256643   5.506   4.650  13.819  0.3629 -0.9220  1.0459
11718TIP3   OH256644   5.037   4.278   5.463 -0.1741  0.2525 -0.0397
11718TIP3    H156645   4.977   4.278   5.389 -1.6393  0.7025  1.0913
11718TIP3    H256646   5.029   4.366   5.500  0.4585  0.0101  0.7119
11719TIP3   OH256647   6.740   2.706   2.094  0.4411  0.3515 -0.0135
11719TIP3    H156648   6.798   2.782   2.108  1.2473  0.0397 -1.4456
11719TIP3    H256649   6.797   2.630   2.103  0.2183  0.0261 -1.1140
11720TIP3   OH256650   3.645   5.963   1.890  0.3876 -0.0593 -0.0364
11720TIP3    H156651   3.624   6.039   1.836 -0.3608 -0.3053 -0.1000
11720TIP3    H256652   3.645   5.996   1.980 -3.1020 -0.5582  0.2825
11721TIP3   OH256653   4.663   1.140   3.878 -0.0856  0.2514  0.2120
11721TIP3    H156654   4.657   1.058   3.926 -0.1768  1.0554  1.6242
11721TIP3    H256655   4.598   1.132   3.808 -1.5998 -0.0715  1.5943
11722TIP3   OH256656   2.436   6.498   6.281  0.3535 -0.7679 -0.2067
11722TIP3    H156657   2.461   6.430   6.219 -0.7059 -1.3010 -0.0609
11722TIP3    H256658   2.344   6.480   6.302  0.7365 -0.7360  1.6965
11723TIP3   OH256659   1.211   0.097   1.659  0.7920  0.3199  0.3138
11723TIP3    H156660   1.220   0.081   1.565  0.9192 -1.5666  0.6095
11723TIP3    H256661   1.117   0.100   1.674  0.7713  0.5371  0.1482
11724TIP3   OH256662   0.265   3.085  14.334 -0.0706 -0.0681 -0.1380
11724TIP3    H156663   0.237   3.162  14.384  0.8175  0.8958 -1.0804
11724TIP3    H256664   0.314   3.032  14.397  2.3155  1.8407 -0.2503
11725TIP3   OH256665   3.317   1.658  12.781  0.2970 -0.3100 -0.2242
11725TIP3    H156666   3.250   1.614  12.728 -0.2013  2.7453 -2.3854
11725TIP3    H256667   3.399   1.643  12.732  0.4495 -0.4028  0.0580
11726TIP3   OH256668   1.801   1.318   2.628  0.0558 -0.4099 -0.3062
11726TIP3    H156669   1.860   1.259   2.675 -0.0367 -0.5883 -0.4099
11726TIP3    H256670   1.819   1.404   2.664 -0.4635 -0.6318  0.5196
11727TIP3   OH256671   0.402   5.902  15.022  0.4673  0.5201  0.7156
11727TIP3    H156672   0.360   5.966  14.965  1.2994 -0.4670 -1.0797
11727TIP3    H256673   0.472   5.951  15.066 -0.4629  1.3942  1.2611
11728TIP3   OH256674   4.009   6.676  11.378  0.0531 -0.2641 -0.1573
11728TIP3    H156675   3.924   6.711  11.404 -0.8238 -0.2604 -2.7526
11728TIP3    H256676   3.988   6.599  11.325  1.7263 -0.9150  0.0707
11729TIP3   OH256677   0.774   6.592   5.856  0.1556  0.0136 -0.1868
11729TIP3    H156678   0.826   6.559   5.783  2.7089  0.3429  1.3641
11729TIP3    H256679   0.833   6.651   5.903 -2.7213  3.2323 -0.1889
11730TIP3   OH256680   4.186   4.417   1.648  0.0493  0.0118 -0.2553
11730TIP3    H156681   4.111   4.425   1.588  0.0914 -1.5456 -0.5706
11730TIP3    H256682   4.160   4.465   1.726 -0.4918  1.0935 -1.0654
11731TIP3   OH256683   3.241   1.972  13.989 -0.3142 -0.1125  0.2035
11731TIP3    H156684   3.151   1.979  13.957  0.0621 -0.6468 -1.0529
11731TIP3    H256685   3.245   1.885  14.028 -0.2579 -0.2258 -0.0509
11732TIP3   OH256686   2.691   2.431   4.219 -0.4360 -0.5962  0.2400
11732TIP3    H156687   2.761   2.454   4.280  0.4751  0.3887 -1.1162
11732TIP3    H256688   2.648   2.514   4.198 -3.2254 -1.3538  2.3463
11733TIP3   OH256689   1.411   5.502   1.473  0.5282  0.1862 -0.2509
11733TIP3    H156690   1.354   5.427   1.493 -0.1808  0.9638  0.7445
11733TIP3    H256691   1.354   5.563   1.425  0.8223  0.5182 -0.1759
11734TIP3   OH256692   2.373   0.110  12.656 -0.6693 -0.1808 -0.1309
11734TIP3    H156693   2.417   0.031  12.689  0.5334 -0.8507 -2.9796
11734TIP3    H256694   2.431   0.182  12.681  0.7446 -0.7770 -1.4981
11735TIP3   OH256695   2.754   4.993  14.339 -0.7465 -0.1957 -0.0346
11735TIP3    H156696   2.743   4.899  14.326 -1.5547 -0.3753  1.7208
11735TIP3    H256697   2.821   4.999  14.407 -1.9844  0.4268  1.1579
11736TIP3   OH256698   3.102   4.605   6.514 -0.0848 -0.5001 -0.7018
11736TIP3    H156699   3.164   4.658   6.564  0.6721  0.5914 -2.7040
11736TIP3    H256700   3.022   4.657   6.512 -0.0998 -0.5220 -0.6681
11737TIP3   OH256701   3.344   4.126  13.975 -0.2193  0.0923  0.2410
11737TIP3    H156702   3.405   4.157  14.041  1.5911 -2.3864 -0.0995
11737TIP3    H256703   3.342   4.195  13.909  2.2305  0.3064  0.2995
11738TIP3   OH256704   2.930   4.861   1.467  0.5650 -0.4510 -0.1085
11738TIP3    H156705   2.913   4.834   1.376  0.5918 -1.7596  0.2570
11738TIP3    H256706   3.007   4.918   1.461 -0.0533  0.3209 -1.0180
11739TIP3   OH256707   1.699   2.701  11.185  0.0237  0.3115 -0.2529
11739TIP3    H156708   1.759   2.737  11.120 -0.0450  0.6286 -0.1409
11739TIP3    H256709   1.718   2.607  11.186  1.7839  0.6319  1.0891
11740TIP3   OH256710   2.395   2.820   4.233  0.2876 -0.2623 -0.2097
11740TIP3    H156711   2.365   2.772   4.310 -0.2959 -0.1662 -0.3681
11740TIP3    H256712   2.314   2.852   4.193  0.6313  0.2666 -0.4837
11741TIP3   OH256713   0.745   5.891  12.798  0.4497  0.6796  0.0485
11741TIP3    H156714   0.790   5.932  12.872  2.0788 -0.1462 -0.4405
11741TIP3    H256715   0.812   5.837  12.756 -0.8549 -0.0983 -1.1082
11742TIP3   OH256716   1.672   3.573  13.896 -0.0788 -0.4746 -0.6142
11742TIP3    H156717   1.627   3.497  13.932  0.3780 -0.3688  0.2017
11742TIP3    H256718   1.668   3.561  13.801 -0.1938 -1.4049 -0.4938
11743TIP3   OH256719   3.072   3.633  12.195  0.0284 -0.9667 -0.1473
11743TIP3    H156720   3.137   3.609  12.260  0.1962  0.5003  0.2422
11743TIP3    H256721   3.058   3.727  12.207 -1.6083 -1.1013 -0.7209
11744TIP3   OH256722   5.669   4.366   3.145  0.2205  0.0937 -0.1819
11744TIP3    H156723   5.615   4.441   3.119  0.4573 -0.1169 -1.3432
11744TIP3    H256724   5.645   4.350   3.236 -0.9645  0.6144 -0.3838
11745TIP3   OH256725   4.389   2.657   2.763  0.0150 -0.3856 -0.4484
11745TIP3    H156726   4.450   2.723   2.729  1.7412 -0.8105  1.5939
11745TIP3    H256727   4.445   2.588   2.798 -1.7252 -2.1849 -1.0221
11746TIP3   OH256728   2.232   5.177  15.405  0.0306  0.1901  0.1700
11746TIP3    H156729   2.249   5.167  15.499  0.1732  1.5352  0.3088
11746TIP3    H256730   2.312   5.214  15.370  0.1668 -0.7838 -0.6005
11747TIP3   OH256731   0.935   4.037  13.546  0.2412 -0.5519 -0.2196
11747TIP3    H156732   0.881   3.975  13.596  0.1694  0.3182  0.8159
11747TIP3    H256733   0.911   4.022  13.455 -0.5869 -1.2784  0.1045
11748TIP3   OH256734   6.813   4.791  13.652  0.4977 -0.0295 -0.2114
11748TIP3    H156735   6.898   4.835  13.653  0.7426 -0.4757  1.0288
11748TIP3    H256736   6.834   4.699  13.669 -0.2113 -0.1680 -0.0417
11749TIP3   OH256737   0.706   6.373   6.064  0.1766 -0.3349 -0.3365
11749TIP3    H156738   0.626   6.360   6.114  0.5165  2.6321  1.2282
11749TIP3    H256739   0.677   6.386   5.974 -1.0573  0.1066  0.1092
11750TIP3   OH256740   1.356   4.521  13.964 -0.1400 -0.0907  0.2129
11750TIP3    H156741   1.278   4.481  13.924  0.2093 -0.9695  0.3913
11750TIP3    H256742   1.397   4.450  14.013  0.2753  0.5982  0.8811
11751TIP3   OH256743   4.628   5.478  16.603 -0.3932 -1.1122 -0.0602
11751TIP3    H156744   4.674   5.404  16.563 -0.6959 -0.6140 -1.3750
11751TIP3    H256745   4.570   5.510  16.534 -0.7454 -0.0600  0.7057
11752TIP3   OH256746   6.520   1.581  16.750 -0.2151  0.2534 -0.0135
11752TIP3    H156747   6.498   1.664  16.708  2.0456  0.8611 -0.1472
11752TIP3    H256748   6.505   1.597  16.844  0.4356  0.9271 -0.0099
11753TIP3   OH256749   4.329   5.125   5.384 -0.0528  0.4549 -0.4171
11753TIP3    H156750   4.419   5.146   5.410 -0.2812  0.7033  0.1936
11753TIP3    H256751   4.275   5.184   5.437 -0.7300 -1.6025  1.3350
11754TIP3   OH256752   1.356   4.419   2.779  0.9224 -0.4170  0.0199
11754TIP3    H156753   1.378   4.342   2.832  0.6540 -1.0491 -0.7602
11754TIP3    H256754   1.273   4.450   2.816  0.9742 -0.5698  0.2666
11755TIP3   OH256755   1.851   2.113   3.475  0.4585  0.2333  0.9743
11755TIP3    H156756   1.824   2.038   3.421 -0.0454  0.3396  1.0698
11755TIP3    H256757   1.867   2.076   3.561  0.5111  0.1849  0.9439
11756TIP3   OH256758   1.020   4.507  16.000  1.1074 -0.5248 -0.5553
11756TIP3    H156759   0.981   4.587  15.964 -1.8462 -1.7300 -0.2824
11756TIP3    H256760   1.114   4.522  15.994  0.6775  2.2770 -2.0456
11757TIP3   OH256761   3.970   2.403  16.858 -0.5450  0.4391  0.2729
11757TIP3    H156762   3.931   2.343  16.794  1.8248  0.8904 -1.7581
11757TIP3    H256763   4.041   2.352  16.898  0.5763  1.3742 -0.4557
11758TIP3   OH256764   4.980   4.649   4.623 -0.0194 -0.1310 -0.7113
11758TIP3    H156765   4.954   4.594   4.549  0.2519 -1.3616  0.0739
11758TIP3    H256766   5.053   4.602   4.663 -1.6804 -0.7949  1.7708
11759TIP3   OH256767   5.187   3.222   0.156  0.1463  0.0592 -0.2607
11759TIP3    H156768   5.276   3.228   0.189 -0.1791 -0.9683  0.8735
11759TIP3    H256769   5.179   3.295   0.094  1.2226  1.2079  0.9016
11760TIP3   OH256770   6.262   2.176  13.940 -0.7572  0.0282  0.0058
11760TIP3    H156771   6.223   2.236  13.876 -1.0373 -0.0257  0.1253
11760TIP3    H256772   6.207   2.185  14.018  0.6195  1.4365  0.8689
11761TIP3   OH256773   6.262   0.916   3.834 -0.1090 -0.2181  0.3238
11761TIP3    H156774   6.177   0.914   3.878 -0.3443  0.6292 -0.0618
11761TIP3    H256775   6.326   0.917   3.905 -0.4721  0.5243  0.6541
11762TIP3   OH256776   3.332   1.654  13.349 -0.1538 -0.3357 -0.2532
11762TIP3    H156777   3.318   1.561  13.332 -0.1278 -0.4084  0.1102
11762TIP3    H256778   3.351   1.658  13.443 -0.5805  0.0829 -0.1807
11763TIP3   OH256779   6.568   1.373  12.695 -0.4388  0.4147 -0.1418
11763TIP3    H156780   6.564   1.317  12.617 -0.4861  0.3990 -0.1286
11763TIP3    H256781   6.555   1.462  12.662 -1.6961  0.2992 -0.0179
11764TIP3   OH256782   4.026   1.401  12.423 -0.3525 -0.1720 -0.3706
11764TIP3    H156783   4.007   1.320  12.376 -1.1036 -1.9922  2.7626
11764TIP3    H256784   3.941   1.444  12.434 -1.0936 -2.1180  3.0437
11765TIP3   OH256785   5.633   1.036   3.832  0.0857 -0.1858 -0.0186
11765TIP3    H156786   5.660   0.944   3.824  1.0475  0.0490  0.4739
11765TIP3    H256787   5.561   1.034   3.895 -0.1111 -0.6361 -0.2516
11766TIP3   OH256788   3.074   0.475   1.963 -0.3260  0.0359  0.0431
11766TIP3    H156789   3.011   0.514   2.024 -0.3762  1.3670 -0.8236
11766TIP3    H256790   3.101   0.548   1.907  0.5888 -0.9190 -0.7839
11767TIP3   OH256791   3.916   3.213   3.141  0.0215 -0.6113  0.1606
11767TIP3    H156792   3.978   3.259   3.085 -1.0934  0.9201  0.1112
11767TIP3    H256793   3.914   3.124   3.106  2.8461 -1.0132  0.7516
11768TIP3   OH256794   2.633   1.417   4.430 -1.0790 -0.0296  0.0809
11768TIP3    H156795   2.685   1.393   4.353 -0.1539 -0.4255  0.8189
11768TIP3    H256796   2.544   1.386   4.410 -0.7709 -0.4468 -0.6714
11769TIP3   OH256797   3.306   4.852   1.625  0.4033 -0.0703  0.1172
11769TIP3    H156798   3.274   4.824   1.539  0.6576 -0.3395  0.1116
11769TIP3    H256799   3.233   4.902   1.662  0.4175  0.3335 -0.3945
11770TIP3   OH256800   4.306   5.710  11.797  0.7778  0.1713 -0.1997
11770TIP3    H156801   4.398   5.736  11.808  0.5826  0.4215  0.9558
11770TIP3    H256802   4.305   5.617  11.817  1.0242 -0.1909 -1.7400
11771TIP3   OH256803   2.609   2.328  11.995 -0.1457 -0.1227 -0.4141
11771TIP3    H156804   2.668   2.385  12.045  0.4707 -1.2974  0.2563
11771TIP3    H256805   2.665   2.287  11.929 -0.1781 -1.2483  0.2275
11772TIP3   OH256806   1.867   3.599  13.624 -0.2226  0.0431  0.0426
11772TIP3    H156807   1.800   3.531  13.628 -1.1962  0.9785  3.3679
11772TIP3    H256808   1.833   3.662  13.561 -0.4065 -1.4127 -1.3820
11773TIP3   OH256809   2.386   6.315  16.791  0.5039  0.2545  0.3568
11773TIP3    H156810   2.430   6.372  16.728 -1.2904  0.8027 -0.4590
11773TIP3    H256811   2.297   6.349  16.796 -0.4643 -2.0821  0.3061
11774TIP3   OH256812   5.534   5.444  12.609 -0.0594 -0.2368 -0.0231
11774TIP3    H156813   5.492   5.385  12.546 -1.2508  0.5605  0.0032
11774TIP3    H256814   5.550   5.525  12.561 -0.8957  0.3508  0.6504
11775TIP3   OH256815   2.521   6.317  12.569 -0.4049 -0.4992  0.0755
11775TIP3    H156816   2.427   6.315  12.591 -0.7070 -0.5009 -1.1629
11775TIP3    H256817   2.528   6.265  12.489  0.6733 -0.5501  0.1871
11776TIP3   OH256818   6.812   0.051  14.464 -0.3123 -0.8017 -0.0686
11776TIP3    H156819   6.752  -0.012  14.504 -1.0135  0.3250  0.7293
11776TIP3    H256820   6.895   0.035  14.508 -0.8802 -0.1234  1.3377
11777TIP3   OH256821   1.438   3.927  11.541  0.3556  0.5975 -0.0243
11777TIP3    H156822   1.349   3.961  11.556 -0.1744 -0.8180  0.1936
11777TIP3    H256823   1.429   3.870  11.464  1.0170  0.2385  0.1618
11778TIP3   OH256824   0.595   4.874  16.014 -0.4526 -0.4273 -0.0615
11778TIP3    H156825   0.601   4.858  15.920 -1.3405  1.0998 -0.4183
11778TIP3    H256826   0.583   4.969  16.021  2.6175 -0.0384  1.7594
11779TIP3   OH256827   6.574   4.961   4.313  0.0951 -0.1919  0.0926
11779TIP3    H156828   6.662   4.947   4.278  0.7088 -0.2865  1.6209
11779TIP3    H256829   6.587   4.971   4.407 -1.4932  0.2091  0.2909
11780TIP3   OH256830   3.204   3.207   4.632 -0.0557  0.3349 -0.7283
11780TIP3    H156831   3.268   3.252   4.687  0.3118 -1.3658  0.2766
11780TIP3    H256832   3.121   3.217   4.679  0.0699 -0.2284 -0.3810
11781TIP3   OH256833   0.352   5.882  11.723  0.3143 -1.1416  0.1284
11781TIP3    H156834   0.379   5.841  11.805  3.7788  2.3597  1.0641
11781TIP3    H256835   0.430   5.929  11.693 -1.8230  0.5996 -3.3444
11782TIP3   OH256836   3.772   5.445  12.986  0.0494  0.5193  0.6032
11782TIP3    H156837   3.812   5.532  12.982  0.8528  0.1448  0.1420
11782TIP3    H256838   3.730   5.434  12.901  1.0109 -0.0161  0.1741
11783TIP3   OH256839   1.253   0.344  12.622  0.3013 -0.1036 -0.2350
11783TIP3    H156840   1.314   0.323  12.693  0.7467  0.1722 -0.5283
11783TIP3    H256841   1.166   0.324  12.657  0.2425  2.4838  1.3300
11784TIP3   OH256842   4.530   1.045  12.774  0.0714 -0.5369 -0.2085
11784TIP3    H156843   4.502   0.960  12.742  0.3812 -0.0395 -1.8977
11784TIP3    H256844   4.462   1.106  12.743 -0.1283 -0.1455  0.9384
11785TIP3   OH256845   0.349   6.573   4.792  0.4877 -1.0471  0.3730
11785TIP3    H156846   0.286   6.639   4.821  0.4606 -0.9943  0.1949
11785TIP3    H256847   0.333   6.498   4.850  0.0172 -1.1652  0.1036
11786TIP3   OH256848   4.452   6.636  17.168 -0.3635 -0.4575  0.1848
11786TIP3    H156849   4.525   6.589  17.127  0.0643 -0.3992  0.8680
11786TIP3    H256850   4.488   6.722  17.190 -0.7651 -0.2770  0.1398
11787TIP3   OH256851   6.526   4.557   4.264 -0.1884 -0.3298 -0.4582
11787TIP3    H156852   6.585   4.626   4.234 -1.0387 -0.2584 -2.1439
11787TIP3    H256853   6.518   4.499   4.188 -1.0137 -1.2152  0.2801
11788TIP3   OH256854   4.875   5.570   2.588  0.8300  0.1728  0.6743
11788TIP3    H156855   4.929   5.629   2.535  1.0635  0.1973  0.9322
11788TIP3    H256856   4.809   5.626   2.627 -0.2015 -0.0657 -0.6761
11789TIP3   OH256857   2.501   2.550   0.410 -0.6330  0.1311  0.5528
11789TIP3    H156858   2.517   2.567   0.503  1.2208  0.0619  0.2984
11789TIP3    H256859   2.430   2.486   0.410 -0.9589  0.4472  1.8969
11790TIP3   OH256860   4.875   4.203  12.697  0.9699  0.2335  0.0240
11790TIP3    H156861   4.849   4.270  12.633 -1.3903 -0.6211 -0.0417
11790TIP3    H256862   4.812   4.132  12.683  2.6146 -1.4848  0.9388
11791TIP3   OH256863   5.308   1.518  14.582  0.1454  0.0499 -0.1334
11791TIP3    H156864   5.235   1.491  14.525 -1.4736 -0.4671  2.0400
11791TIP3    H256865   5.370   1.446  14.577 -1.0672 -1.0932  0.4839
11792TIP3   OH256866   2.191   4.703  12.274  0.0438  0.1875  0.2689
11792TIP3    H156867   2.116   4.731  12.223  0.1608  1.2559  0.6718
11792TIP3    H256868   2.267   4.721  12.219  0.0708 -0.0117  0.2392
11793TIP3   OH256869   5.004   6.479  13.493 -0.1312 -0.4639  0.0520
11793TIP3    H156870   5.025   6.389  13.518  0.7468 -0.3796 -0.3575
11793TIP3    H256871   5.017   6.530  13.573 -1.4088 -0.8008  0.5021
11794TIP3   OH256872   4.548   1.889  11.643 -0.0670 -0.1210 -0.9920
11794TIP3    H156873   4.525   1.902  11.551 -0.0243 -2.6684 -1.4510
11794TIP3    H256874   4.470   1.846  11.680 -0.1368  1.0094  0.2170
11795TIP3   OH256875   2.867   1.718  11.705  0.3074  0.6060 -0.1632
11795TIP3    H156876   2.855   1.780  11.777 -1.2184 -0.0559  0.1924
11795TIP3    H256877   2.961   1.712  11.694  0.5198  2.0515  0.6100
11796TIP3   OH256878   3.331   3.309  11.137 -0.1063  0.2553 -0.3982
11796TIP3    H156879   3.421   3.336  11.154 -0.1722 -0.6850  1.8517
11796TIP3    H256880   3.334   3.267  11.052  1.9466 -1.1589  0.2892
11797TIP3   OH256881   3.216   6.440   3.920  0.4637 -0.3033 -0.2990
11797TIP3    H156882   3.214   6.395   3.836  1.7353 -0.2982 -0.3419
11797TIP3    H256883   3.273   6.516   3.905 -0.8659  0.8024  0.0347
11798TIP3   OH256884   5.373   0.025   7.048 -0.3122  0.2032  0.5953
11798TIP3    H156885   5.456   0.037   7.095  0.4904 -1.3178 -0.3573
11798TIP3    H256886   5.369   0.101   6.989  1.4903 -0.7309 -0.8340
11799TIP3   OH256887   3.047   1.786  12.526  0.6023 -0.6087  0.4539
11799TIP3    H156888   3.128   1.767  12.479  0.7698  0.4906  0.2647
11799TIP3    H256889   3.037   1.714  12.588  1.9426 -0.5417  0.7684
11800TIP3   OH256890   1.360   3.317  11.337 -0.2651 -0.1521  0.1164
11800TIP3    H156891   1.425   3.272  11.391 -0.0781  0.0394  0.0519
11800TIP3    H256892   1.375   3.410  11.354 -0.2903 -0.0953 -0.1689
11801TIP3   OH256893   3.506   4.027   3.013  0.1824 -0.7687 -0.3984
11801TIP3    H156894   3.441   4.000   2.947 -0.7940 -0.6546  0.4950
11801TIP3    H256895   3.457   4.031   3.095  1.4005 -0.9956  0.3671
11802TIP3   OH256896   0.491   2.960   5.607 -0.0856 -0.0719  0.3527
11802TIP3    H156897   0.444   2.915   5.677 -0.2563 -1.3117 -0.5184
11802TIP3    H256898   0.426   2.968   5.537  1.0435 -2.1734 -1.0299
11803TIP3   OH256899   1.657   1.116  12.687  0.0718 -0.1424 -0.0049
11803TIP3    H156900   1.718   1.160  12.628  0.5848 -2.2555 -1.1935
11803TIP3    H256901   1.691   1.027  12.694 -2.8548 -1.4739 -0.7966
11804TIP3   OH256902   0.317   4.443  16.604 -0.1416  0.8650  0.4000
11804TIP3    H156903   0.328   4.528  16.645  0.0189  1.9628 -1.7917
11804TIP3    H256904   0.243   4.453  16.545 -1.2290 -1.0526  1.3204
11805TIP3   OH256905   1.330   3.331   0.512 -0.2881  0.1680  0.0026
11805TIP3    H156906   1.341   3.304   0.603  0.2182 -1.6899 -0.5652
11805TIP3    H256907   1.408   3.297   0.468 -1.1880 -0.1592 -1.3808
11806TIP3   OH256908   1.568   0.932   1.935 -0.1067 -0.3977  0.1985
11806TIP3    H156909   1.638   0.941   1.871 -0.7605  3.6680 -0.2181
11806TIP3    H256910   1.494   0.896   1.885  0.2505 -0.0263 -0.6143
11807TIP3   OH256911   2.595   4.599   0.387 -0.1805  0.0330 -0.3398
11807TIP3    H156912   2.530   4.669   0.384  0.3157  0.7011  2.1521
11807TIP3    H256913   2.544   4.520   0.404 -0.5218  0.1934 -0.5973
11808TIP3   OH256914   4.967   0.158  17.002 -0.1937 -0.8603 -0.3254
11808TIP3    H156915   5.048   0.141  16.953  0.4801  0.3487  0.3245
11808TIP3    H256916   4.928   0.232  16.957 -0.8973 -1.3719 -0.5669
11809TIP3   OH256917   2.257   6.401  15.950 -0.0563  0.1445 -0.2838
11809TIP3    H156918   2.221   6.488  15.928 -2.0708 -0.3105  1.0048
11809TIP3    H256919   2.188   6.340  15.926  0.3335 -0.8991  1.1255
11810TIP3   OH256920   1.232   5.640  14.908 -0.2265 -0.3084 -0.2989
11810TIP3    H156921   1.157   5.689  14.941 -1.4391 -1.6913 -0.8662
11810TIP3    H256922   1.247   5.572  14.974 -1.3838 -1.8371 -1.5058
11811TIP3   OH256923   3.817   6.052   2.522  0.3920 -0.0221  0.4160
11811TIP3    H156924   3.803   5.977   2.465  0.7221 -0.8400  1.3737
11811TIP3    H256925   3.764   6.121   2.484 -1.0928 -1.1630  0.3189
11812TIP3   OH256926   2.987   4.623   2.681 -0.6677 -0.1928  0.4849
11812TIP3    H156927   2.934   4.667   2.747  1.2689  1.4144  1.0593
11812TIP3    H256928   3.076   4.622   2.717  0.8549  2.2931 -2.6919
11813TIP3   OH256929   3.403   5.482  16.214 -0.2154  0.0778  0.2959
11813TIP3    H156930   3.409   5.480  16.119 -1.8048 -0.6512  0.1707
11813TIP3    H256931   3.414   5.391  16.241 -0.6410  0.1457  0.7212
11814TIP3   OH256932   3.226   5.481   4.422 -0.2897  0.0014 -0.5656
11814TIP3    H156933   3.281   5.474   4.500  1.0187  2.1040 -1.2400
11814TIP3    H256934   3.260   5.415   4.362  0.1641 -0.0806 -0.2200
11815TIP3   OH256935   0.666   6.678  16.672 -0.3324  0.3845 -0.1197
11815TIP3    H156936   0.755   6.707  16.654  0.1874 -0.9075  0.3032
11815TIP3    H256937   0.649   6.609  16.608 -1.5824  1.5925 -1.1655
11816TIP3   OH256938   4.247   1.618  16.501 -0.4025  0.1404  0.7023
11816TIP3    H156939   4.304   1.551  16.537 -0.8777  0.1284  1.4713
11816TIP3    H256940   4.191   1.572  16.439 -1.3677 -0.3909  1.9194
11817TIP3   OH256941   2.222   2.680  15.512 -0.3551 -0.1691  0.6703
11817TIP3    H156942   2.280   2.722  15.448  0.5995 -2.3106  0.0424
11817TIP3    H256943   2.150   2.743  15.523 -0.0053  0.7749 -1.6864
11818TIP3   OH256944   5.841   3.528   4.048  0.0313  0.2211 -0.4713
11818TIP3    H156945   5.814   3.496   3.962 -0.3901 -2.5341  0.6031
11818TIP3    H256946   5.936   3.539   4.040  0.3728 -2.3191 -0.6717
11819TIP3   OH256947   0.121   1.863  16.016 -0.2479  0.1819  0.2123
11819TIP3    H156948   0.167   1.789  15.975  0.3143  1.2692 -1.1763
11819TIP3    H256949   0.042   1.824  16.053 -0.4448 -0.9754 -1.3219
11820TIP3   OH256950   1.254   0.745  16.742 -0.0205 -0.0822  0.1350
11820TIP3    H156951   1.221   0.655  16.742  2.8267 -1.2740  1.9385
11820TIP3    H256952   1.267   0.767  16.650  1.1236 -2.3319 -0.3010
11821TIP3   OH256953   1.958   6.417  14.771 -0.4497  0.2636 -0.1400
11821TIP3    H156954   1.963   6.510  14.750 -0.0586  0.0241 -1.1954
11821TIP3    H256955   2.041   6.381  14.740 -0.7337 -0.4877 -0.0574
11822TIP3   OH256956   3.942   2.867   5.519 -0.9242  0.1570 -0.0228
11822TIP3    H156957   3.944   2.818   5.437 -0.5861  0.6916 -0.3358
11822TIP3    H256958   3.897   2.808   5.580  1.2589 -1.4413  0.1796
11823TIP3   OH256959   4.299   1.143  11.536 -0.4926  0.0548  0.5011
11823TIP3    H156960   4.216   1.100  11.556 -1.0784  1.1154  0.3951
11823TIP3    H256961   4.325   1.105  11.452 -0.5679 -0.7041  0.8094
11824TIP3   OH256962   1.933   0.864  13.246  0.9432 -0.2132 -0.7490
11824TIP3    H156963   2.015   0.834  13.286  0.3290 -0.7649  0.1311
11824TIP3    H256964   1.945   0.959  13.235  1.7485 -0.3104 -0.7650
11825TIP3   OH256965   5.476   0.214  13.440 -0.1662 -0.1173  0.1479
11825TIP3    H156966   5.476   0.156  13.516  1.7250 -0.2073  0.1297
11825TIP3    H256967   5.384   0.234  13.425 -0.7276 -1.6784  1.2481
11826TIP3   OH256968   4.786   2.238   3.596  0.2086  0.1244  0.1148
11826TIP3    H156969   4.708   2.268   3.644  0.8717  0.5367  0.9620
11826TIP3    H256970   4.852   2.227   3.664  0.2651 -2.4238 -0.2825
11827TIP3   OH256971   6.432   3.112  14.159 -0.4873 -0.3271  0.1695
11827TIP3    H156972   6.375   3.141  14.231 -0.0312 -0.5559  0.6231
11827TIP3    H256973   6.376   3.053  14.107 -0.1277 -2.0677  1.6688
11828TIP3   OH256974   0.786   3.411  11.172 -0.2591 -0.6705  0.4134
11828TIP3    H156975   0.821   3.474  11.236 -0.5747  1.1412 -1.0841
11828TIP3    H256976   0.863   3.361  11.144  0.2163 -0.1949  0.8307
11829TIP3   OH256977   3.255   2.785  10.658  0.3074 -0.2818 -0.1576
11829TIP3    H156978   3.243   2.861  10.601 -0.0357 -0.5029 -0.3832
11829TIP3    H256979   3.175   2.733  10.646  1.2913 -1.6058 -1.3949
11830TIP3   OH256980   1.457   2.208   4.201 -0.0407 -0.0216 -0.1527
11830TIP3    H156981   1.439   2.117   4.176  1.6828 -0.4743  0.1420
11830TIP3    H256982   1.386   2.231   4.262 -1.9626 -0.2676 -2.1437
11831TIP3   OH256983   6.335   5.061   5.771 -0.0130 -0.1773 -0.3261
11831TIP3    H156984   6.297   4.985   5.817  1.5073  0.4549  2.1867
11831TIP3    H256985   6.261   5.119   5.754 -0.8518 -1.1510 -0.0748
11832TIP3   OH256986   1.606   5.065   5.754 -0.1947 -0.4914  0.4375
11832TIP3    H156987   1.632   4.997   5.816  0.8365  0.6462  1.3181
11832TIP3    H256988   1.686   5.086   5.706 -0.7943 -0.7657 -0.7219
11833TIP3   OH256989   3.507   2.158   1.484  0.7338 -0.2659 -0.1066
11833TIP3    H156990   3.556   2.165   1.402 -0.2512 -0.4655 -0.7380
11833TIP3    H256991   3.462   2.074   1.477  0.2144 -0.0341  0.3919
11834TIP3   OH256992   0.924   4.290  12.343 -0.0235  0.1457 -0.1709
11834TIP3    H156993   0.867   4.335  12.280  1.1765  0.8540 -0.7812
11834TIP3    H256994   0.938   4.204  12.305  0.7475  0.5929 -0.9267
11835TIP3   OH256995   5.192   3.223  11.782  0.2099  0.6295  0.1121
11835TIP3    H156996   5.202   3.217  11.877 -0.8644  0.4616  0.2310
11835TIP3    H256997   5.279   3.246  11.749  0.8356 -0.3187  1.0499
11836TIP3   OH256998   6.243   1.944  11.777 -0.6370 -0.5306 -0.0257
11836TIP3    H156999   6.270   1.866  11.728 -1.6839 -1.6120  1.0436
11836TIP3    H257000   6.152   1.959  11.751 -0.7484 -0.2579  0.5001
11837TIP3   OH257001   0.300   3.332  17.008  0.1609 -0.6461  0.0572
11837TIP3    H157002   0.371   3.372  17.058 -0.6280  0.0884  0.6182
11837TIP3    H257003   0.263   3.267  17.067 -1.1604  0.6372  0.7191
11838TIP3   OH257004   4.401   0.037   0.682  0.2039 -0.2601 -0.6945
11838TIP3    H157005   4.367  -0.053   0.679 -0.9461  0.1299  0.0974
11838TIP3    H257006   4.345   0.085   0.621  1.3097 -0.2232 -1.7058
11839TIP3   OH257007   3.393   4.545  11.150 -0.1855  0.4124  0.3653
11839TIP3    H157008   3.416   4.545  11.057 -0.1611  1.1971  0.3660
11839TIP3    H257009   3.461   4.493  11.192  0.5858  1.2213  0.1317
11840TIP3   OH257010   3.667   0.648  13.627  0.3272  0.7808  0.6610
11840TIP3    H157011   3.762   0.644  13.612  0.2937 -0.0222  0.6063
11840TIP3    H257012   3.651   0.738  13.656  0.9415  1.2829 -0.4767
11841TIP3   OH257013   0.318   2.860   5.800 -0.0354 -0.1153  0.2770
11841TIP3    H157014   0.236   2.818   5.826  0.4730 -0.9492  0.5606
11841TIP3    H257015   0.295   2.953   5.789 -0.8681 -0.2306  0.9612
11842TIP3   OH257016   1.471   4.071  17.177 -0.4792  0.4713 -0.1458
11842TIP3    H157017   1.462   4.167  17.183 -1.9864  0.2827  1.2147
11842TIP3    H257018   1.477   4.053  17.083  1.6205  2.0069 -0.3991
11843TIP3   OH257019   4.529   6.394   5.514 -0.3485  0.1535  0.5857
11843TIP3    H157020   4.462   6.332   5.484  2.4003 -2.7496 -0.0350
11843TIP3    H257021   4.547   6.369   5.604  0.0921  0.7406  0.6696
11844TIP3   OH257022   1.838   2.534   3.619  0.2825 -0.3874 -0.4166
11844TIP3    H157023   1.907   2.529   3.553  0.9402  1.2980  0.0851
11844TIP3    H257024   1.766   2.579   3.576  0.4416  0.0727 -0.2066
11845TIP3   OH257025   0.716   0.564  11.526 -0.0394 -0.3721  0.2065
11845TIP3    H157026   0.700   0.547  11.619  0.9849 -3.3044 -0.0654
11845TIP3    H257027   0.811   0.557  11.516 -0.1049  0.1845 -1.0499
11846TIP3   OH257028   5.328   1.007  14.065  0.3213 -0.4882  0.0088
11846TIP3    H157029   5.240   0.980  14.040 -0.1526  0.4674  0.5572
11846TIP3    H257030   5.366   0.930  14.108 -0.9272 -0.3852  1.4200
11847TIP3   OH257031   1.689   1.023  16.487 -0.3411  0.0441 -0.2291
11847TIP3    H157032   1.754   1.089  16.466 -1.5255  1.5225  0.5976
11847TIP3    H257033   1.718   0.985  16.570 -0.1875  0.2065 -0.2097
11848TIP3   OH257034   5.881   5.213  15.812  0.1596  0.1354  0.1297
11848TIP3    H157035   5.847   5.292  15.770  1.1752  1.2033  1.2169
11848TIP3    H257036   5.859   5.224  15.905  1.4884 -0.1796  0.5020
11849TIP3   OH257037   3.910   6.197  10.892  0.2609 -0.4520  0.6453
11849TIP3    H157038   3.912   6.104  10.870  1.3799 -0.3645  0.2970
11849TIP3    H257039   3.997   6.229  10.867  0.2197  0.4907  1.6391
11850TIP3   OH257040   1.454   4.460  15.299  0.3489 -0.2933 -0.2498
11850TIP3    H157041   1.441   4.410  15.218  0.6705  2.9936 -2.5241
11850TIP3    H257042   1.382   4.522  15.301  0.2096 -0.4468  2.1876
11851TIP3   OH257043   1.612   2.710  16.572 -0.2847 -0.9679 -0.5766
11851TIP3    H157044   1.636   2.741  16.485  0.7435 -1.3993 -0.4556
11851TIP3    H257045   1.651   2.623  16.579  1.0594 -0.2894  0.9099
11852TIP3   OH257046   5.255   4.625   0.205  0.2006 -0.0854  0.8560
11852TIP3    H157047   5.168   4.634   0.243 -0.2696 -1.2874  0.1015
11852TIP3    H257048   5.249   4.549   0.148  1.7383 -0.1699  0.7624
11853TIP3   OH257049   5.331   0.731  12.554 -0.3566 -0.1695 -0.0197
11853TIP3    H157050   5.366   0.788  12.485  3.1044 -0.6768  1.0949
11853TIP3    H257051   5.328   0.787  12.632  0.0867 -0.7109  0.3928
11854TIP3   OH257052   6.344   0.684  12.879  0.3667 -0.3396 -0.0694
11854TIP3    H157053   6.387   0.770  12.879  1.8716 -1.0544 -1.1512
11854TIP3    H257054   6.412   0.623  12.852 -0.7358 -1.8698  0.4919
11855TIP3   OH257055   4.609   6.594  12.064  0.3869  0.0525  0.0640
11855TIP3    H157056   4.537   6.560  12.117 -1.1353  0.7755 -1.4464
11855TIP3    H257057   4.621   6.528  11.996  0.1636  0.5967 -0.5161
11856TIP3   OH257058   2.030   4.394   1.504  0.0463 -0.1520 -0.0218
11856TIP3    H157059   1.990   4.456   1.443  0.4412  1.2889  1.1294
11856TIP3    H257060   1.956   4.356   1.552 -0.2467 -1.1246 -1.1982
11857TIP3   OH257061   0.281   6.372  13.551  0.5698 -0.6314  0.4648
11857TIP3    H157062   0.201   6.372  13.605  0.3208 -1.3598  0.1188
11857TIP3    H257063   0.330   6.448  13.581 -1.1541  1.0108 -0.6690
11858TIP3   OH257064   1.637   5.438   5.822  0.3176  0.1893 -0.7369
11858TIP3    H157065   1.644   5.401   5.909  2.2073 -0.4874 -1.1490
11858TIP3    H257066   1.580   5.515   5.833  0.3299 -0.0281  1.0242
11859TIP3   OH257067   1.685   0.966   1.056  0.2602 -0.4266  0.4722
11859TIP3    H157068   1.721   0.926   1.136  0.0564  0.2146  0.8992
11859TIP3    H257069   1.633   1.040   1.089  1.2025  0.6247 -0.3154
11860TIP3   OH257070   0.169   1.157   0.763  0.4526  0.0154  0.7178
11860TIP3    H157071   0.255   1.118   0.778  0.9781  0.3303 -1.2179
11860TIP3    H257072   0.107   1.090   0.792  1.3581 -1.1296  0.0924
11861TIP3   OH257073   4.620   6.091   2.413 -0.4188 -0.1177  0.4354
11861TIP3    H157074   4.598   6.030   2.343  1.8551 -0.8913  0.3210
11861TIP3    H257075   4.650   6.036   2.485 -2.0004  0.7074  1.7769
11862TIP3   OH257076   6.008   6.333   1.394  0.0888 -0.5202  0.4146
11862TIP3    H157077   5.920   6.353   1.363  0.5618  0.1606 -0.5459
11862TIP3    H257078   6.014   6.237   1.391 -0.4999 -0.5511  0.1522
11863TIP3   OH257079   2.922   5.059  11.307 -0.0849 -0.2672  0.2050
11863TIP3    H157080   2.901   4.966  11.307  1.0466 -0.5554  1.2809
11863TIP3    H257081   2.865   5.098  11.374 -0.3571 -0.2289 -0.0467
11864TIP3   OH257082   3.297   2.587  15.304 -0.0521 -0.4703  0.0622
11864TIP3    H157083   3.350   2.511  15.278 -0.2510 -0.6987  0.3181
11864TIP3    H257084   3.310   2.594  15.399  0.9514  0.5769 -0.1351
11865TIP3   OH257085   6.627   6.304   0.309  0.0561  0.5295  0.3863
11865TIP3    H157086   6.534   6.283   0.318  0.3049 -1.1135 -0.4265
11865TIP3    H257087   6.628   6.399   0.291 -1.5309  0.4318 -0.4803
11866TIP3   OH257088   5.497   3.729   1.923 -0.3689  0.4481  0.1206
11866TIP3    H157089   5.545   3.668   1.867 -1.0486  0.1942 -0.1850
11866TIP3    H257090   5.451   3.674   1.986 -0.6553  0.6708  0.1062
11867TIP3   OH257091   3.075   6.444   4.317 -0.4928  0.0474 -0.0862
11867TIP3    H157092   3.019   6.367   4.305 -1.0639  0.5645 -0.8381
11867TIP3    H257093   3.138   6.440   4.245 -0.8473  0.5468 -0.4345
11868TIP3   OH257094   2.473   3.380   2.685 -0.2266  0.1460 -0.6968
11868TIP3    H157095   2.550   3.365   2.631  0.3212  0.7544 -0.1077
11868TIP3    H257096   2.499   3.351   2.773 -0.8764 -0.2094 -0.6151
11869TIP3   OH257097   1.665   1.765  13.408 -0.2958 -0.4531 -0.3884
11869TIP3    H157098   1.612   1.754  13.330  0.0593  0.8949 -0.8545
11869TIP3    H257099   1.634   1.847  13.447 -0.3516 -1.0138  0.8002
11870TIP3   OH257100   3.362   1.898  14.439  0.6793 -0.8104  0.1822
11870TIP3    H157101   3.273   1.915  14.408  0.6800 -0.3147  0.4425
11870TIP3    H257102   3.407   1.983  14.432  1.4130 -1.2589 -0.8453
11871TIP3   OH257103   5.514   4.033  15.703 -0.7297  0.3724 -0.0226
11871TIP3    H157104   5.485   3.965  15.764  0.2019  0.2511  0.2965
11871TIP3    H257105   5.591   4.072  15.744 -0.7629  1.0650 -0.5902
11872TIP3   OH257106   4.261   6.440  15.195 -0.2325  0.1083 -0.0687
11872TIP3    H157107   4.166   6.447  15.206 -0.2647 -0.6858  0.2314
11872TIP3    H257108   4.279   6.486  15.113 -1.0944 -1.0696 -0.9612
11873TIP3   OH257109   2.776   6.352   0.537  0.4346 -0.3755  0.1679
11873TIP3    H157110   2.831   6.430   0.535  0.1848 -0.2051 -0.5425
11873TIP3    H257111   2.694   6.380   0.498  0.4552 -1.0742 -0.3991
11874TIP3   OH257112   5.216   1.007   4.157  0.4737 -0.2775 -0.5584
11874TIP3    H157113   5.183   1.081   4.106  2.0271  0.3557 -0.6849
11874TIP3    H257114   5.137   0.962   4.187 -0.5075 -0.4782 -3.1941
11875TIP3   OH257115   4.147   1.403  13.254 -0.2291 -0.1440 -0.5781
11875TIP3    H157116   4.091   1.332  13.286  0.5561 -1.5345 -2.1248
11875TIP3    H257117   4.226   1.396  13.307 -1.5498  2.0938  1.9049
11876TIP3   OH257118   4.788   5.105  15.950  0.0156 -0.0325 -0.4821
11876TIP3    H157119   4.744   5.124  16.033 -2.2543  0.0996 -1.6441
11876TIP3    H257120   4.792   5.009  15.947  3.5040 -0.1255  1.3610
11877TIP3   OH257121   2.051   4.375   4.635 -0.0189 -0.0994  0.0343
11877TIP3    H157122   2.075   4.358   4.726  0.1441 -2.0710 -0.3407
11877TIP3    H257123   1.965   4.335   4.624  0.8078 -1.6721 -1.1664
11878TIP3   OH257124   1.492   3.768   3.400  0.1247 -0.0458  0.2088
11878TIP3    H157125   1.548   3.839   3.368 -2.4636  1.9206 -0.2978
11878TIP3    H257126   1.508   3.765   3.494  0.7874  0.7352  0.1325
11879TIP3   OH257127   3.222   0.863  15.368  0.4014  0.5029 -0.7291
11879TIP3    H157128   3.226   0.935  15.431 -0.5816  0.2662 -0.3808
11879TIP3    H257129   3.157   0.803  15.404 -2.5151  1.8089 -3.3957
11880TIP3   OH257130   3.860   2.258  17.237 -0.4081 -0.2870  0.1913
11880TIP3    H157131   3.806   2.327  17.199 -1.4535 -1.4084 -0.4110
11880TIP3    H257132   3.879   2.200  17.164  1.6797  0.0722  0.3655
11881TIP3   OH257133   1.295   0.475   1.612  0.3285  0.2580 -0.0665
11881TIP3    H157134   1.377   0.511   1.578  1.2302 -0.4202  1.2652
11881TIP3    H257135   1.286   0.390   1.568  0.2515  0.4068 -0.3385
11882TIP3   OH257136   6.497   5.516   1.559  0.2225  0.1763 -0.3207
11882TIP3    H157137   6.512   5.485   1.469  0.8203  0.1177 -0.2030
11882TIP3    H257138   6.498   5.611   1.552 -0.7370  0.1852 -0.5360
11883TIP3   OH257139   4.150   1.509   0.959  0.5475 -0.2263 -0.0331
11883TIP3    H157140   4.184   1.420   0.959 -1.4654 -1.0594  1.2458
11883TIP3    H257141   4.077   1.507   0.897 -0.7217 -0.0419  1.3818
11884TIP3   OH257142   5.356   5.836   1.768  0.2055 -0.4230  0.0373
11884TIP3    H157143   5.321   5.925   1.777  2.0576  0.4388 -0.7257
11884TIP3    H257144   5.451   5.847   1.776  0.5445 -2.2014 -1.0020
11885TIP3   OH257145   6.020   1.661  12.285  0.0482 -0.3687 -0.1913
11885TIP3    H157146   6.101   1.713  12.292 -0.4163  0.3217  0.2023
11885TIP3    H257147   5.965   1.711  12.225 -1.1477  0.6271  1.6442
11886TIP3   OH257148   3.895   1.018  14.793  0.2667  0.0329 -0.1410
11886TIP3    H157149   3.801   1.037  14.791  0.4046  0.7543 -1.4016
11886TIP3    H257150   3.909   0.955  14.722  0.7225 -0.0961  0.0583
11887TIP3   OH257151   6.044   4.423   0.523 -0.1613  0.3185 -0.2196
11887TIP3    H157152   5.950   4.414   0.537 -0.0264  0.9604  1.4099
11887TIP3    H257153   6.078   4.333   0.522 -0.7879  0.0893 -0.7977
11888TIP3   OH257154   1.377   6.328   3.818 -0.0925  0.8552  0.4059
11888TIP3    H157155   1.303   6.267   3.820 -0.9431  1.8545  2.5243
11888TIP3    H257156   1.453   6.274   3.841 -0.1562 -0.1016 -1.4230
11889TIP3   OH257157   5.794   0.475  12.262 -0.2005  0.4687 -0.5801
11889TIP3    H157158   5.794   0.506  12.171  0.3140 -2.7899 -1.8359
11889TIP3    H257159   5.703   0.483  12.290 -0.7111  0.0105 -2.0060
11890TIP3   OH257160   2.169   6.724  13.941  0.8703 -0.1960  0.0988
11890TIP3    H157161   2.150   6.678  14.023 -0.7508  1.6214  0.8309
11890TIP3    H257162   2.265   6.725  13.936  1.1150  0.9756  2.8667
11891TIP3   OH257163   6.450   4.364  15.325 -0.5904  0.2983  0.0491
11891TIP3    H157164   6.521   4.335  15.382 -0.0347  0.8659 -0.3355
11891TIP3    H257165   6.403   4.429  15.377 -2.5077 -1.9951  1.3271
11892TIP3   OH257166   1.139   1.874  16.374 -0.5425 -0.0112  0.0749
11892TIP3    H157167   1.147   1.788  16.334 -0.4121 -0.8705  1.8550
11892TIP3    H257168   1.184   1.933  16.314 -1.9188 -0.8996 -1.9400
11893TIP3   OH257169   0.939   0.781  16.792 -0.1105 -0.7787  0.0226
11893TIP3    H157170   1.022   0.803  16.835  0.9189 -0.2072 -2.1433
11893TIP3    H257171   0.892   0.864  16.786 -0.2675 -0.8633  0.0586
11894TIP3   OH257172   4.459   4.090  13.261  0.1044 -0.1522  0.2835
11894TIP3    H157173   4.419   4.131  13.185  1.8073  1.6073  0.2729
11894TIP3    H257174   4.470   3.998  13.236 -1.9083 -0.2317 -0.4763
11895TIP3   OH257175   5.223   2.914  14.065 -0.0549 -0.1485  0.2637
11895TIP3    H157176   5.182   2.856  14.001  1.9197 -2.3056  0.7956
11895TIP3    H257177   5.316   2.892  14.061  0.5562  1.8709  1.6946
11896TIP3   OH257178   4.020   1.276  16.324 -0.2948 -0.7261 -0.5254
11896TIP3    H157179   3.927   1.295  16.315  0.1217  1.4974 -0.5891
11896TIP3    H257180   4.023   1.192  16.370 -2.3207 -0.4132  0.2707
11897TIP3   OH257181   2.430   2.890   5.854  0.3778 -0.3905  0.0718
11897TIP3    H157182   2.370   2.904   5.781  0.1528  2.3899  0.6516
11897TIP3    H257183   2.381   2.919   5.931  2.4670  2.3619  0.5194
11898TIP3   OH257184   5.724   3.330   0.605 -0.0849  0.2141  0.6279
11898TIP3    H157185   5.814   3.301   0.620 -0.3951 -0.5961  0.9930
11898TIP3    H257186   5.718   3.413   0.654  0.4147  0.1915  0.7370
11899TIP3   OH257187   1.884   0.967  14.740 -0.2491  0.2217  0.2634
11899TIP3    H157188   1.951   0.981  14.808 -0.8606  0.5108  0.8095
11899TIP3    H257189   1.838   0.888  14.768  1.1681 -1.2172 -1.1931
11900TIP3   OH257190   6.581   3.775  11.346 -0.1866  0.2352  0.6599
11900TIP3    H157191   6.510   3.832  11.376 -1.0155  0.0206 -0.7747
11900TIP3    H257192   6.557   3.753  11.256  1.7784  0.2387  0.0999
11901TIP3   OH257193   0.352   2.268   0.780  0.0496 -0.5476 -0.4059
11901TIP3    H157194   0.300   2.347   0.768  0.2213 -0.4927 -0.8092
11901TIP3    H257195   0.438   2.299   0.808  0.3538 -0.5368 -1.3104
11902TIP3   OH257196   2.529   3.558  12.828  0.2814 -0.4436  0.7096
11902TIP3    H157197   2.462   3.511  12.777 -0.4494  0.8795  0.4036
11902TIP3    H257198   2.525   3.518  12.915  1.7515 -2.9566 -0.2416
11903TIP3   OH257199   4.008   1.984   1.077 -0.3149 -0.0838 -0.0839
11903TIP3    H157200   4.030   1.935   0.997 -1.5310 -0.7810 -0.0214
11903TIP3    H257201   3.915   1.964   1.091 -0.0736 -0.1013  1.6053
11904TIP3   OH257202   4.270   2.898   2.313  0.7343 -0.3549 -0.2394
11904TIP3    H157203   4.365   2.913   2.312  0.7258  0.3013  2.1094
11904TIP3    H257204   4.258   2.831   2.381 -0.6893  1.8105  1.7836
11905TIP3   OH257205   3.055   0.328   5.208 -0.1176 -0.9819  0.6976
11905TIP3    H157206   3.123   0.360   5.268 -0.3442 -2.2326  1.6589
11905TIP3    H257207   3.098   0.258   5.159  0.4202  0.8016 -1.4960
11906TIP3   OH257208   0.243   1.253  12.177 -0.2708  0.1090 -0.1415
11906TIP3    H157209   0.148   1.247  12.183 -0.3947  1.8326  0.1441
11906TIP3    H257210   0.275   1.217  12.259 -0.9979  4.1909  2.2130
11907TIP3   OH257211   2.435   6.662   2.501  0.4118  0.4054  0.1179
11907TIP3    H157212   2.494   6.598   2.542  0.1355 -0.7484 -1.1877
11907TIP3    H257213   2.493   6.719   2.451  0.6291  0.9488  0.9743
11908TIP3   OH257214   3.263   1.328   0.656 -0.9034  0.0659 -0.0054
11908TIP3    H157215   3.218   1.411   0.649 -0.6454  0.1073 -1.6474
11908TIP3    H257216   3.332   1.332   0.589  0.1063 -0.8633  0.9204
11909TIP3   OH257217   1.416   1.138  10.786  0.0880  0.7341  0.8886
11909TIP3    H157218   1.342   1.197  10.805  0.2751  0.8676  1.2092
11909TIP3    H257219   1.425   1.141  10.691 -1.0027 -0.1116  0.7346
11910TIP3   OH257220   4.187   6.343  11.694  0.8372  0.9554  0.3218
11910TIP3    H157221   4.187   6.395  11.775 -1.6926  0.7442  0.5204
11910TIP3    H257222   4.234   6.263  11.717  1.0844  1.3592  1.2651
11911TIP3   OH257223   5.179   6.534   2.662 -0.4694 -0.1274 -0.2052
11911TIP3    H157224   5.198   6.618   2.704  1.6073 -0.9716  0.7078
11911TIP3    H257225   5.125   6.487   2.725  1.6070 -0.9081  1.1174
11912TIP3   OH257226   1.517   1.647   1.639 -0.6249 -0.0676  0.2950
11912TIP3    H157227   1.588   1.586   1.661 -1.3764 -1.5567 -1.1542
11912TIP3    H257228   1.539   1.678   1.551 -1.1512  0.3994  0.3290
11913TIP3   OH257229   4.628   1.509  15.369 -0.3522  0.1491 -0.0473
11913TIP3    H157230   4.622   1.522  15.274  0.7186 -0.4570 -0.2089
11913TIP3    H257231   4.549   1.459  15.391 -0.4257 -0.0240 -0.6764
11914TIP3   OH257232   4.471   3.524  16.424  0.1719 -0.4472  0.3350
11914TIP3    H157233   4.465   3.598  16.484 -4.2836 -0.0330 -0.2831
11914TIP3    H257234   4.423   3.454  16.467  1.8988 -2.1355 -0.3374
11915TIP3   OH257235   5.066   1.296  15.043 -0.8760  0.1477  1.0502
11915TIP3    H157236   5.147   1.339  15.017  0.5876 -0.3901  4.2647
11915TIP3    H257237   5.053   1.228  14.977 -0.3412  1.9821 -1.0916
11916TIP3   OH257238   6.765   5.442  16.963 -0.7751  0.0327 -0.5353
11916TIP3    H157239   6.691   5.436  16.903 -0.6183  0.7288 -0.8077
11916TIP3    H257240   6.751   5.371  17.026 -1.1960 -0.3994 -1.1054
11917TIP3   OH257241   6.753   6.186   0.925 -0.2568 -0.2857 -0.2026
11917TIP3    H157242   6.787   6.143   1.003  0.1369 -3.1353 -1.7685
11917TIP3    H257243   6.668   6.221   0.951  0.3433 -0.1997  1.7446
11918TIP3   OH257244   6.812   5.816   6.287  0.7841  0.3411 -0.8652
11918TIP3    H157245   6.845   5.790   6.373  0.5626 -0.6254 -1.0523
11918TIP3    H257246   6.724   5.777   6.283  0.0383  1.9260 -0.8103
11919TIP3   OH257247   0.498   1.204   1.009 -0.1108  0.5325  0.5146
11919TIP3    H157248   0.578   1.256   1.016  0.2323 -0.1865  2.6821
11919TIP3    H257249   0.459   1.207   1.096 -0.3749 -2.3086  0.5929
11920TIP3   OH257250   6.205   3.454  11.948 -0.0368  0.1349 -0.2717
11920TIP3    H157251   6.242   3.428  11.863 -1.5910 -0.1330 -0.9009
11920TIP3    H257252   6.111   3.447  11.936 -0.2769 -0.7867  1.7695
11921TIP3   OH257253   4.328   6.565   0.635  0.2688  0.2227  0.0847
11921TIP3    H157254   4.382   6.507   0.581  1.0155 -0.5152  1.5705
11921TIP3    H257255   4.301   6.510   0.709 -1.0201  1.1092  0.2985
11922TIP3   OH257256   3.201   4.114  16.349  0.5074  0.3230 -0.0713
11922TIP3    H157257   3.236   4.059  16.418  1.3077  0.4163 -0.3903
11922TIP3    H257258   3.132   4.165  16.391  1.7611  1.2430  0.9624
11923TIP3   OH257259   0.675   2.776  13.147  0.7554 -0.8335  0.1366
11923TIP3    H157260   0.718   2.702  13.189  1.9479  0.7640  1.9152
11923TIP3    H257261   0.708   2.776  13.058  1.2007 -2.0667  0.2833
11924TIP3   OH257262   6.392   2.582  16.871 -0.2679  0.2507 -0.2788
11924TIP3    H157263   6.389   2.537  16.786 -0.6562 -1.4999  0.6259
11924TIP3    H257264   6.476   2.629  16.870  0.6150 -1.2829 -0.8769
11925TIP3   OH257265   4.033   6.518  12.160 -0.3311 -0.5051  0.2828
11925TIP3    H157266   3.958   6.474  12.199 -0.4411  0.3021  1.0028
11925TIP3    H257267   4.106   6.498  12.219 -0.5072  0.7566  0.9795
11926TIP3   OH257268   5.571   4.103  11.659  0.9740 -0.0148 -0.2750
11926TIP3    H157269   5.650   4.056  11.684  2.1232  1.2395 -1.4063
11926TIP3    H257270   5.599   4.194  11.647 -1.1359  1.0043  1.7172
11927TIP3   OH257271   1.598   1.048   2.943 -0.1779 -0.0592  0.1665
11927TIP3    H157272   1.687   1.014   2.931  0.0530 -0.6748  2.9855
11927TIP3    H257273   1.579   1.095   2.862  1.4150 -2.6928 -1.8909
11928TIP3   OH257274   2.794   6.524  11.273 -0.5285 -0.5351 -0.3246
11928TIP3    H157275   2.841   6.606  11.287  2.1625 -1.8356 -1.0939
11928TIP3    H257276   2.785   6.487  11.360 -0.2527 -0.1956 -0.1480
11929TIP3   OH257277   4.413   2.656   3.498 -0.2210 -0.3358 -0.0730
11929TIP3    H157278   4.364   2.645   3.579  2.2577  1.1900  1.7720
11929TIP3    H257279   4.448   2.569   3.478 -1.2588 -0.8242  0.1758
11930TIP3   OH257280   5.423   3.920   0.819 -0.1221  0.6366  0.7396
11930TIP3    H157281   5.442   3.917   0.913  1.6762  0.9144  0.4291
11930TIP3    H257282   5.487   3.981   0.783 -1.2245  1.0708 -0.5941
11931TIP3   OH257283   1.768   1.915   1.373  0.8669 -0.2814 -0.0312
11931TIP3    H157284   1.699   1.964   1.329  0.3003 -1.2395 -0.2375
11931TIP3    H257285   1.722   1.867   1.443  1.4804 -0.1454  0.4720
11932TIP3   OH257286   2.299   1.623  12.604 -0.5677 -0.6035 -0.0953
11932TIP3    H157287   2.279   1.688  12.537  0.8465 -0.0719 -0.0457
11932TIP3    H257288   2.229   1.632  12.669  0.9786  2.8761  1.3146
11933TIP3   OH257289   5.447   1.088  12.868  0.4370 -0.0686  0.2110
11933TIP3    H157290   5.375   1.029  12.846  0.7100 -0.5862  0.6942
11933TIP3    H257291   5.475   1.124  12.783  0.3824 -0.7619 -0.1083
11934TIP3   OH257292   3.184   5.453   0.558 -0.8496  0.2741  0.3730
11934TIP3    H157293   3.134   5.530   0.531 -0.3301  0.1251 -1.1453
11934TIP3    H257294   3.243   5.485   0.626 -0.5453  1.2537 -0.3314
11935TIP3   OH257295   4.748   2.637  16.907  0.6513 -0.4271 -0.3308
11935TIP3    H157296   4.667   2.643  16.857  1.0329  1.3616 -0.7996
11935TIP3    H257297   4.721   2.600  16.992 -0.7913  0.7599 -0.2230
11936TIP3   OH257298   6.385   1.821   1.288  0.3563 -0.3376 -0.0311
11936TIP3    H157299   6.390   1.851   1.198  0.6485  0.4540  0.2373
11936TIP3    H257300   6.294   1.795   1.300  0.3004 -0.3804 -0.5283
11937TIP3   OH257301   1.820   5.370  13.904  0.0252 -0.1732 -0.1618
11937TIP3    H157302   1.790   5.308  13.837 -0.5510 -0.4745  0.3671
11937TIP3    H257303   1.910   5.343  13.923 -0.2276 -0.8743  0.0779
11938TIP3   OH257304   5.614   1.603   5.481  0.1407  0.3633  0.7947
11938TIP3    H157305   5.676   1.634   5.416 -0.5226 -0.1453 -0.1117
11938TIP3    H257306   5.529   1.636   5.451 -0.1233  0.4879  1.6461
11939TIP3   OH257307   0.681   2.090  13.623  0.2254  0.3065  0.3005
11939TIP3    H157308   0.631   2.171  13.633 -1.5354 -0.5567 -1.0242
11939TIP3    H257309   0.637   2.028  13.682 -0.4147 -0.5065 -1.0046
11940TIP3   OH257310   3.542   3.784  16.168 -0.1446 -0.1331  0.3470
11940TIP3    H157311   3.584   3.845  16.228  0.1766  0.2020 -0.2079
11940TIP3    H257312   3.477   3.738  16.221  0.6460 -0.3768  1.1155
11941TIP3   OH257313   1.022   2.086  13.182  0.2812 -0.2556  0.1994
11941TIP3    H157314   1.022   2.165  13.129  0.9406 -0.2623  0.1800
11941TIP3    H257315   1.098   2.096  13.240  2.1164 -2.1182 -1.7013
11942TIP3   OH257316   6.531   6.551  13.724 -0.2315 -0.0915  0.3013
11942TIP3    H157317   6.507   6.459  13.710  0.0134 -0.2605  0.9653
11942TIP3    H257318   6.486   6.575  13.805  1.3209 -0.2368  1.2453
11943TIP3   OH257319   5.610   4.247   1.574  0.2813 -0.0434 -0.3326
11943TIP3    H157320   5.570   4.171   1.532  2.6890 -1.6025  0.0082
11943TIP3    H257321   5.694   4.215   1.606  1.0242  2.5815  0.5670
11944TIP3   OH257322   5.574   6.463  14.246  0.0633  0.3571 -0.0455
11944TIP3    H157323   5.583   6.464  14.150  0.4166  2.5975 -0.0406
11944TIP3    H257324   5.582   6.555  14.272  0.8873 -0.3002  2.2417
11945TIP3   OH257325   5.627   0.093  12.421 -0.1444  0.5721 -0.0830
11945TIP3    H157326   5.589   0.006  12.407  0.3610  0.2111  0.7501
11945TIP3    H257327   5.606   0.115  12.512  0.9584  0.7018  0.1579
11946TIP3   OH257328   5.232   2.782   4.367 -0.0482  0.3379  0.0852
11946TIP3    H157329   5.175   2.856   4.346  0.8123  0.9377 -0.1787
11946TIP3    H257330   5.176   2.723   4.418 -1.2831  0.2684 -1.3031
11947TIP3   OH257331   6.337   6.679   1.202 -0.1194 -0.4641 -0.1792
11947TIP3    H157332   6.323   6.745   1.134 -0.6254 -1.8845 -1.5376
11947TIP3    H257333   6.431   6.660   1.199  0.1391  0.6352  0.6679
11948TIP3   OH257334   3.442   1.165   0.011  0.7056 -0.2407 -0.3492
11948TIP3    H157335   3.396   1.085   0.039 -1.2295  1.3104  1.1420
11948TIP3    H257336   3.386   1.202  -0.057  1.1563  0.2759 -0.4426
11949TIP3   OH257337   2.318   2.631  11.190  0.0136 -0.2891  0.0542
11949TIP3    H157338   2.406   2.603  11.212  0.0638  0.5459  0.9891
11949TIP3    H257339   2.284   2.562  11.133  1.5748 -0.1907 -1.0454
11950TIP3   OH257340   1.732   6.457  16.233  0.1116  0.2857  0.6246
11950TIP3    H157341   1.673   6.532  16.242  0.9536  1.1894 -0.9898
11950TIP3    H257342   1.813   6.494  16.199  0.7763 -1.2738  0.4290
11951TIP3   OH257343   3.257   5.320   5.543  0.5332  0.7861 -0.0165
11951TIP3    H157344   3.242   5.287   5.454  1.5219 -0.1089  0.1237
11951TIP3    H257345   3.320   5.392   5.532  0.0015  1.2434 -0.1137
11952TIP3   OH257346   1.180   0.053  14.136 -0.7121  0.4831  0.0603
11952TIP3    H157347   1.096   0.085  14.103 -1.3661 -0.0543  1.1779
11952TIP3    H257348   1.175  -0.042  14.124 -0.1201  0.4768 -0.1695
11953TIP3   OH257349   5.554   3.159   0.448 -0.0239 -0.0752 -0.8996
11953TIP3    H157350   5.591   3.072   0.433  0.5840  0.3365 -1.8275
11953TIP3    H257351   5.612   3.199   0.513 -0.4383 -0.4371 -0.2969
11954TIP3   OH257352   4.391   3.047   0.507  0.8468  0.2244  0.0112
11954TIP3    H157353   4.385   3.127   0.455 -0.1803 -0.8399 -1.5812
11954TIP3    H257354   4.444   2.987   0.455  0.9430 -0.4148  0.8140
11955TIP3   OH257355   2.314   5.913   1.523  0.2128 -0.1083 -0.1920
11955TIP3    H157356   2.385   5.886   1.582 -0.7268  1.8410  1.9736
11955TIP3    H257357   2.243   5.939   1.581 -1.9338 -0.9333 -2.2823
11956TIP3   OH257358   3.657   4.416  17.156 -0.1817  0.0045 -0.1999
11956TIP3    H157359   3.575   4.383  17.119  0.1062  1.0038 -1.8389
11956TIP3    H257360   3.724   4.388  17.093  1.2834 -3.3084  2.4772
11957TIP3   OH257361   6.296   4.167  15.654 -0.3477  0.3489 -0.0331
11957TIP3    H157362   6.306   4.071  15.657 -0.2800  0.2500 -1.9360
11957TIP3    H257363   6.380   4.201  15.684  0.5628 -0.2689 -1.7257
11958TIP3   OH257364   5.569   0.761  11.724 -0.1470 -0.0079  0.3338
11958TIP3    H157365   5.541   0.829  11.663 -0.5574  0.7265  1.3083
11958TIP3    H257366   5.565   0.803  11.810  2.8243 -0.2064  0.6823
11959TIP3   OH257367   2.934   5.805  17.131  0.5545 -0.1915  0.1443
11959TIP3    H157368   2.931   5.710  17.126 -1.2554 -0.2225  1.0133
11959TIP3    H257369   2.982   5.823  17.212  0.1551 -0.3795  0.4228
11960TIP3   OH257370   0.022   6.740   1.954 -0.8668 -0.6138 -0.3781
11960TIP3    H157371   0.075   6.770   2.028  0.3754 -0.4328 -1.2961
11960TIP3    H257372   0.021   6.645   1.963 -1.2782 -0.5611  0.2205
11961TIP3   OH257373   5.008   6.661  16.882 -0.6671  0.0437  0.3870
11961TIP3    H157374   5.069   6.680  16.953 -0.1324 -0.6318  0.1259
11961TIP3    H257375   5.054   6.595  16.828 -2.4342 -2.0671  1.3250
11962TIP3   OH257376   1.345   3.016  15.745  0.6643  0.3626  0.3127
11962TIP3    H157377   1.305   3.077  15.806  0.0453 -1.3238  1.6983
11962TIP3    H257378   1.433   3.002  15.779  0.9380  0.7389 -0.2171
11963TIP3   OH257379   5.627   2.196   1.269  0.0647 -0.0708  0.6356
11963TIP3    H157380   5.659   2.158   1.188 -1.6217 -0.0047 -0.0941
11963TIP3    H257381   5.705   2.235   1.310  0.4513  3.3099 -2.7760
11964TIP3   OH257382   6.811   1.622  16.086 -0.1081  0.5277 -0.3646
11964TIP3    H157383   6.727   1.615  16.132 -1.2876  1.6839 -2.2005
11964TIP3    H257384   6.876   1.622  16.155 -1.8217  3.1766  1.4815
11965TIP3   OH257385   3.802   3.456  15.696 -0.1680  0.5001  0.1104
11965TIP3    H157386   3.734   3.463  15.763  0.3175  0.6078  0.6016
11965TIP3    H257387   3.770   3.509  15.623 -0.4790  0.7836  0.4512
11966TIP3   OH257388   1.698   3.087  14.703  0.3060 -0.0410  0.2289
11966TIP3    H157389   1.673   2.996  14.720  0.1648 -0.3425 -1.4622
11966TIP3    H257390   1.742   3.085  14.618 -2.0142  1.8061 -1.1460
11967TIP3   OH257391   0.855   3.351  11.857 -0.3451  0.7097 -0.0436
11967TIP3    H157392   0.919   3.422  11.866 -1.1225  1.2968  1.1260
11967TIP3    H257393   0.790   3.369  11.925 -2.2482  0.6530 -1.7612
11968TIP3   OH257394   0.472   0.424   5.306 -0.4028  0.2125 -0.6198
11968TIP3    H157395   0.440   0.509   5.275  0.5643  1.1755  0.8827
11968TIP3    H257396   0.398   0.365   5.295 -2.3340  2.0343  1.4487
11969TIP3   OH257397   1.490   6.306  13.269 -0.1211 -0.4868 -0.3203
11969TIP3    H157398   1.479   6.373  13.202 -0.2775  0.9421  1.0938
11969TIP3    H257399   1.416   6.318  13.329  0.1116 -1.6128  0.2332
11970TIP3   OH257400   1.314   4.039   2.128 -0.0314  0.5167 -0.0421
11970TIP3    H157401   1.352   3.977   2.065 -1.2316 -2.2371  1.7438
11970TIP3    H257402   1.221   4.039   2.108 -0.1701  1.0620  0.5837
11971TIP3   OH257403   3.226   0.815  16.893  0.4611 -0.3631 -0.1460
11971TIP3    H157404   3.259   0.905  16.893 -0.1734 -0.1270  0.1431
11971TIP3    H257405   3.241   0.784  16.803 -2.3094  1.1742 -1.2540
11972TIP3   OH257406   6.142   0.124  16.314  0.0918  0.2306  0.1635
11972TIP3    H157407   6.058   0.167  16.297  0.6873  1.1952 -0.4091
11972TIP3    H257408   6.120   0.031  16.316 -0.6682  0.2585 -2.3298
11973TIP3   OH257409   0.441   5.083   0.356 -0.4818  0.1855 -0.3867
11973TIP3    H157410   0.441   5.022   0.282  3.6747  1.6314 -1.8366
11973TIP3    H257411   0.369   5.143   0.336 -0.9220 -0.8050 -2.0286
11974TIP3   OH257412   3.599   1.764  17.178  0.4792 -0.0417  0.0004
11974TIP3    H157413   3.615   1.844  17.129  2.2071 -0.3484  0.0002
11974TIP3    H257414   3.681   1.715  17.171 -0.0852 -1.2004  1.1303
11975TIP3   OH257415   6.285   3.641  13.764  0.2220  0.8403  0.0162
11975TIP3    H157416   6.269   3.660  13.856  1.7830  0.1902  0.4657
11975TIP3    H257417   6.335   3.559  13.765  0.5755  1.0093 -1.3790
11976TIP3   OH257418   3.595   2.889  12.058  0.0647 -0.1201 -0.1743
11976TIP3    H157419   3.526   2.949  12.028 -1.2882 -2.4895 -2.1833
11976TIP3    H257420   3.562   2.856  12.142  0.4902  1.3586  0.6026
11977TIP3   OH257421   3.747   2.488   5.839  0.8523 -0.2198 -0.4727
11977TIP3    H157422   3.705   2.572   5.819  3.1415  0.8349 -1.1079
11977TIP3    H257423   3.682   2.441   5.892 -1.1256  1.2619 -1.4420
11978TIP3   OH257424   4.325   1.593  14.209 -0.4222  0.0365  0.8253
11978TIP3    H157425   4.392   1.535  14.245  0.3901  0.1924 -0.4059
11978TIP3    H257426   4.266   1.535  14.161  0.3450  0.2082 -0.3382
11979TIP3   OH257427   2.533   3.277  13.951  0.4185 -0.1850 -0.5558
11979TIP3    H157428   2.534   3.190  13.991  1.7181  0.4063  0.8124
11979TIP3    H257429   2.466   3.325  13.999  1.2580  0.2149  0.2424
11980TIP3   OH257430   5.794   2.837  12.031  0.3348 -0.3697 -0.2533
11980TIP3    H157431   5.826   2.807  12.117  0.9761 -0.1736 -0.4204
11980TIP3    H257432   5.701   2.815  12.032 -0.1503  1.4819  1.3140
11981TIP3   OH257433   4.227   1.359   3.222 -0.1972  0.5493 -0.0792
11981TIP3    H157434   4.230   1.310   3.140  0.6812 -0.6022  0.6143
11981TIP3    H257435   4.179   1.303   3.282 -0.5701  1.2534  0.2953
11982TIP3   OH257436   1.796   2.214   5.217 -0.2754 -0.2739  0.2876
11982TIP3    H157437   1.785   2.309   5.220  1.4235 -0.0482  0.7329
11982TIP3    H257438   1.829   2.191   5.303 -0.9036 -1.3141  0.2585
11983TIP3   OH257439   1.719   5.575  10.683  0.3656 -0.1410  0.2039
11983TIP3    H157440   1.675   5.573  10.768 -0.5394 -1.4071 -0.2593
11983TIP3    H257441   1.727   5.668  10.662 -1.8472  0.1632  0.4469
11984TIP3   OH257442   5.651   0.545  11.583  0.6506  0.2671  0.1544
11984TIP3    H157443   5.612   0.618  11.632  0.5888  0.4010 -0.0943
11984TIP3    H257444   5.729   0.522  11.633 -1.2145 -1.9114  2.2961
11985TIP3   OH257445   2.579   0.773  16.687  0.2653 -0.0735  0.0159
11985TIP3    H157446   2.575   0.866  16.710 -1.6893  0.0020 -0.4574
11985TIP3    H257447   2.572   0.727  16.770 -3.4079  0.2304  0.0515
11986TIP3   OH257448   4.888   4.840  15.613 -0.9025 -0.0420 -0.1932
11986TIP3    H157449   4.798   4.869  15.622 -0.7691  0.7351 -1.2367
11986TIP3    H257450   4.882   4.744  15.612 -1.8001  0.0097 -1.0074
11987TIP3   OH257451   2.802   6.731   2.654 -0.1560  0.7764 -0.1418
11987TIP3    H157452   2.765   6.812   2.618  0.8812  0.8982 -0.9778
11987TIP3    H257453   2.885   6.720   2.608 -0.3741 -0.8794 -0.1917
11988TIP3   OH257454   5.325   5.332   0.360 -0.1372 -0.2085  0.7006
11988TIP3    H157455   5.313   5.398   0.292  1.8139 -2.5529 -2.1735
11988TIP3    H257456   5.249   5.275   0.351  0.5093 -0.9652 -0.1324
11989TIP3   OH257457   0.229   6.374   5.286  0.4779 -0.2228 -0.1439
11989TIP3    H157458   0.180   6.404   5.209 -0.5948 -0.3306  0.4904
11989TIP3    H257459   0.252   6.455   5.333  0.8783 -0.1768 -0.4105
11990TIP3   OH257460   4.357   2.200  16.076  0.2166 -0.3791  0.1591
11990TIP3    H157461   4.391   2.253  16.148 -0.4325 -0.5327  0.5886
11990TIP3    H257462   4.412   2.223  16.001  1.6725 -1.0887  0.9649
11991TIP3   OH257463   1.998   5.261  12.271  0.0297  0.6209  0.1876
11991TIP3    H157464   1.980   5.306  12.353  0.0124  0.7421  0.1186
11991TIP3    H257465   1.953   5.314  12.204  3.6139  3.1476 -0.5278
11992TIP3   OH257466   6.746   4.937   3.279  0.4631  0.2531  0.3619
11992TIP3    H157467   6.765   4.863   3.336  1.2795  0.1057 -0.0825
11992TIP3    H257468   6.697   4.900   3.207  0.5563  0.2078  0.3216
11993TIP3   OH257469   1.988   6.555   2.114  0.2591  0.4287 -0.2288
11993TIP3    H157470   1.933   6.502   2.171  2.0831 -1.2269  0.1003
11993TIP3    H257471   2.066   6.574   2.167  1.4667 -0.1408 -1.7289
11994TIP3   OH257472   5.750   4.550   5.589 -0.3048 -0.0088  0.2289
11994TIP3    H157473   5.765   4.460   5.615  1.1818 -0.0330 -0.5919
11994TIP3    H257474   5.782   4.555   5.498 -2.8540  0.6971 -0.7301
11995TIP3   OH257475   3.971   3.828   4.997  0.3491 -0.1259 -0.4160
11995TIP3    H157476   3.937   3.910   4.961  0.4810 -0.4653 -1.3327
11995TIP3    H257477   3.924   3.759   4.950 -0.0893 -0.5929  0.6632
11996TIP3   OH257478   3.725   2.148   2.106  0.1019 -0.3197  0.1681
11996TIP3    H157479   3.732   2.239   2.136  0.3655 -0.1954 -0.2512
11996TIP3    H257480   3.813   2.127   2.074 -0.1003 -0.5333 -0.2595
11997TIP3   OH257481   5.467   6.809   3.903  0.1158  0.2416 -0.0986
11997TIP3    H157482   5.424   6.759   3.834 -0.0084  1.0077 -0.5884
11997TIP3    H257483   5.437   6.769   3.984  1.0817 -1.3582 -0.4751
11998TIP3   OH257484   4.124   6.266   2.490 -0.3391 -0.0279  0.0612
11998TIP3    H157485   4.093   6.253   2.400 -0.6733 -0.7350  0.2723
11998TIP3    H257486   4.211   6.305   2.480 -0.2516 -0.3735 -0.5736
11999TIP3   OH257487   1.533   0.678   0.808 -0.4637  0.2125  0.2340
11999TIP3    H157488   1.504   0.698   0.719 -0.1609  0.4029  0.1761
11999TIP3    H257489   1.471   0.724   0.864  0.1465  1.2229  0.1032
12000TIP3   OH257490   3.300   0.637   4.181  0.1245 -0.0085 -0.3116
12000TIP3    H157491   3.251   0.566   4.140 -0.4720  0.4109 -0.3477
12000TIP3    H257492   3.241   0.713   4.175  0.4276  0.2943  0.4331
12001TIP3   OH257493   1.034   1.711   3.183  0.0417 -0.2287  0.0252
12001TIP3    H157494   1.033   1.794   3.231 -1.2235  0.2525 -0.8097
12001TIP3    H257495   0.944   1.699   3.153  0.2182 -1.8786  0.0703
12002TIP3   OH257496   3.331   5.243   4.141 -0.0608 -0.3480  0.0637
12002TIP3    H157497   3.290   5.157   4.135  0.5391 -0.6754  0.5365
12002TIP3    H257498   3.352   5.254   4.233  0.3386  0.0838 -0.0729
12003TIP3   OH257499   0.727   0.189  12.975  0.0398  0.0340 -0.6124
12003TIP3    H157500   0.679   0.219  13.053 -0.4528 -2.1200 -0.0280
12003TIP3    H257501   0.744   0.269  12.926 -0.3904  1.3629  1.2845
12004TIP3   OH257502   2.411   0.846  14.566 -0.0826  0.4742 -0.9675
12004TIP3    H157503   2.437   0.917  14.625 -1.9885  1.1177 -0.8307
12004TIP3    H257504   2.352   0.888  14.503 -1.3258 -0.9828 -0.8285
12005TIP3   OH257505   4.419   1.886  11.408  0.4539 -0.2518  0.0407
12005TIP3    H157506   4.405   1.974  11.444  2.9187  1.0330 -1.8757
12005TIP3    H257507   4.336   1.864  11.366 -0.3351  0.9921  0.8740
12006TIP3   OH257508   6.509   4.258  11.580  0.4664 -0.6492  0.1520
12006TIP3    H157509   6.453   4.317  11.630 -0.2632  0.6045 -2.0207
12006TIP3    H257510   6.450   4.190  11.547  0.8804 -1.2787  0.6746
12007TIP3   OH257511   6.236   6.137  14.946 -0.5268 -0.3894 -0.4505
12007TIP3    H157512   6.204   6.108  15.031  0.0809 -0.7514 -0.3428
12007TIP3    H257513   6.274   6.059  14.906 -0.7732 -0.2132 -1.0431
12008TIP3   OH257514   3.046   1.154  12.515  0.2206 -0.0703 -0.3569
12008TIP3    H157515   3.087   1.127  12.598  2.4578 -0.8231 -1.6299
12008TIP3    H257516   3.036   1.249  12.524  0.9606 -0.0577  0.5505
12009TIP3   OH257517   3.138   1.936   5.812 -0.4011 -0.2934 -0.8059
12009TIP3    H157518   3.123   1.993   5.887 -1.5719 -0.8086 -0.6247
12009TIP3    H257519   3.073   1.866   5.821  0.2975 -1.0721 -1.6013
12010TIP3   OH257520   5.379   4.469   4.858  0.0817  0.5015  0.0346
12010TIP3    H157521   5.359   4.540   4.920 -3.2330  1.1387 -1.5444
12010TIP3    H257522   5.321   4.398   4.883  1.4337 -0.7068 -0.0912
12011TIP3   OH257523   3.944   1.118   2.484  0.4342  0.0711 -0.1832
12011TIP3    H157524   4.039   1.108   2.477  0.4856  1.0809 -1.0590
12011TIP3    H257525   3.912   1.028   2.498  1.3660 -0.5648 -1.8348
12012TIP3   OH257526   0.997   1.318   5.154  0.0840 -0.1477 -0.6200
12012TIP3    H157527   0.922   1.277   5.197 -2.7929  2.7338 -2.4645
12012TIP3    H257528   1.042   1.365   5.224 -0.4312 -1.0411  0.3380
12013TIP3   OH257529   0.718   3.723  12.505 -0.0209 -0.1821  0.7201
12013TIP3    H157530   0.720   3.725  12.409 -0.3524 -3.1547  0.5670
12013TIP3    H257531   0.699   3.813  12.530  0.1719  0.7062 -1.9936
12014TIP3   OH257532   1.622   0.872   0.138  0.0704  0.8260  0.1792
12014TIP3    H157533   1.576   0.798   0.099  0.6724  0.8053 -0.5082
12014TIP3    H257534   1.652   0.924   0.064 -2.1944  2.9652  0.6317
12015TIP3   OH257535   5.635   3.481   2.729  0.2534 -0.3222 -0.4066
12015TIP3    H157536   5.658   3.416   2.796  2.4428  1.3660  0.6110
12015TIP3    H257537   5.718   3.524   2.708 -1.2852  3.2923  0.2307
12016TIP3   OH257538   1.231   5.936  16.921 -0.1694  0.2906  0.1727
12016TIP3    H157539   1.221   5.898  16.834  0.3659 -1.0332  0.6772
12016TIP3    H257540   1.152   5.908  16.968 -1.4605  2.6479 -0.4306
12017TIP3   OH257541   6.465   5.156  13.760  0.0264  0.2610  0.4629
12017TIP3    H157542   6.398   5.216  13.793 -0.5909 -0.3650  0.3575
12017TIP3    H257543   6.498   5.198  13.681 -0.5336  0.3736  0.2866
12018TIP3   OH257544   0.546   5.392   5.786 -0.0097  0.0666  0.1454
12018TIP3    H157545   0.467   5.433   5.752 -1.8825 -0.6543  3.2357
12018TIP3    H257546   0.553   5.309   5.739 -0.8576  0.3277 -0.4491
12019TIP3   OH257547   6.101   1.334  16.811  0.1589  0.2740  0.2307
12019TIP3    H157548   6.111   1.422  16.775  0.4234  0.3920  0.5884
12019TIP3    H257549   6.011   1.332  16.844  0.4716  0.7486  1.1202
12020TIP3   OH257550   6.711   2.267  11.637  0.1712 -0.2816  0.5442
12020TIP3    H157551   6.685   2.180  11.668 -0.9077 -0.1969 -0.0677
12020TIP3    H257552   6.634   2.299  11.591  1.1716  0.2791 -0.7903
12021TIP3   OH257553   1.536   3.191  16.686 -0.3784 -0.4579 -0.8675
12021TIP3    H157554   1.596   3.265  16.695 -0.6659 -0.4937  3.3734
12021TIP3    H257555   1.588   3.115  16.712 -1.2201 -1.0732 -0.9599
12022TIP3   OH257556   1.710   3.489   5.516  0.0293 -0.3110  0.1812
12022TIP3    H157557   1.695   3.394   5.511  0.1909 -0.3139 -0.3895
12022TIP3    H257558   1.792   3.502   5.468 -1.0654  0.3574 -1.6036
12023TIP3   OH257559   2.276   4.591  12.509  0.1536  0.2271  0.6817
12023TIP3    H157560   2.247   4.608  12.419  0.3376  2.4297  0.9947
12023TIP3    H257561   2.326   4.509  12.503 -0.1928  0.1031 -1.1290
12024TIP3   OH257562   1.546   2.298  11.613 -0.2084  0.2271  0.0830
12024TIP3    H157563   1.587   2.213  11.628 -1.5470 -0.6439 -0.8566
12024TIP3    H257564   1.557   2.346  11.695  1.6014 -0.3803  0.2384
12025TIP3   OH257565   6.624   3.279  17.014 -0.1020 -0.3596  0.1561
12025TIP3    H157566   6.675   3.337  16.956 -1.9013  1.0359 -0.1183
12025TIP3    H257567   6.664   3.193  17.002  0.2134  0.0629 -2.4360
12026TIP3   OH257568   3.751   2.970  12.415 -0.4865  0.2977  0.6143
12026TIP3    H157569   3.777   2.887  12.456 -0.3582  1.2972  2.6697
12026TIP3    H257570   3.660   2.955  12.389 -0.3104 -0.6472  0.4873
12027TIP3   OH257571   0.293   3.495  15.676 -0.4012  0.0676 -0.2133
12027TIP3    H157572   0.249   3.495  15.591  2.5868  1.0918 -1.9155
12027TIP3    H257573   0.300   3.587  15.699  2.5017  0.1712 -1.0813
12028TIP3   OH257574   5.379   1.744  12.089 -0.1595  0.2452 -0.3499
12028TIP3    H157575   5.335   1.783  12.164 -1.3547 -2.5391  0.5189
12028TIP3    H257576   5.462   1.711  12.124  0.3145  0.9175 -0.8065
12029TIP3   OH257577   3.686   6.005   2.155  0.3390  0.0396 -0.0151
12029TIP3    H157578   3.649   5.927   2.196 -1.5697  0.8154 -0.1559
12029TIP3    H257579   3.668   6.075   2.217 -0.8810  0.8924 -1.2832
12030TIP3   OH257580   6.701   6.434   5.395 -0.1574 -0.5349  0.2784
12030TIP3    H157581   6.750   6.419   5.314  0.3562  0.3591  0.4153
12030TIP3    H257582   6.707   6.528   5.410 -3.1327 -0.1139 -0.4857
12031TIP3   OH257583   1.495   4.743   4.471 -0.4463 -0.1649  0.6239
12031TIP3    H157584   1.550   4.794   4.530  0.3896  0.9743 -1.0706
12031TIP3    H257585   1.544   4.663   4.456  0.7458  0.7699 -0.7415
12032TIP3   OH257586   1.253   0.946   2.058  0.3804  0.5977 -0.1854
12032TIP3    H157587   1.183   0.905   2.006  2.2683 -2.2325 -0.7107
12032TIP3    H257588   1.208   0.979   2.136 -1.5243 -1.5143 -0.2697
12033TIP3   OH257589   5.429   4.716   1.884 -0.0429  0.6078 -0.3118
12033TIP3    H157590   5.345   4.758   1.900 -0.7876 -0.7224 -0.5314
12033TIP3    H257591   5.445   4.731   1.790 -1.7657 -1.9526 -1.1469
12034TIP3   OH257592   1.626   3.528  11.154 -0.5439 -0.1773  0.0151
12034TIP3    H157593   1.663   3.477  11.082 -1.9795 -1.1739 -0.0654
12034TIP3    H257594   1.663   3.488  11.233  0.1746  0.2105 -0.1141
12035TIP3   OH257595   6.393   1.115  16.620 -0.5584 -0.3452 -0.1068
12035TIP3    H157596   6.359   1.204  16.615 -1.2599 -0.6839 -2.3205
12035TIP3    H257597   6.424   1.106  16.711  0.7971  2.5731 -0.1835
12036TIP3   OH257598   1.918   5.917  15.656  0.3951 -0.0226 -0.2170
12036TIP3    H157599   1.846   5.975  15.633 -0.1435 -0.7621 -0.4427
12036TIP3    H257600   1.877   5.844  15.702  0.8755 -0.8868 -1.1115
12037TIP3   OH257601   4.833   5.110  13.136  0.0674  0.7274  0.0046
12037TIP3    H157602   4.783   5.032  13.111 -0.2022  1.2606 -1.1839
12037TIP3    H257603   4.870   5.088  13.222 -0.6183 -0.4149  0.0311
12038TIP3   OH257604   4.100   6.248   3.272 -0.5278  0.0829  0.0816
12038TIP3    H157605   4.153   6.246   3.351 -0.3096  1.2363 -0.0193
12038TIP3    H257606   4.009   6.249   3.303 -0.4426  0.5046  0.3151
12039TIP3   OH257607   1.345   4.921  10.345 -0.1377  0.3727  0.4994
12039TIP3    H157608   1.400   4.856  10.389 -0.5905 -0.4973 -0.1735
12039TIP3    H257609   1.390   5.004  10.358  1.5737 -0.3575 -0.3584
12040TIP3   OH257610   6.035   4.346   4.618 -0.2929  0.1029 -0.5660
12040TIP3    H157611   6.120   4.335   4.576 -0.8594  0.6314 -1.9103
12040TIP3    H257612   6.051   4.407   4.689  0.3365  0.7396 -1.2365
12041TIP3   OH257613   1.104   3.605  13.170 -0.0268 -0.2861  0.3889
12041TIP3    H157614   1.111   3.510  13.172 -0.5798 -0.4332 -1.8130
12041TIP3    H257615   1.117   3.628  13.078  0.5906  1.8245  0.9529
12042TIP3   OH257616   3.447   4.392   2.058  0.3440  0.3596 -0.5424
12042TIP3    H157617   3.393   4.450   2.112  0.9948  0.6067 -0.1464
12042TIP3    H257618   3.452   4.310   2.107  0.0963  0.2406 -0.7141
12043TIP3   OH257619   3.278   6.377   1.240 -0.3550  0.0710  0.4212
12043TIP3    H157620   3.362   6.413   1.269  0.7460 -0.9868 -1.2509
12043TIP3    H257621   3.257   6.426   1.160  0.1665 -1.5057 -0.7609
12044TIP3   OH257622   6.202   6.760   4.679 -0.5133 -0.5143 -0.1872
12044TIP3    H157623   6.106   6.750   4.675 -0.7862  1.6045 -0.0991
12044TIP3    H257624   6.224   6.806   4.598  0.2280  0.1908  0.3983
12045TIP3   OH257625   4.830   5.307  13.806  0.2040 -0.1622 -0.2046
12045TIP3    H157626   4.757   5.357  13.770 -0.2360 -0.3473  0.4065
12045TIP3    H257627   4.865   5.258  13.732 -0.5229 -0.3465 -0.4346
12046TIP3   OH257628   2.269   3.055   1.179 -0.1184 -0.2291  0.1003
12046TIP3    H157629   2.362   3.044   1.159 -0.3147  0.5829 -1.4777
12046TIP3    H257630   2.265   3.067   1.274  1.3241 -0.7723  0.2467
12047TIP3   OH257631   3.905   2.258  14.498  0.3921  0.0158  0.1676
12047TIP3    H157632   3.854   2.201  14.440  1.4618  0.3808 -1.2061
12047TIP3    H257633   3.841   2.296  14.558 -0.4260 -2.2408  0.8373
12048TIP3   OH257634   5.688   2.560  11.968  0.2578  0.3082 -0.4829
12048TIP3    H157635   5.732   2.578  11.885 -2.4489  0.8490 -1.9176
12048TIP3    H257636   5.703   2.467  11.984  0.7761  0.1783 -1.6153
12049TIP3   OH257637   4.273   1.942   3.943 -1.2908 -0.0520 -0.0290
12049TIP3    H157638   4.280   1.865   4.000 -0.4232 -1.3628 -1.8039
12049TIP3    H257639   4.351   1.938   3.888 -1.8190  1.4777 -0.9531
12050TIP3   OH257640   1.900   1.615   1.468 -0.4106  0.0384  0.3098
12050TIP3    H157641   1.877   1.571   1.549  0.0805 -0.6777  0.0669
12050TIP3    H257642   1.936   1.700   1.496  0.3330 -0.4543  0.8698
12051TIP3   OH257643   2.516   3.680  13.992 -0.3738 -0.2382  0.0119
12051TIP3    H157644   2.487   3.594  13.963  0.4818 -1.4726  2.4907
12051TIP3    H257645   2.470   3.694  14.074  0.0751  1.3395  0.0164
12052TIP3   OH257646   3.314   5.974  15.362  0.4395  0.5246 -0.1960
12052TIP3    H157647   3.351   6.059  15.386 -1.6717  0.9337  2.0782
12052TIP3    H257648   3.219   5.988  15.363  0.0629 -1.6397 -0.6883
12053TIP3   OH257649   6.561   3.562   4.703  0.1054  0.3610  0.1094
12053TIP3    H157650   6.603   3.603   4.628  0.3195  0.0350  0.0523
12053TIP3    H257651   6.562   3.468   4.684  1.6288  0.1142  1.2564
12054TIP3   OH257652   1.369   6.622  12.985  0.1441 -0.0815 -0.2002
12054TIP3    H157653   1.344   6.657  13.070  1.3712 -0.0949  0.1957
12054TIP3    H257654   1.430   6.551  13.005  2.1086  1.2462 -1.0843
12055TIP3   OH257655   3.382   6.075  16.518  0.1107 -0.1481  0.2242
12055TIP3    H157656   3.420   6.002  16.567  0.4969 -0.0486  0.0763
12055TIP3    H257657   3.311   6.106  16.574  0.3575 -0.2265  0.5886
12056TIP3   OH257658   0.495   5.816  16.226  0.4337  0.4167  0.5359
12056TIP3    H157659   0.554   5.833  16.152  3.6697 -2.4235  2.1959
12056TIP3    H257660   0.448   5.737  16.201  2.3964 -1.2541  1.7731
12057TIP3   OH257661   3.691   3.640  15.520 -0.0649 -0.0111 -0.6658
12057TIP3    H157662   3.624   3.705  15.501 -0.8496 -0.4081  0.5943
12057TIP3    H257663   3.773   3.681  15.493 -0.5961  1.2924 -0.3940
12058TIP3   OH257664   1.916   4.286   2.620 -0.0517  0.1958  0.0243
12058TIP3    H157665   1.849   4.217   2.618 -0.0957  0.2257  0.3056
12058TIP3    H257666   1.987   4.252   2.567 -0.7321  0.6381 -1.1936
12059TIP3   OH257667   0.652   3.774   6.291 -0.2318 -0.1855  0.0582
12059TIP3    H157668   0.651   3.869   6.295 -0.7472 -0.1400 -0.9334
12059TIP3    H257669   0.666   3.746   6.381 -0.0675  0.8269  0.3525
12060TIP3   OH257670   3.138   1.926   2.985 -0.1532 -0.0106  0.6704
12060TIP3    H157671   3.061   1.899   3.034 -0.5640  1.4558  0.8706
12060TIP3    H257672   3.109   2.001   2.933  0.9675  0.1492  0.2416
12061TIP3   OH257673   0.553   0.030  13.388 -0.2177 -0.0815  0.2334
12061TIP3    H157674   0.527   0.034  13.296  1.0488  1.3553 -0.1100
12061TIP3    H257675   0.490   0.085  13.434 -0.0130  0.3556 -0.0049
12062TIP3   OH257676   2.762   1.295   2.385  0.5311  0.5605 -0.2811
12062TIP3    H157677   2.792   1.322   2.299 -0.4600 -0.7377 -1.0810
12062TIP3    H257678   2.679   1.249   2.368  0.0540  0.7291  1.4154
12063TIP3   OH257679   5.769   5.087   5.903  0.0342 -0.3041 -0.3172
12063TIP3    H157680   5.750   4.997   5.930  0.6112 -0.0094  1.1141
12063TIP3    H257681   5.833   5.118   5.966 -0.7527  1.3952 -0.3002
12064TIP3   OH257682   5.607   6.640   4.154  0.3085 -0.1998 -0.1487
12064TIP3    H157683   5.630   6.552   4.124  0.7980 -0.1760  0.1549
12064TIP3    H257684   5.512   6.638   4.163  0.2750 -0.5740 -0.5364
12065TIP3   OH257685   4.271   2.549   4.831 -0.3035  0.0030 -0.0666
12065TIP3    H157686   4.330   2.505   4.891  0.2693 -0.4030 -0.9143
12065TIP3    H257687   4.325   2.570   4.755 -0.9207  0.8632 -0.2807
12066TIP3   OH257688   0.221   1.905  15.276 -0.5104 -0.6402 -0.1689
12066TIP3    H157689   0.184   1.817  15.267  2.1397 -1.9511  0.4002
12066TIP3    H257690   0.284   1.911  15.204 -1.2948  1.2021 -0.7430
12067TIP3   OH257691   1.746   5.010  15.812  0.4476  0.2979  0.1612
12067TIP3    H157692   1.683   4.954  15.856  1.2748 -1.4629 -0.7517
12067TIP3    H257693   1.741   4.983  15.720  1.3742  1.2620 -0.1939
12068TIP3   OH257694   3.291   5.779   0.531 -0.1232 -0.3805  0.3101
12068TIP3    H157695   3.352   5.748   0.598 -0.8185  2.0764  2.2545
12068TIP3    H257696   3.320   5.868   0.512 -1.4590 -0.1439 -0.8194
12069TIP3   OH257697   5.316   2.520   2.242  0.1670 -0.6394  0.3762
12069TIP3    H157698   5.339   2.594   2.186 -0.0501 -0.8729 -0.0250
12069TIP3    H257699   5.223   2.532   2.260  0.0575 -0.9879  0.0462
12070TIP3   OH257700   1.884   6.634  11.651 -0.1577 -0.2074  0.1268
12070TIP3    H157701   1.967   6.655  11.694 -0.5498  0.1622  0.7096
12070TIP3    H257702   1.875   6.701  11.582  0.6224 -0.9878 -0.7540
12071TIP3   OH257703   0.024   4.055   3.549 -0.0701  0.4048  0.9369
12071TIP3    H157704  -0.020   4.022   3.627 -0.8167  0.0834  0.3881
12071TIP3    H257705  -0.013   4.005   3.477  1.4620 -0.1283  0.4824
12072TIP3   OH257706   2.240   2.595   3.891  0.5645 -0.4571 -0.0320
12072TIP3    H157707   2.253   2.527   3.956 -1.3021 -0.9955 -0.1611
12072TIP3    H257708   2.146   2.611   3.892  0.7441  0.8809 -1.2563
12073TIP3   OH257709   3.585   3.138   5.542  0.8564 -0.2193 -0.0242
12073TIP3    H157710   3.507   3.102   5.500  2.6052 -2.3203 -1.7704
12073TIP3    H257711   3.553   3.209   5.597 -2.3113 -1.3637 -0.2116
12074TIP3   OH257712   6.473   3.148  12.439  0.7403 -0.5235  1.3548
12074TIP3    H157713   6.454   3.225  12.494 -3.2109  0.2830 -0.7330
12074TIP3    H257714   6.402   3.087  12.459  1.1650 -1.6279 -0.3368
12075TIP3   OH257715   1.334   2.714  16.587 -0.1111 -0.5483  0.2133
12075TIP3    H157716   1.429   2.727  16.585 -0.1884  0.1015  0.3559
12075TIP3    H257717   1.315   2.694  16.679 -0.0998 -0.7706  0.1665
12076TIP3   OH257718   5.608   6.572  15.262  0.1912  0.1531  0.1290
12076TIP3    H157719   5.600   6.578  15.167  1.1220 -0.6111 -0.0161
12076TIP3    H257720   5.566   6.651  15.295 -1.1793 -0.1272 -0.8536
12077TIP3   OH257721   3.448   4.238  10.486 -0.3657  0.2760  0.1957
12077TIP3    H157722   3.502   4.217  10.411 -1.3106 -1.6755  0.0110
12077TIP3    H257723   3.446   4.334  10.488  2.1096  0.3986 -0.4438
12078TIP3   OH257724   1.060   6.548   2.840 -0.3704  0.2186 -1.3355
12078TIP3    H157725   1.083   6.456   2.836 -0.7095  0.0423  0.3635
12078TIP3    H257726   1.072   6.573   2.931  1.4401  2.3373 -2.0477
12079TIP3   OH257727   4.353   5.943  12.302 -0.0546 -0.0991  0.6419
12079TIP3    H157728   4.368   6.035  12.327 -1.9849  0.1115  1.2439
12079TIP3    H257729   4.409   5.893  12.361 -0.7189  0.6307  1.9417
12080TIP3   OH257730   3.457   0.055  16.480 -0.5265  0.4354 -0.4045
12080TIP3    H157731   3.367   0.028  16.458 -0.4258  0.6422 -1.0780
12080TIP3    H257732   3.479   0.002  16.556 -1.2124  0.3598 -0.2468
12081TIP3   OH257733   0.261   0.361   2.673 -0.6649 -0.7231 -0.3633
12081TIP3    H157734   0.293   0.282   2.717  0.8377 -1.4094 -2.5141
12081TIP3    H257735   0.274   0.431   2.737 -2.2462 -2.1627  1.6902
12082TIP3   OH257736   4.486   1.169  11.748 -0.5569  0.0814  0.4067
12082TIP3    H157737   4.511   1.256  11.716 -2.1425  0.3123 -0.3171
12082TIP3    H257738   4.436   1.130  11.676  0.9018 -1.8383  0.3602
12083TIP3   OH257739   0.367   3.424  14.767 -0.3742 -0.8316 -0.2552
12083TIP3    H157740   0.394   3.419  14.675  0.5183  0.5689 -0.0995
12083TIP3    H257741   0.293   3.363  14.774 -0.3988 -1.0222 -1.8751
12084TIP3   OH257742   5.909   5.844  13.974 -0.1898 -0.2425 -0.2486
12084TIP3    H157743   5.883   5.830  13.883 -0.7341 -0.1498 -0.1094
12084TIP3    H257744   5.828   5.867  14.019  0.1460  0.1145  0.1820
12085TIP3   OH257745   4.700   2.746   0.398  0.5290  0.3772 -0.2462
12085TIP3    H157746   4.754   2.674   0.428 -1.0954 -1.1780 -0.8359
12085TIP3    H257747   4.615   2.732   0.441  0.2924  2.1636 -0.0785
12086TIP3   OH257748   5.068   2.167  11.512 -0.2950  0.4593  0.0351
12086TIP3    H157749   5.096   2.129  11.429  1.3446  1.3043  0.1583
12086TIP3    H257750   5.081   2.097  11.576 -2.2380 -0.4401 -0.4533
12087TIP3   OH257751   4.660   1.921  15.526  0.0660 -0.1381  0.2097
12087TIP3    H157752   4.622   2.007  15.506 -2.8329 -1.4346 -0.3291
12087TIP3    H257753   4.712   1.899  15.449 -1.2080  0.1045 -0.7492
12088TIP3   OH257754   2.888   6.124  15.171  0.3829  0.0626  0.2141
12088TIP3    H157755   2.834   6.059  15.215  1.0655 -0.3519  0.4479
12088TIP3    H257756   2.825   6.187  15.135 -0.3921 -1.4042 -1.1531
12089TIP3   OH257757   5.391   4.084   1.988  0.5326  0.4688  0.4555
12089TIP3    H157758   5.430   4.058   2.071  0.2668  0.8857  0.7117
12089TIP3    H257759   5.451   4.049   1.922 -0.2828 -1.6387  0.7316
12090TIP3   OH257760   5.097   5.074   5.409  0.0675  0.5962 -0.1514
12090TIP3    H157761   5.082   5.002   5.470  2.3147 -0.3857 -0.6528
12090TIP3    H257762   5.015   5.082   5.361 -0.7557 -0.5758  0.9902
12091TIP3   OH257763   6.621   1.198   4.304  0.2478  0.2300 -0.4656
12091TIP3    H157764   6.673   1.136   4.253  1.0397  0.8118 -0.3828
12091TIP3    H257765   6.667   1.282   4.294  1.9102 -0.0523  3.1606
12092TIP3   OH257766   1.603   2.604   1.770 -0.5739 -0.3653  0.0029
12092TIP3    H157767   1.567   2.523   1.734  0.7324 -0.4571 -1.1716
12092TIP3    H257768   1.670   2.631   1.706  0.1496  0.7578  1.1947
12093TIP3   OH257769   2.455   2.424  14.429 -0.4342  0.2366  0.5799
12093TIP3    H157770   2.495   2.340  14.406 -0.5876 -0.0131  1.1944
12093TIP3    H257771   2.510   2.458  14.500  0.2267  1.1449 -0.3224
12094TIP3   OH257772   5.543   6.559  11.260  0.5270  0.4788 -0.4540
12094TIP3    H157773   5.554   6.479  11.207 -1.4713  0.0087 -0.2420
12094TIP3    H257774   5.599   6.623  11.218 -0.8206  0.0723 -3.1115
12095TIP3   OH257775   3.463   0.378  16.055  0.3238 -0.7358 -0.0364
12095TIP3    H157776   3.553   0.397  16.082  0.2783  0.4983 -0.6935
12095TIP3    H257777   3.469   0.360  15.961 -0.3570  1.5537 -0.5929
12096TIP3   OH257778   5.772   0.416  12.778 -0.1049  0.7715 -0.0421
12096TIP3    H157779   5.777   0.360  12.856  0.8995 -0.1017 -0.7092
12096TIP3    H257780   5.686   0.459  12.785 -0.1936  0.4200  1.3390
12097TIP3   OH257781   4.759   1.091   6.414 -0.6320  0.1777 -0.6019
12097TIP3    H157782   4.686   1.071   6.472 -0.9482  0.7145 -0.8114
12097TIP3    H257783   4.798   1.170   6.450 -0.2929  0.0261 -0.6268
12098TIP3   OH257784   0.278   5.796   2.882 -0.4237  0.4777  0.2701
12098TIP3    H157785   0.257   5.707   2.912 -3.0600  0.5551 -1.0227
12098TIP3    H257786   0.334   5.832   2.950 -1.0516 -1.4449  1.9049
12099TIP3   OH257787   1.824   4.103   1.307  0.0084 -0.2513  0.0116
12099TIP3    H157788   1.734   4.089   1.337 -0.1277 -1.1767 -0.7987
12099TIP3    H257789   1.876   4.037   1.353  0.1008 -0.4103 -0.3139
12100TIP3   OH257790   0.021   3.198  13.773  0.0219  0.3556  0.0108
12100TIP3    H157791   0.095   3.202  13.833  0.2848 -2.1977 -0.0129
12100TIP3    H257792  -0.053   3.233  13.823  1.0840  2.5053  0.1951
12101TIP3   OH257793   1.820   4.737   0.973 -0.1723  0.1070  0.1366
12101TIP3    H157794   1.734   4.714   0.938 -0.1888  1.5990 -0.8711
12101TIP3    H257795   1.866   4.777   0.900  1.4430 -0.7723  0.6295
12102TIP3   OH257796   4.976   6.454   2.864  0.3981 -0.1277 -0.0483
12102TIP3    H157797   4.884   6.477   2.854  0.2991 -0.8273 -0.8930
12102TIP3    H257798   4.975   6.371   2.910  0.6013 -0.1589 -0.0983
12103TIP3   OH257799   4.302   4.050   4.822  0.0541 -0.2912 -0.5095
12103TIP3    H157800   4.265   4.121   4.875 -1.4693 -2.0102  0.8364
12103TIP3    H257801   4.237   4.034   4.754  0.7575  0.0870 -1.2872
12104TIP3   OH257802   3.933   3.013  12.720 -0.3077  0.5262 -0.0719
12104TIP3    H157803   3.839   3.026  12.736 -0.4489  2.0290 -1.7711
12104TIP3    H257804   3.937   2.964  12.638  0.3898  0.7904 -0.2059
12105TIP3   OH257805   0.860   2.362   1.997  0.3000 -0.4417 -0.4531
12105TIP3    H157806   0.804   2.439   1.984 -0.2674 -1.2457 -3.8944
12105TIP3    H257807   0.947   2.392   1.973  0.6309 -0.1978  0.9977
12106TIP3   OH257808   5.294   1.816  11.252  0.3623 -0.1452  0.3824
12106TIP3    H157809   5.349   1.794  11.327 -0.4400 -0.4860  0.8947
12106TIP3    H257810   5.339   1.778  11.177 -0.0147 -1.9150  1.0054
12107TIP3   OH257811   2.358   4.557  11.725  0.7086 -0.4705  0.2380
12107TIP3    H157812   2.311   4.530  11.646 -0.5064  0.4608  0.6293
12107TIP3    H257813   2.319   4.505  11.795 -0.3121  0.8762  0.6908
12108TIP3   OH257814   5.985   6.601   1.442 -0.3441 -0.3315  0.4031
12108TIP3    H157815   5.980   6.506   1.429  1.3070 -0.3935 -0.0296
12108TIP3    H257816   5.894   6.628   1.452 -0.9649 -1.7688 -0.8729
12109TIP3   OH257817   2.305   4.306  10.816  0.2725 -0.3478  0.6697
12109TIP3    H157818   2.271   4.247  10.749  0.4867 -1.0566  1.1726
12109TIP3    H257819   2.322   4.388  10.769  1.0503 -1.0283 -0.2871
12110TIP3   OH257820   2.817   5.489   1.486 -0.0892  0.1602  0.2605
12110TIP3    H157821   2.843   5.397   1.482 -0.3916  0.0148  1.3433
12110TIP3    H257822   2.723   5.487   1.499 -0.4667  0.6789 -1.9241
12111TIP3   OH257823   4.330   5.684   1.628  1.0240  0.3522 -0.3863
12111TIP3    H157824   4.249   5.657   1.587  2.0929 -0.8604 -1.8007
12111TIP3    H257825   4.304   5.750   1.693 -1.0465  0.0140 -0.8259
12112TIP3   OH257826   2.979   1.028  15.600 -0.3070  0.6975 -0.1922
12112TIP3    H157827   2.984   0.966  15.674  0.1823  0.0307 -0.7676
12112TIP3    H257828   3.071   1.048  15.581 -0.3688 -0.1008 -1.4097
12113TIP3   OH257829   3.904   1.505  15.555 -0.2600 -0.2830  0.5206
12113TIP3    H157830   3.820   1.508  15.510 -0.7472 -1.6868  1.2857
12113TIP3    H257831   3.953   1.579  15.519 -1.0890 -0.5949 -1.3698
12114TIP3   OH257832   2.543   1.424  14.740 -0.0509  0.2057 -0.3885
12114TIP3    H157833   2.621   1.417  14.795 -0.2692  1.6036  0.1347
12114TIP3    H257834   2.494   1.344  14.757  1.4495 -0.9181 -1.0492
12115TIP3   OH257835   2.568   5.575   0.582  0.1048 -0.0809  0.4232
12115TIP3    H157836   2.523   5.635   0.641  0.1569  0.2836  0.0912
12115TIP3    H257837   2.532   5.489   0.603  1.2170 -0.1967  2.0713
12116TIP3   OH257838   0.709   5.881   2.695 -0.8805 -0.4259 -0.1249
12116TIP3    H157839   0.676   5.951   2.640 -2.0638 -1.6820 -1.0810
12116TIP3    H257840   0.803   5.895   2.698 -1.0667  1.0999 -0.3986
12117TIP3   OH257841   4.991   2.483  13.304  0.0332  0.0521  0.4958
12117TIP3    H157842   5.053   2.508  13.372 -0.5288 -0.8661  1.3666
12117TIP3    H257843   5.008   2.390  13.289 -0.6278 -0.0257  0.2115
12118TIP3   OH257844   2.514   5.341  11.549 -0.1126 -0.3841 -0.1894
12118TIP3    H157845   2.608   5.338  11.534  0.2858  1.0437  1.6280
12118TIP3    H257846   2.484   5.419  11.502  0.1568  0.7968  1.5001
12119TIP3   OH257847   3.891   3.740  12.690 -0.0115  0.1405 -0.2459
12119TIP3    H157848   3.829   3.777  12.753 -0.2492 -1.6234  0.6253
12119TIP3    H257849   3.837   3.693  12.626  0.3490 -0.4133 -0.1558
12120TIP3   OH257850   6.102   1.255  12.962 -0.2351  0.0320  0.0414
12120TIP3    H157851   6.082   1.167  12.928  2.4451 -0.7329  0.1680
12120TIP3    H257852   6.187   1.276  12.923  0.0172  1.8154  1.4550
12121TIP3   OH257853   6.784   4.439   6.249  0.4008 -0.1911 -0.3046
12121TIP3    H157854   6.735   4.362   6.278 -0.4810  0.7687  0.8921
12121TIP3    H257855   6.831   4.468   6.328 -0.5259  1.3785 -0.2878
12122TIP3   OH257856   3.146   1.954  16.105 -0.4420  0.8036 -0.9957
12122TIP3    H157857   3.151   1.860  16.089 -0.1758  0.9608 -1.8653
12122TIP3    H257858   3.160   1.963  16.200 -1.1651 -0.0762 -0.7897
12123TIP3   OH257859   0.309   1.555  14.570 -0.2135  0.3330 -0.1158
12123TIP3    H157860   0.367   1.592  14.637 -0.5044  0.0514  0.2928
12123TIP3    H257861   0.310   1.461  14.586 -1.3706  0.3935  0.3655
12124TIP3   OH257862   1.480   4.959  12.482  0.2074  0.8817 -0.3925
12124TIP3    H157863   1.489   4.917  12.396 -0.5349  1.4380 -0.7491
12124TIP3    H257864   1.526   4.900  12.542  0.9255  0.5961 -1.2020
12125TIP3   OH257865   5.975   6.662   3.222 -0.0565  0.2653  0.2863
12125TIP3    H157866   5.916   6.716   3.275 -1.9307 -1.0008 -0.3967
12125TIP3    H257867   6.055   6.655   3.274 -0.7600  1.4748  1.5899
12126TIP3   OH257868   2.332   6.058   3.446 -0.6749  0.2819 -0.0560
12126TIP3    H157869   2.294   6.106   3.373  0.7030  0.9139 -0.3899
12126TIP3    H257870   2.321   5.966   3.422 -0.8839  0.4751 -0.7245
12127TIP3   OH257871   3.549   0.164  11.461  0.0918 -0.6364 -0.4218
12127TIP3    H157872   3.467   0.135  11.422 -1.9212  1.6700  1.6718
12127TIP3    H257873   3.566   0.249  11.420  1.9857 -1.4890 -1.4793
12128TIP3   OH257874   2.554   4.139   3.801 -0.2290 -0.7951 -0.6007
12128TIP3    H157875   2.588   4.209   3.744 -1.8673  1.3961  0.9405
12128TIP3    H257876   2.627   4.118   3.859 -0.1068  0.7165 -0.1578
12129TIP3   OH257877   5.787   6.157   3.926 -0.1470  0.4675  0.2435
12129TIP3    H157878   5.817   6.151   3.836 -0.9718 -0.7116  0.0143
12129TIP3    H257879   5.747   6.243   3.933 -1.8156 -0.1472 -1.1085
12130TIP3   OH257880   6.421   5.509  11.184 -0.5890 -0.4757 -0.4025
12130TIP3    H157881   6.498   5.452  11.193  0.9859  1.5678 -0.1771
12130TIP3    H257882   6.363   5.481  11.255  0.9956 -0.5649  0.9492
12131TIP3   OH257883   5.256   5.947   0.852  0.2421 -0.2081  0.1499
12131TIP3    H157884   5.225   6.026   0.808  0.1968 -0.1157  0.3473
12131TIP3    H257885   5.179   5.914   0.899  0.2249 -0.4451 -0.0418
12132TIP3   OH257886   6.559   1.106  15.885  0.0666 -0.0541 -0.5558
12132TIP3    H157887   6.493   1.094  15.818 -0.4387 -0.3956 -0.0127
12132TIP3    H257888   6.615   1.028  15.878 -1.1234 -1.0586  0.6580
12133TIP3   OH257889   1.001   5.553   1.122 -0.1690  0.0122  0.3902
12133TIP3    H157890   1.048   5.602   1.055  0.2369  1.1161  1.4406
12133TIP3    H257891   1.058   5.479   1.142  0.9242  1.0574  1.2815
12134TIP3   OH257892   2.515   5.168   4.412 -0.0068  0.1699  1.0139
12134TIP3    H157893   2.573   5.184   4.486  1.1068 -3.4685  1.1043
12134TIP3    H257894   2.516   5.073   4.400 -2.5150  0.3373 -1.8049
12135TIP3   OH257895   3.884   3.665   4.119 -0.1412  0.1820  0.4472
12135TIP3    H157896   3.897   3.758   4.100 -1.2237  0.2533 -0.0358
12135TIP3    H257897   3.875   3.624   4.033  1.8565 -0.6515  0.5676
12136TIP3   OH257898   6.097   6.612  13.713 -0.2929 -0.5857 -0.0330
12136TIP3    H157899   6.111   6.613  13.618 -1.0517  0.4610 -0.1527
12136TIP3    H257900   6.142   6.533  13.743  1.5193  0.0197 -1.0244
12137TIP3   OH257901   2.547   4.087  13.608 -0.5245 -0.3559 -0.3837
12137TIP3    H157902   2.540   4.132  13.692 -2.0132 -0.6852 -0.2922
12137TIP3    H257903   2.565   4.157  13.545  1.2169 -0.1855  0.2616
12138TIP3   OH257904   2.912   5.579  15.854  0.6201 -0.1573 -1.0525
12138TIP3    H157905   2.851   5.506  15.864  0.8802 -0.5745 -2.3800
12138TIP3    H257906   2.936   5.579  15.762  1.4726  0.9410 -0.8608
12139TIP3   OH257907   3.635   0.426  15.062  0.5342  0.5792  0.1537
12139TIP3    H157908   3.569   0.389  15.121  1.4806  0.5295  1.2207
12139TIP3    H257909   3.597   0.418  14.975 -0.6716  0.1371  0.6984
12140TIP3   OH257910   0.135   6.178  13.974 -0.0298  0.3273  0.1700
12140TIP3    H157911   0.206   6.231  14.011 -1.1497  1.2034  1.1335
12140TIP3    H257912   0.174   6.092  13.960  1.2242  0.7966  0.6592
12141TIP3   OH257913   1.820   5.269  14.736 -0.0707  0.8351 -0.1802
12141TIP3    H157914   1.745   5.257  14.677  0.4790  1.8385 -1.1080
12141TIP3    H257915   1.897   5.259  14.680  0.5270 -0.5585  0.8380
12142TIP3   OH257916   4.722   3.111   0.425 -0.1436  0.3852 -0.1507
12142TIP3    H157917   4.637   3.134   0.389  0.1878  0.6694 -0.7616
12142TIP3    H257918   4.784   3.127   0.354  0.7405  2.5676  1.0088
12143TIP3   OH257919   0.438   0.668   2.264  0.4830 -0.1573  0.4478
12143TIP3    H157920   0.512   0.727   2.277 -0.4284  0.6814  2.2381
12143TIP3    H257921   0.476   0.580   2.269  1.9612  0.1764 -2.8707
12144TIP3   OH257922   5.756   2.286  12.241  0.1990  0.2244  0.3540
12144TIP3    H157923   5.814   2.354  12.207 -2.7167  2.2851 -1.0331
12144TIP3    H257924   5.717   2.325  12.319 -2.7685  1.1023 -1.3683
12145TIP3   OH257925   2.046   5.624  14.964 -0.2655 -0.5509  0.0323
12145TIP3    H157926   1.991   5.701  14.948 -0.4616 -0.4053  1.3041
12145TIP3    H257927   1.995   5.570  15.024  1.0662 -0.2975  1.4460
12146TIP3   OH257928   6.780   3.424   1.717  0.9738  0.0040 -0.0910
12146TIP3    H157929   6.792   3.412   1.622  3.2150  0.8085  0.0331
12146TIP3    H257930   6.817   3.345   1.755 -0.1825 -0.4474  0.1529
12147TIP3   OH257931   2.930   5.440   4.451 -0.3598  0.3588 -0.6373
12147TIP3    H157932   2.914   5.532   4.474  1.3046  0.4530  0.2815
12147TIP3    H257933   3.025   5.435   4.438 -0.1373 -1.6209  1.2189
12148TIP3   OH257934   2.985   2.824   3.284  0.6464  0.3180 -0.1007
12148TIP3    H157935   3.030   2.741   3.300 -0.8283 -0.0137  3.2398
12148TIP3    H257936   2.983   2.867   3.369 -0.6733  2.7476 -1.2474
12149TIP3   OH257937   1.408   5.703   3.403  0.1383 -0.2472  0.1401
12149TIP3    H157938   1.396   5.619   3.446  0.1856 -0.5793 -0.4934
12149TIP3    H257939   1.497   5.730   3.427  0.1698 -0.4361  0.2335
12150TIP3   OH257940   1.844   3.049   4.406 -0.6543  0.7562 -0.6723
12150TIP3    H157941   1.937   3.050   4.429  0.0968 -0.7776 -3.2127
12150TIP3    H257942   1.813   2.962   4.434 -1.1674  1.0150 -0.4186
12151TIP3   OH257943   1.354   3.822  11.309 -0.7396 -0.0927 -0.3644
12151TIP3    H157944   1.300   3.842  11.232 -1.2195 -0.2702 -0.0765
12151TIP3    H257945   1.366   3.727  11.305  0.3303  0.0576 -0.9353
12152TIP3   OH257946   6.464   3.600  11.117 -0.0136  0.1204 -0.1010
12152TIP3    H157947   6.447   3.528  11.178  0.8660 -1.0890 -1.2242
12152TIP3    H257948   6.547   3.577  11.076  1.9842  3.3302  1.6965
12153TIP3   OH257949   1.502   5.869  15.641  0.1779 -0.0559 -0.0112
12153TIP3    H157950   1.431   5.923  15.606  0.3314 -0.2467 -0.6344
12153TIP3    H257951   1.557   5.850  15.564  0.0694 -1.1937  0.1907
12154TIP3   OH257952   4.343   6.786   3.780  0.6176 -0.1505  0.0760
12154TIP3    H157953   4.359   6.719   3.846  0.5400  0.4062  0.6649
12154TIP3    H257954   4.430   6.812   3.750  0.6562 -0.3134  0.0464
12155TIP3   OH257955   4.997   2.088   4.484 -0.0853  0.7653  0.0813
12155TIP3    H157956   4.923   2.089   4.545  0.3849  1.5587  0.6675
12155TIP3    H257957   4.960   2.057   4.401 -0.6604 -0.7043  0.8527
12156TIP3   OH257958   5.435   6.248   1.267 -0.0785 -0.3851  0.4522
12156TIP3    H157959   5.524   6.219   1.246  0.1506  0.8016 -0.2860
12156TIP3    H257960   5.442   6.282   1.356 -0.1827 -1.8084  1.0336
12157TIP3   OH257961   6.805   6.709  17.025 -0.1635 -0.2086  0.0136
12157TIP3    H157962   6.756   6.773  17.077 -0.0928 -0.6646  0.6531
12157TIP3    H257963   6.738   6.649  16.992 -0.1646 -0.1680 -0.0559
12158TIP3   OH257964   3.617   2.180   1.226 -0.2213  0.2749  0.3340
12158TIP3    H157965   3.675   2.173   1.149  0.8484 -0.9969  1.2000
12158TIP3    H257966   3.545   2.120   1.207 -0.1062  0.1794  0.1968
12159TIP3   OH257967   5.011   0.687  15.766 -0.0668  0.1977  0.5024
12159TIP3    H157968   5.044   0.733  15.843  3.0174 -0.2508 -0.4414
12159TIP3    H257969   4.999   0.596  15.796 -1.9451  0.6196  1.1974
12160TIP3   OH257970   3.483   3.060   4.415 -0.3756 -0.0868 -0.1892
12160TIP3    H157971   3.471   3.054   4.321  0.0068 -1.1077 -0.1918
12160TIP3    H257972   3.430   2.988   4.450 -0.6371  0.3791  0.3850
12161TIP3   OH257973   2.177   3.771   1.916 -0.5826  0.1543  0.2963
12161TIP3    H157974   2.162   3.739   2.005 -1.2019  0.1405  0.1950
12161TIP3    H257975   2.089   3.775   1.878 -0.2414 -0.7172 -0.6110
12162TIP3   OH257976   6.649   3.943  14.351  0.1106 -0.0300 -0.1901
12162TIP3    H157977   6.680   3.943  14.441  1.7637  0.7480 -0.7147
12162TIP3    H257978   6.676   3.858  14.316  0.1414 -0.0351 -0.1538
12163TIP3   OH257979   0.380   4.500   5.958  0.1933  0.4593 -0.3899
12163TIP3    H157980   0.399   4.428   5.898  0.1829  0.2158 -0.1031
12163TIP3    H257981   0.440   4.487   6.031  1.1788  1.5547 -0.9859
12164TIP3   OH257982   5.887   3.399  10.385 -0.4450 -0.1325 -0.0907
12164TIP3    H157983   5.872   3.462  10.455  0.6096 -2.2994  2.2392
12164TIP3    H257984   5.968   3.429  10.343 -0.1420  0.2836  0.7543
12165TIP3   OH257985   3.907   4.873  14.780  0.0660 -0.4926  0.0140
12165TIP3    H157986   3.880   4.949  14.832  0.2948 -0.0597 -0.4929
12165TIP3    H257987   3.948   4.814  14.844  0.1379 -0.0691  0.3633
12166TIP3   OH257988   2.866   0.634  16.058 -0.0592 -0.8053 -0.1504
12166TIP3    H157989   2.817   0.596  16.131  0.0725 -1.1781 -0.2556
12166TIP3    H257990   2.883   0.561  15.999  0.5953 -0.6797 -0.1331
12167TIP3   OH257991   0.800   4.192   1.942  0.1513 -0.4032 -0.4676
12167TIP3    H157992   0.843   4.139   1.875 -1.7497 -1.2998 -1.0618
12167TIP3    H257993   0.753   4.259   1.892 -0.7294 -0.6595  0.0033
12168TIP3   OH257994   2.937   5.439  16.651 -0.0503  0.1166  0.5917
12168TIP3    H157995   3.019   5.473  16.614 -0.4148 -0.0501 -0.3827
12168TIP3    H257996   2.868   5.490  16.610 -0.5003 -0.4574  0.6108
12169TIP3   OH257997   2.105   2.282   4.352 -0.5812 -0.1773 -0.2358
12169TIP3    H157998   2.044   2.346   4.316 -0.7867 -0.4782 -0.4308
12169TIP3    H257999   2.116   2.218   4.282  0.0485 -0.0662 -0.2422
12170TIP3   OH258000   2.176   0.463   0.589 -0.2050  0.3793  0.0212
12170TIP3    H158001   2.259   0.456   0.636  0.5607  1.3040 -1.1321
12170TIP3    H258002   2.190   0.534   0.526 -1.6287  0.0557 -0.7012
12171TIP3   OH258003   1.398   5.676   5.180 -0.3025  0.1730 -0.1190
12171TIP3    H158004   1.320   5.681   5.235 -0.3613  1.0213 -0.2721
12171TIP3    H258005   1.467   5.649   5.240 -0.6353 -0.2480  0.0879
12172TIP3   OH258006   5.900   4.236  17.112 -0.3272 -0.4372  0.3059
12172TIP3    H158007   5.855   4.154  17.133  2.7365 -2.5655 -0.8765
12172TIP3    H258008   5.874   4.256  17.022 -0.8673 -0.2045  0.5058
12173TIP3   OH258009   2.184   1.889   4.476  0.2507 -0.3855  0.0717
12173TIP3    H158010   2.170   1.794   4.477 -0.3873 -0.3035  1.0848
12173TIP3    H258011   2.200   1.911   4.568 -1.0784  0.6746  0.0798
12174TIP3   OH258012   2.528   4.406  15.478  0.0961 -0.9911  0.4100
12174TIP3    H158013   2.445   4.438  15.513  0.6329 -0.7495  1.5217
12174TIP3    H258014   2.528   4.433  15.387 -0.8311 -0.5611  0.5249
12175TIP3   OH258015   1.334   5.255  11.302 -0.5952 -0.3597  0.0004
12175TIP3    H158016   1.373   5.282  11.219 -1.2019  1.3382  0.2420
12175TIP3    H258017   1.245   5.228  11.280 -0.6638 -0.1785  0.0513
12176TIP3   OH258018   5.704   6.636  15.661  0.6606  0.5716 -0.0028
12176TIP3    H158019   5.658   6.710  15.620 -0.9038  0.0239  0.7238
12176TIP3    H258020   5.743   6.589  15.587 -0.3633  0.7689 -0.6921
12177TIP3   OH258021   5.037   2.788   1.664 -0.3073 -0.5714  0.1912
12177TIP3    H158022   5.010   2.877   1.689  2.2379  0.3072  0.1295
12177TIP3    H258023   5.032   2.738   1.745  0.5982  0.2867  0.7944
12178TIP3   OH258024   3.837   2.973  15.289  1.1060 -0.4433  0.2217
12178TIP3    H158025   3.770   2.914  15.255  0.6005  1.1097 -1.6796
12178TIP3    H258026   3.890   2.919  15.349  0.1241 -2.5275 -0.7108
12179TIP3   OH258027   3.906   4.405  11.970 -0.5054  0.2422  0.5216
12179TIP3    H158028   3.853   4.376  11.896 -1.9777  1.2473  1.1220
12179TIP3    H258029   3.872   4.355  12.044 -0.1672  0.4193  0.8006
12180TIP3   OH258030   2.850   3.047   5.392  0.0410  0.3546 -0.0056
12180TIP3    H158031   2.905   3.059   5.469  0.7472 -0.3617 -0.3842
12180TIP3    H258032   2.788   2.978   5.417  0.8182 -0.4817 -0.3568
12181TIP3   OH258033   4.919   6.264   0.301 -0.3644 -0.1249  0.0596
12181TIP3    H158034   4.887   6.195   0.360 -0.8874 -1.2798 -1.5101
12181TIP3    H258035   4.842   6.288   0.249  0.5697 -0.6840 -1.6256
12182TIP3   OH258036   0.881   5.575  16.186 -0.1533  0.0430 -0.3912
12182TIP3    H158037   0.923   5.650  16.228 -2.3820  0.9279  0.3673
12182TIP3    H258038   0.859   5.517  16.258 -0.9005 -0.0534 -0.6968
12183TIP3   OH258039   3.456   6.562  11.366  0.4872 -0.5075 -0.3131
12183TIP3    H158040   3.412   6.621  11.427 -1.8640 -0.8365 -1.5930
12183TIP3    H258041   3.541   6.545  11.407 -0.2748  0.7053  1.9552
12184TIP3   OH258042   2.133   0.167  11.944  0.1921 -0.7025  0.0280
12184TIP3    H158043   2.218   0.210  11.950 -0.5446  0.7237  0.5478
12184TIP3    H258044   2.087   0.213  11.875 -0.0159 -1.7730 -0.5768
12185TIP3   OH258045   0.823   5.305   0.165  0.2081 -0.5954  0.3549
12185TIP3    H158046   0.810   5.398   0.183 -0.3699  0.0555 -2.8209
12185TIP3    H258047   0.791   5.260   0.244  1.2036  1.8564  2.2861
12186TIP3   OH258048   1.728   6.058   0.905  0.4229 -0.3189 -0.2623
12186TIP3    H158049   1.816   6.095   0.899  0.2694  0.4695  1.6890
12186TIP3    H258050   1.721   6.027   0.995 -1.2632 -0.4405 -0.4023
12187TIP3   OH258051   3.744   1.938  12.287 -0.1305  0.1197  0.1559
12187TIP3    H158052   3.711   1.864  12.338 -0.0771  0.0496  0.0880
12187TIP3    H258053   3.665   1.980  12.252 -0.1240 -0.4174 -0.5262
12188TIP3   OH258054   1.374   0.896  10.919 -0.0289 -0.6386 -0.2458
12188TIP3    H158055   1.410   0.985  10.915 -0.2196 -0.5767 -0.6644
12188TIP3    H258056   1.368   0.869  10.827 -0.6592 -0.8041 -0.1640
12189TIP3   OH258057   0.872   4.415   3.676 -0.0653  0.3643 -0.1955
12189TIP3    H158058   0.936   4.357   3.718 -0.6021 -0.3322 -0.3406
12189TIP3    H258059   0.787   4.382   3.704 -0.3978  0.6432 -0.8540
12190TIP3   OH258060   2.012   1.022   4.089 -0.3778 -0.3252 -0.3570
12190TIP3    H158061   2.023   1.053   4.000 -1.5969  0.2834 -0.3131
12190TIP3    H258062   1.983   0.931   4.080  1.3275 -0.8716 -0.5251
12191TIP3   OH258063   0.893   3.113  16.791 -0.1201  1.2533 -0.0169
12191TIP3    H158064   0.848   3.186  16.749 -0.8379  0.6781 -0.2825
12191TIP3    H258065   0.950   3.077  16.723  0.2433  1.5740  0.1191
12192TIP3   OH258066   2.987   0.101  13.296 -0.0139 -0.0140  0.6708
12192TIP3    H158067   3.065   0.124  13.346  0.0568  2.1563 -0.3225
12192TIP3    H258068   3.007   0.128  13.206 -0.8407 -2.0630 -0.2028
12193TIP3   OH258069   3.422   6.430  15.628 -0.2946  0.6895  0.1605
12193TIP3    H158070   3.432   6.516  15.586 -0.5106  1.3141  1.3441
12193TIP3    H258071   3.503   6.383  15.606 -0.2100  1.1607 -0.5644
12194TIP3   OH258072   0.380   1.814   2.758  0.4168 -0.1035  0.2487
12194TIP3    H158073   0.302   1.800   2.705  0.2148 -0.8262  0.7190
12194TIP3    H258074   0.418   1.726   2.768  2.1534  0.4272 -1.2634
12195TIP3   OH258075   5.995   0.498  14.265 -0.1201 -0.0065  0.4168
12195TIP3    H158076   5.969   0.578  14.309 -0.4745  0.8089 -1.1906
12195TIP3    H258077   6.040   0.528  14.185 -0.8208 -1.3768 -0.5325
12196TIP3   OH258078   4.558   2.884   3.491  0.3959  0.4820  0.3380
12196TIP3    H158079   4.548   2.931   3.408 -0.7137 -0.5934 -0.1660
12196TIP3    H258080   4.504   2.806   3.481 -0.9852  1.0560  2.6358
12197TIP3   OH258081   4.276   0.911   1.471 -0.1964  0.1776 -0.1484
12197TIP3    H158082   4.253   1.001   1.495 -0.0324  0.1163  0.2492
12197TIP3    H258083   4.321   0.876   1.548 -0.3776 -0.2898 -0.2511
12198TIP3   OH258084   2.458   1.486   5.199  0.0732  0.0097  0.3592
12198TIP3    H158085   2.446   1.436   5.118  0.6793  0.6059 -0.1065
12198TIP3    H258086   2.540   1.452   5.236 -0.6023 -0.8173  1.1484
12199TIP3   OH258087   2.672   4.034  10.339  0.5864 -0.2910 -0.2568
12199TIP3    H158088   2.599   3.973  10.329  0.5128 -0.7002  2.1323
12199TIP3    H258089   2.631   4.121  10.333 -0.1864 -0.5173  1.2948
12200TIP3   OH258090   3.952   4.648  14.166 -0.1229  0.3151 -0.2087
12200TIP3    H158091   4.014   4.591  14.212 -0.6969 -0.0138  0.1686
12200TIP3    H258092   3.884   4.667  14.230 -0.8029  0.0583 -0.8404
12201TIP3   OH258093   5.018   5.742  17.038 -0.0723  0.4805 -0.3129
12201TIP3    H158094   5.083   5.758  16.970  1.6971  1.5914  1.5177
12201TIP3    H258095   4.937   5.780  17.003  0.8680  1.3531 -1.6338
12202TIP3   OH258096   4.215   5.269   1.925 -0.7328  0.4715  0.0514
12202TIP3    H158097   4.177   5.317   1.851  1.3642  0.5551 -1.0663
12202TIP3    H258098   4.199   5.326   2.000 -2.1316  0.8218 -0.4788
12203TIP3   OH258099   2.182   0.142   6.054 -0.1383 -0.1026  0.2123
12203TIP3    H158100   2.189   0.231   6.019 -1.8176  0.7990  1.9869
12203TIP3    H258101   2.243   0.140   6.128  0.1002 -0.5407  0.0088
12204TIP3   OH258102   0.648   4.838  14.347  0.3351  0.0456  0.4103
12204TIP3    H158103   0.700   4.770  14.303  0.0953  0.6572 -0.8735
12204TIP3    H258104   0.652   4.814  14.439 -1.1181 -2.6972 -0.1217
12205TIP3   OH258105   6.743   4.578   1.605 -0.8491  0.0493 -0.1745
12205TIP3    H158106   6.686   4.649   1.576 -0.3082  0.3522 -0.5206
12205TIP3    H258107   6.827   4.621   1.624 -0.7391 -0.3807  0.3487
12206TIP3   OH258108   6.171   0.557  13.375  0.3432  0.5089 -0.1476
12206TIP3    H158109   6.258   0.531  13.347  0.8471  1.2339  0.6973
12206TIP3    H258110   6.160   0.517  13.462  0.9103  2.5563  0.9235
12207TIP3   OH258111   3.712   5.669   5.447 -0.1485 -0.2277  0.2033
12207TIP3    H158112   3.705   5.732   5.375 -1.2801 -1.3330 -0.6929
12207TIP3    H258113   3.746   5.590   5.406  1.9380 -0.0462  1.4430
12208TIP3   OH258114   3.158   3.262   5.767 -0.2492  0.1220 -0.4613
12208TIP3    H158115   3.186   3.346   5.731 -2.1166  0.3322 -1.6027
12208TIP3    H258116   3.161   3.274   5.862  0.0928  1.2603 -0.5952
12209TIP3   OH258117   0.747   5.855  11.365 -0.3306  0.0240  0.2881
12209TIP3    H158118   0.821   5.915  11.359 -0.2254 -0.2390 -1.8004
12209TIP3    H258119   0.684   5.889  11.302 -1.5874 -0.3088  1.3451
12210TIP3   OH258120   2.558   4.296  16.369  0.2531 -0.2808 -0.1432
12210TIP3    H158121   2.541   4.335  16.455  0.2643 -0.4920 -0.0453
12210TIP3    H258122   2.471   4.280  16.332  0.2293 -1.1837  0.2798
12211TIP3   OH258123   2.441   1.471  11.683  0.0990  0.6293  0.2271
12211TIP3    H158124   2.435   1.566  11.687  0.2534  0.7000 -0.7646
12211TIP3    H258125   2.512   1.454  11.620 -0.7353 -0.1346 -0.5395
12212TIP3   OH258126   4.488   2.685   5.146  0.1937  0.4520 -0.1753
12212TIP3    H158127   4.583   2.691   5.159 -0.0568  2.6301  1.0957
12212TIP3    H258128   4.466   2.760   5.091 -0.9333  0.6436  0.5017
12213TIP3   OH258129   6.265   2.040  17.130 -0.1375  0.6692  0.0976
12213TIP3    H158130   6.356   2.040  17.159 -0.3128 -2.2166  0.9294
12213TIP3    H258131   6.215   2.052  17.211 -0.5250  0.7550 -0.1539
12214TIP3   OH258132   5.440   2.673  15.105 -0.6577  0.5087 -0.5986
12214TIP3    H158133   5.484   2.700  15.025 -0.1773 -0.6122 -0.7335
12214TIP3    H258134   5.463   2.581  15.115 -3.1578 -0.2105 -0.7956
12215TIP3   OH258135   4.237   3.595  16.202  0.1416 -0.0898 -0.1304
12215TIP3    H158136   4.175   3.559  16.139 -0.2267  1.4140 -0.6746
12215TIP3    H258137   4.282   3.519  16.238 -2.4359 -1.3145  0.7645
12216TIP3   OH258138   2.394   4.257   2.174 -0.7962  0.2068 -0.4497
12216TIP3    H158139   2.474   4.245   2.122 -0.4413 -0.6128  0.2567
12216TIP3    H258140   2.363   4.344   2.151  0.6803  0.8195 -0.2388
12217TIP3   OH258141   4.519   6.809  15.097  0.5043 -0.1303 -0.1346
12217TIP3    H158142   4.428   6.782  15.109  0.6065 -0.5497 -0.2634
12217TIP3    H258143   4.531   6.882  15.158 -0.1082  0.3787 -0.6055
12218TIP3   OH258144   3.690   4.155  14.069  0.6531 -0.4391 -0.4578
12218TIP3    H158145   3.720   4.082  14.122  2.4099  1.2664  1.0249
12218TIP3    H258146   3.626   4.201  14.125  0.8224  0.1042 -0.7028
12219TIP3   OH258147   0.112   0.042   1.467 -0.5540  0.4823  0.5409
12219TIP3    H158148   0.153   0.019   1.551 -0.2094  1.5503  0.6715
12219TIP3    H258149   0.054   0.115   1.488 -1.5336 -0.1526  0.1002
12220TIP3   OH258150   1.484   2.175  11.286  0.4349 -0.1373 -0.0766
12220TIP3    H158151   1.443   2.096  11.252  2.9211 -1.6436  0.1436
12220TIP3    H258152   1.578   2.160  11.275  1.0141  2.8082  0.0006
12221TIP3   OH258153   2.177   3.582  12.887 -0.4710 -0.1417  0.0807
12221TIP3    H158154   2.254   3.634  12.864  0.1857 -1.2841 -0.3395
12221TIP3    H258155   2.162   3.602  12.980 -0.8673  1.5855 -0.3111
12222TIP3   OH258156   0.945   4.589  10.548 -0.5544 -0.4819 -0.4772
12222TIP3    H158157   0.900   4.623  10.626 -3.4527 -3.0919 -0.7995
12222TIP3    H258158   0.928   4.655  10.481  0.6157  1.0379  0.6560
12223TIP3   OH258159   2.721   5.116  14.973 -0.0284  0.0943 -0.3861
12223TIP3    H158160   2.711   5.057  15.048  1.2339  1.7863  1.1804
12223TIP3    H258161   2.797   5.169  14.994 -0.5146  1.6064 -2.2199
12224TIP3   OH258162   2.618   4.025   2.007 -0.6631  0.2170 -0.2722
12224TIP3    H158163   2.666   3.947   2.036  1.0250  0.8484 -1.2403
12224TIP3    H258164   2.543   3.990   1.958 -1.1061 -0.7932  1.0558
12225TIP3   OH258165   0.153   0.289  10.581  0.5056 -0.1321  0.0947
12225TIP3    H158166   0.086   0.224  10.559 -0.8916  0.7301  1.5490
12225TIP3    H258167   0.142   0.304  10.675 -1.3364  4.2985 -0.5582
12226TIP3   OH258168   5.225   0.923   1.937 -0.2820  0.2168  0.3986
12226TIP3    H158169   5.321   0.926   1.939 -0.2696  0.1384 -0.0294
12226TIP3    H258170   5.199   1.009   1.903 -0.3004 -0.3518 -1.0990
12227TIP3   OH258171   4.132   0.163   3.809  0.3491 -0.0083  0.0466
12227TIP3    H158172   4.177   0.086   3.845 -0.6332 -1.7006 -2.1036
12227TIP3    H258173   4.194   0.198   3.745  0.5025  0.5887  0.5131
12228TIP3   OH258174   6.137   4.870  11.308 -0.1368  0.1121  0.2848
12228TIP3    H158175   6.143   4.855  11.213  2.9841  1.4734  0.1297
12228TIP3    H258176   6.068   4.936  11.317 -0.9737 -0.5453 -0.9279
12229TIP3   OH258177   1.719   5.117  14.514 -0.0951  0.1632 -0.4193
12229TIP3    H158178   1.706   5.128  14.420 -0.4126  2.8277 -0.1427
12229TIP3    H258179   1.631   5.113  14.550  0.0242 -0.1534 -0.1538
12230TIP3   OH258180   2.296   2.082  16.634  0.0323  0.0097 -0.0702
12230TIP3    H158181   2.294   2.175  16.608  2.2071  0.5117  1.3774
12230TIP3    H258182   2.317   2.036  16.553  0.1825  0.8974 -0.5565
12231TIP3   OH258183   4.334   4.293   5.291  0.2552  0.3457  0.1318
12231TIP3    H158184   4.333   4.289   5.387 -0.3155 -1.3822  0.0943
12231TIP3    H258185   4.251   4.252   5.265 -0.3121  2.1613 -1.1041
12232TIP3   OH258186   6.321   5.269  14.139  0.3890  0.1089  0.0341
12232TIP3    H158187   6.378   5.316  14.200 -0.1821  1.6892 -0.5912
12232TIP3    H258188   6.326   5.319  14.058 -1.9535  0.3933 -0.0138
12233TIP3   OH258189   6.520   2.230  16.842  0.2266  0.4147  0.2165
12233TIP3    H158190   6.555   2.150  16.880  0.6268  0.2204 -0.5509
12233TIP3    H258191   6.488   2.280  16.917  3.1594  1.1419  1.1151
12234TIP3   OH258192   4.122   3.992   5.962 -1.2846  0.4788  0.0764
12234TIP3    H158193   4.048   3.972   6.019 -1.1140 -0.5146 -0.0333
12234TIP3    H258194   4.140   4.085   5.978 -1.0554  0.1643  1.8693
12235TIP3   OH258195   5.879   1.770  12.502 -0.1018  0.5446  0.2511
12235TIP3    H158196   5.941   1.733  12.439  0.5806  0.9099  0.6930
12235TIP3    H258197   5.800   1.787  12.451 -0.1087 -0.6297 -0.1630
12236TIP3   OH258198   4.934   1.943   1.207 -0.8253  0.4339 -0.2138
12236TIP3    H158199   4.903   2.033   1.198 -0.7988  0.3353 -1.4103
12236TIP3    H258200   4.992   1.930   1.132 -1.8643 -0.9960 -0.8069
12237TIP3   OH258201   3.665   2.746  12.946  0.3415 -0.4801  0.1921
12237TIP3    H158202   3.605   2.796  12.891  0.3457 -0.1203  0.5102
12237TIP3    H258203   3.647   2.776  13.035 -0.0957 -1.5056  0.4619
12238TIP3   OH258204   1.990   1.349   0.881  0.1246 -0.0425  0.5182
12238TIP3    H158205   1.946   1.264   0.873  0.1383 -0.1709  1.5472
12238TIP3    H258206   1.941   1.394   0.951  0.2670  0.7031  0.1456
12239TIP3   OH258207   2.334   5.577  11.404 -0.2814 -0.0624  0.2481
12239TIP3    H158208   2.345   5.532  11.320 -1.4316 -0.4734  0.2969
12239TIP3    H258209   2.258   5.533  11.445  1.2796 -1.0634  2.2748
12240TIP3   OH258210   5.149   1.192   4.388 -0.1770  0.1497 -0.2251
12240TIP3    H158211   5.223   1.164   4.334 -0.5996  0.2570 -0.8572
12240TIP3    H258212   5.148   1.129   4.461 -0.3566 -0.7471 -0.9816
12241TIP3   OH258213   1.122   3.856  12.751  0.0646 -0.2359 -0.5227
12241TIP3    H158214   1.032   3.888  12.756 -0.7951 -2.2128 -1.9740
12241TIP3    H258215   1.163   3.910  12.684 -0.4826 -0.2672 -0.8905
12242TIP3   OH258216   5.063   4.493  15.406 -0.2445 -0.2605 -0.5294
12242TIP3    H158217   5.020   4.430  15.348 -0.2454 -0.4599 -0.3183
12242TIP3    H258218   5.149   4.507  15.366 -0.4159 -0.0492 -0.8207
12243TIP3   OH258219   0.403   6.240  14.063  0.2540 -0.3716  0.7148
12243TIP3    H158220   0.363   6.179  14.124 -0.5084 -0.9904 -0.3610
12243TIP3    H258221   0.425   6.317  14.115 -2.0691 -0.1177  1.4171
12244TIP3   OH258222   0.985   5.102  13.486  0.6942  0.6634 -0.1328
12244TIP3    H158223   1.029   5.177  13.447  0.3424  1.4814  0.9834
12244TIP3    H258224   1.002   5.111  13.580 -0.9367  0.4059  0.2218
12245TIP3   OH258225   4.655   4.319   0.940  0.3208 -0.4504  0.0144
12245TIP3    H158226   4.717   4.384   0.972 -1.3625  0.9336  0.6609
12245TIP3    H258227   4.613   4.361   0.864 -0.3248 -1.0386  0.0340
12246TIP3   OH258228   5.509   2.528   0.565  0.2226  0.0015 -0.2163
12246TIP3    H158229   5.548   2.593   0.623 -0.4163  0.6596 -0.5071
12246TIP3    H258230   5.414   2.543   0.572  0.0875 -0.6114 -0.6170
12247TIP3   OH258231   3.716   0.360   5.071  0.1568  0.2229 -0.4293
12247TIP3    H158232   3.634   0.309   5.070  1.3749 -1.9203  0.8782
12247TIP3    H258233   3.739   0.370   4.979  0.4894 -2.8021 -0.7876
12248TIP3   OH258234   1.453   2.536   5.724 -0.1220 -0.5873  0.6252
12248TIP3    H158235   1.417   2.582   5.648 -0.1004  0.6809  1.3553
12248TIP3    H258236   1.507   2.601   5.768 -0.8327 -1.0330  2.2178
12249TIP3   OH258237   1.056   4.074   2.300 -0.2739  0.2773 -0.0173
12249TIP3    H158238   1.106   4.028   2.368 -0.6412  0.3896  0.3397
12249TIP3    H258239   1.103   4.156   2.286 -1.1581  1.0687  1.4061
12250TIP3   OH258240   2.125   3.829   2.315  0.3837  0.6940  0.0515
12250TIP3    H158241   2.132   3.768   2.388  0.6452  0.5608 -0.0845
12250TIP3    H258242   2.207   3.877   2.316  1.1298 -0.4902 -1.2062
12251TIP3   OH258243   4.526   1.930   3.829  0.2904  0.8590  0.5375
12251TIP3    H158244   4.549   2.023   3.836  1.1702  0.6275  0.7705
12251TIP3    H258245   4.599   1.891   3.781 -0.3466  0.3816 -0.0732
12252TIP3   OH258246   1.833   1.723   5.214  0.3572  0.0469 -0.7882
12252TIP3    H158247   1.840   1.802   5.161  3.9676  0.5683  0.1645
12252TIP3    H258248   1.771   1.745   5.283  0.2550  1.5430 -1.3308
12253TIP3   OH258249   5.743   0.227   3.358  0.1771  0.5106  0.2985
12253TIP3    H158250   5.667   0.267   3.399 -0.5223  0.8136 -1.2142
12253TIP3    H258251   5.786   0.298   3.311 -1.3106 -0.4180 -2.7734
12254TIP3   OH258252   2.234   4.073  13.279  0.2290 -0.1429  0.4113
12254TIP3    H158253   2.287   4.152  13.292 -0.8415  0.7438 -0.4564
12254TIP3    H258254   2.148   4.106  13.254  0.0070 -1.6027 -0.8442
12255TIP3   OH258255   1.583   3.735  14.112  0.1230 -0.4512  0.0934
12255TIP3    H158256   1.628   3.818  14.130 -2.3054  1.5750 -2.1814
12255TIP3    H258257   1.640   3.690  14.051  0.2911  0.9019 -0.8049
12256TIP3   OH258258   2.300   3.933   4.305  0.1377  0.3317  0.2560
12256TIP3    H158259   2.219   3.982   4.292  0.2095  0.8085  1.5590
12256TIP3    H258260   2.324   3.948   4.396  1.1118 -0.6991  0.1931
12257TIP3   OH258261   5.898   1.093   4.135  0.5496 -0.2817 -0.2125
12257TIP3    H158262   5.930   1.183   4.137 -0.1526 -0.0234  1.0418
12257TIP3    H258263   5.818   1.096   4.189 -0.7294 -1.2036 -1.9517
12258TIP3   OH258264   3.852   5.509  11.766  0.4510  0.5158  0.1527
12258TIP3    H158265   3.882   5.538  11.852  0.6782 -0.5402  0.4471
12258TIP3    H258266   3.923   5.453  11.733 -0.8560 -1.4943  0.5709
12259TIP3   OH258267   0.768   1.159  13.325 -0.1761 -0.0238  0.1277
12259TIP3    H158268   0.804   1.073  13.304  0.5687  0.3537 -0.1756
12259TIP3    H258269   0.694   1.141  13.382 -0.3984 -0.9028 -0.4235
12260TIP3   OH258270   2.769   1.946  15.637  0.0299  0.3806  0.0135
12260TIP3    H158271   2.829   1.949  15.712  1.0706 -0.2917 -0.7574
12260TIP3    H258272   2.700   2.008  15.659 -0.5888 -0.9778  2.2867
12261TIP3   OH258273   2.428   6.088   2.202  0.3281  0.2795  0.3316
12261TIP3    H158274   2.505   6.070   2.256 -1.3020 -2.3163  2.0086
12261TIP3    H258275   2.420   6.011   2.145 -1.6302 -0.1159  1.0519
12262TIP3   OH258276   1.852   1.104  12.204  0.0454 -0.1603 -0.4413
12262TIP3    H158277   1.832   1.130  12.114  0.0088 -2.7272 -1.2467
12262TIP3    H258278   1.767   1.089  12.244  0.0353  1.5481  0.2693
12263TIP3   OH258279   2.188   4.086   0.202 -0.2976  0.0626 -0.0116
12263TIP3    H158280   2.171   4.113   0.292  2.2720  0.9252  0.3062
12263TIP3    H258281   2.284   4.092   0.193 -0.3437 -1.4880 -2.3400
12264TIP3   OH258282   5.763   1.648  12.003 -0.0129 -0.5854 -0.3347
12264TIP3    H158283   5.731   1.621  12.089  0.2135 -0.3560 -0.1779
12264TIP3    H258284   5.723   1.734  11.989  0.0072 -0.5909 -0.4298
12265TIP3   OH258285   4.237   1.827  14.892 -1.0552 -1.1258 -0.3751
12265TIP3    H158286   4.149   1.866  14.886 -1.6157 -2.3488 -0.3460
12265TIP3    H258287   4.221   1.733  14.898  0.2318 -1.3039  0.6235
12266TIP3   OH258288   4.382   3.934  12.190 -0.3056 -0.1548  0.2354
12266TIP3    H158289   4.317   3.989  12.234  0.8871 -0.4093  2.4769
12266TIP3    H258290   4.402   3.981  12.109  0.2742  2.5297  1.7836
12267TIP3   OH258291   3.497   2.202   2.548  0.0444  0.1073 -0.4828
12267TIP3    H158292   3.534   2.171   2.631  0.5540  1.3764 -0.2162
12267TIP3    H258293   3.410   2.235   2.571  0.6700  1.6155 -0.2003
12268TIP3   OH258294   4.327   3.988   6.721 -0.6098  0.3746  0.3766
12268TIP3    H158295   4.280   3.914   6.682 -0.1683  1.5446 -2.6469
12268TIP3    H258296   4.258   4.048   6.749 -1.0221  0.8568 -1.5094
12269TIP3   OH258297   6.274   0.297   1.024  0.4682  0.4048  0.8567
12269TIP3    H158298   6.197   0.305   1.079  1.2201 -2.9433  2.6454
12269TIP3    H258299   6.244   0.247   0.947  0.8330 -1.2616  1.7462
12270TIP3   OH258300   6.134   4.101  14.897 -0.8246 -0.1173  0.0486
12270TIP3    H158301   6.150   4.190  14.863 -1.4521  0.1070  0.3289
12270TIP3    H258302   6.146   4.110  14.992  2.2054 -1.0156 -0.1516
12271TIP3   OH258303   4.695   5.503   5.159  0.1716  0.4658 -0.1065
12271TIP3    H158304   4.648   5.586   5.154 -1.0288 -0.1703  0.1903
12271TIP3    H258305   4.745   5.499   5.078  0.7844  1.7727  0.1792
12272TIP3   OH258306   3.137   4.300   2.359  0.2479 -0.2781 -0.2031
12272TIP3    H158307   3.178   4.384   2.336 -0.4852  0.3240  0.6516
12272TIP3    H258308   3.176   4.276   2.443 -1.1190  0.3120  0.6347
12273TIP3   OH258309   3.383   5.149   0.815 -0.1582  0.7695 -0.4104
12273TIP3    H158310   3.396   5.243   0.828  1.5554  0.7303 -1.5355
12273TIP3    H258311   3.465   5.109   0.842 -0.6986 -0.3589 -0.4008
12274TIP3   OH258312   3.835   4.139  13.128 -0.1801 -0.2512 -0.1669
12274TIP3    H158313   3.786   4.109  13.204  0.7488  1.3562  1.1309
12274TIP3    H258314   3.893   4.066  13.107 -1.8174 -1.4812 -0.6297
12275TIP3   OH258315   1.633   2.299   4.778 -0.0449  0.7806  0.3187
12275TIP3    H158316   1.719   2.258   4.766 -0.0658  0.6758  0.5263
12275TIP3    H258317   1.573   2.226   4.790 -0.0946  0.8708  0.6168
12276TIP3   OH258318   3.344   4.212   4.644 -0.3152  1.0102  0.1677
12276TIP3    H158319   3.269   4.157   4.623  0.8667 -0.1471 -1.2471
12276TIP3    H258320   3.308   4.282   4.698 -2.1255 -0.3373  0.8073
12277TIP3   OH258321   4.160   1.028  11.929 -0.3100 -0.2470 -0.3876
12277TIP3    H158322   4.078   0.983  11.907 -0.5237  0.4319 -1.0177
12277TIP3    H258323   4.226   0.983  11.876 -0.5380  0.2113 -1.0843
12278TIP3   OH258324   0.977   6.287   0.801 -0.7936 -0.0661  0.0400
12278TIP3    H158325   1.039   6.241   0.743 -1.0936  0.1690 -0.4719
12278TIP3    H258326   0.892   6.248   0.780 -0.9617  0.3012  0.0404
12279TIP3   OH258327   1.635   2.386  13.005  0.6035 -0.5546  0.1698
12279TIP3    H158328   1.685   2.467  12.999  0.5877 -0.5390  0.2396
12279TIP3    H258329   1.687   2.322  12.956  0.3717 -0.3870 -0.2989
12280TIP3   OH258330   5.294   5.587   1.238  0.3112 -0.2474 -0.2426
12280TIP3    H158331   5.299   5.659   1.301 -1.4159  0.5335 -0.9157
12280TIP3    H258332   5.322   5.626   1.155 -0.6345 -0.3184 -0.6113
12281TIP3   OH258333   5.966   1.580   1.459  0.2009 -0.3015 -0.3276
12281TIP3    H158334   5.951   1.610   1.548 -0.1583 -2.0115  0.2402
12281TIP3    H258335   5.990   1.488   1.469 -0.9528 -0.8482 -2.0430
12282TIP3   OH258336   4.291   6.479   1.903  0.3507 -0.5012 -0.2100
12282TIP3    H158337   4.197   6.495   1.917  0.3168  0.3474 -1.2044
12282TIP3    H258338   4.310   6.526   1.821  1.8746  0.2181  0.5257
12283TIP3   OH258339   2.507   3.705   3.471  0.3806 -0.1244 -0.1215
12283TIP3    H158340   2.551   3.620   3.461  0.4673 -0.1979  0.7656
12283TIP3    H258341   2.438   3.704   3.405  2.2605  0.3789 -2.2395
12284TIP3   OH258342   1.539   4.832  15.240 -0.4665  0.5970  0.2417
12284TIP3    H158343   1.513   4.833  15.332  0.8240  1.5375  0.6321
12284TIP3    H258344   1.542   4.925  15.215  1.8658  0.5318  0.0835
12285TIP3   OH258345   5.911   4.278  14.339 -0.0464 -0.7220  0.3603
12285TIP3    H158346   6.005   4.262  14.342  0.1716  0.0077 -1.5028
12285TIP3    H258347   5.871   4.195  14.365  1.1043 -1.9922 -1.7097
12286TIP3   OH258348   1.981   3.084  12.722  0.1182 -0.2888 -0.3322
12286TIP3    H158349   1.910   3.088  12.657 -0.6543 -1.6019  0.3982
12286TIP3    H258350   2.053   3.133  12.682 -0.7484 -0.0706 -1.6699
12287TIP3   OH258351   3.338   1.168   0.423 -0.2900  0.4263 -0.3388
12287TIP3    H158352   3.243   1.178   0.416 -0.2016  0.5293 -1.8120
12287TIP3    H258353   3.351   1.115   0.502 -1.5797  0.2231 -0.2377
12288TIP3   OH258354   4.602   5.980   0.061  0.1556 -0.0502  0.4093
12288TIP3    H158355   4.557   5.903   0.027 -0.6772  1.1468 -1.2922
12288TIP3    H258356   4.532   6.038   0.091  0.7249  0.5404  0.6285
12289TIP3   OH258357   1.529   1.823  15.360 -0.2904 -0.2942 -0.2021
12289TIP3    H158358   1.543   1.886  15.430 -0.3459 -0.9214  0.3822
12289TIP3    H258359   1.605   1.834  15.302 -0.9691  1.2292 -0.8259
12290TIP3   OH258360   3.161   4.940   6.254 -0.2991 -0.0365 -0.0828
12290TIP3    H158361   3.095   4.998   6.215  0.7867  0.2244 -1.6385
12290TIP3    H258362   3.154   4.859   6.204 -1.0486 -0.9062  1.3524
12291TIP3   OH258363   4.318   3.731  14.465  0.3156  0.3988 -0.4668
12291TIP3    H158364   4.394   3.746  14.408  0.8164  1.8442  0.5214
12291TIP3    H258365   4.355   3.731  14.554 -0.9853  2.6885  0.1552
12292TIP3   OH258366   3.795   4.614  15.386  0.5293 -0.4542 -0.0014
12292TIP3    H158367   3.747   4.572  15.457 -0.2711 -0.9557 -0.8343
12292TIP3    H258368   3.859   4.670  15.431  0.4999 -1.2826  1.1137
12293TIP3   OH258369   5.341   2.647   1.360  0.0921 -0.5108  0.3561
12293TIP3    H158370   5.401   2.573   1.374  0.2561 -0.7020 -1.1901
12293TIP3    H258371   5.253   2.608   1.364  0.1879 -0.8553 -0.7430
12294TIP3   OH258372   1.020   0.032   6.629 -0.0650 -0.5521 -0.4081
12294TIP3    H158373   1.005   0.106   6.688  1.1064 -1.0031  0.5135
12294TIP3    H258374   0.934  -0.010   6.621 -1.4530  2.4313 -3.2456
12295TIP3   OH258375   1.803   3.117   0.572 -0.0535 -0.3460  0.8572
12295TIP3    H158376   1.762   3.098   0.657 -0.4912  0.8732  0.9318
12295TIP3    H258377   1.823   3.210   0.576 -0.1012 -0.2740 -0.3976
12296TIP3   OH258378   0.998   2.108   3.660 -0.2975 -0.3336  0.2333
12296TIP3    H158379   1.055   2.079   3.732  1.6956 -0.5781 -1.3537
12296TIP3    H258380   0.962   2.027   3.624  0.1680 -0.3659 -0.1719
12297TIP3   OH258381   4.166   1.056   0.789 -0.0761 -0.2826 -0.2502
12297TIP3    H158382   4.166   1.134   0.733 -0.7757  0.6248  0.9514
12297TIP3    H258383   4.090   1.005   0.759  1.0480 -1.1230 -1.8062
12298TIP3   OH258384   4.129   4.378   2.553  0.0504  0.7680  0.5157
12298TIP3    H158385   4.045   4.413   2.584  0.9180  1.5923  2.0407
12298TIP3    H258386   4.179   4.456   2.528 -0.1145  0.2143 -1.8247
12299TIP3   OH258387   2.184   1.634   1.059  0.3128  0.6009  0.5985
12299TIP3    H158388   2.233   1.591   0.989  0.4276 -1.7837  2.0446
12299TIP3    H258389   2.131   1.564   1.097  0.0913  1.8630  2.7480
12300TIP3   OH258390   5.559   4.182  12.713  0.4124  0.2192  0.3071
12300TIP3    H158391   5.548   4.169  12.619 -0.2724  0.1466  0.3869
12300TIP3    H258392   5.491   4.246  12.736  1.4340  1.2461  0.5361
12301TIP3   OH258393   0.122   3.300   4.464 -0.1443  0.1872  0.0582
12301TIP3    H158394   0.191   3.366   4.467  1.7650 -1.7037 -0.0631
12301TIP3    H258395   0.080   3.305   4.550 -0.6226  2.0865 -0.2464
12302TIP3   OH258396   5.010   1.940  11.854  0.2729  0.2611 -0.2542
12302TIP3    H158397   5.015   1.945  11.950 -0.0427  0.3402 -0.2439
12302TIP3    H258398   4.933   1.992  11.831 -1.3222 -2.0017 -0.3479
12303TIP3   OH258399   1.008   2.004   3.948 -0.4292 -0.1862  0.0686
12303TIP3    H158400   0.963   2.014   4.032  0.0199  1.7585  0.1276
12303TIP3    H258401   1.087   1.954   3.969  0.5262  1.6863  1.1647
12304TIP3   OH258402   5.034   0.328   2.121 -0.4081  0.1274  0.2651
12304TIP3    H158403   5.093   0.336   2.046  0.2122  0.9399  0.8149
12304TIP3    H258404   5.004   0.418   2.137 -0.8436 -0.1032  0.7406
12305TIP3   OH258405   0.051   5.630   4.869 -0.4084 -0.9014  0.7701
12305TIP3    H158406   0.106   5.707   4.883 -0.2682 -0.5908 -1.2738
12305TIP3    H258407  -0.020   5.640   4.932  0.2198  0.2992  1.3287
12306TIP3   OH258408   3.198   6.756  11.634 -0.0087  0.1484  0.4894
12306TIP3    H158409   3.183   6.812  11.711  1.8955  0.5943  0.5855
12306TIP3    H258410   3.282   6.714  11.652 -0.5161 -1.3399 -0.4472
12307TIP3   OH258411   2.969   6.544  15.007  0.3337 -0.2199  0.6208
12307TIP3    H158412   2.993   6.458  15.043  0.7140  0.5409  2.3044
12307TIP3    H258413   3.025   6.554  14.930  0.9859 -1.0792  0.9600
12308TIP3   OH258414   6.540   5.584   3.511 -0.3489 -0.1431 -0.6123
12308TIP3    H158415   6.583   5.663   3.481  0.5897 -1.4703 -3.0322
12308TIP3    H258416   6.469   5.569   3.448 -0.2436 -1.4459 -0.4667
12309TIP3   OH258417   4.486   6.330   4.220  0.3617 -0.0316  0.1181
12309TIP3    H158418   4.487   6.322   4.125  0.3570  1.1507  0.0079
12309TIP3    H258419   4.575   6.356   4.244  0.0254  0.9616  0.3089
12310TIP3   OH258420   3.138   0.701   5.522 -0.1817  0.1180  0.1211
12310TIP3    H158421   3.225   0.741   5.518 -0.4134  0.5999 -0.1457
12310TIP3    H258422   3.095   0.727   5.441 -0.0575 -1.3531 -0.4458
12311TIP3   OH258423   0.364   6.677  15.661 -0.5157 -0.5690  0.7002
12311TIP3    H158424   0.363   6.692  15.567  0.8757  1.1174  0.9065
12311TIP3    H258425   0.276   6.645  15.681 -1.4555  0.8733 -0.8970
12312TIP3   OH258426   2.762   3.087   3.371 -0.3057 -0.1831 -0.4733
12312TIP3    H158427   2.669   3.063   3.375  0.2351 -2.2372  1.6701
12312TIP3    H258428   2.777   3.138   3.450  0.3336  0.5059 -1.0235
12313TIP3   OH258429   5.850   2.462  17.097 -0.1737  0.8793  0.0928
12313TIP3    H158430   5.905   2.526  17.052  0.2234  0.6564  0.2573
12313TIP3    H258431   5.776   2.449  17.038  0.4010  0.4952 -0.5637
12314TIP3   OH258432   2.755   1.216   0.743  0.5814 -0.2852  0.0146
12314TIP3    H158433   2.677   1.245   0.791  0.9760 -1.0008  1.1400
12314TIP3    H258434   2.828   1.248   0.796  1.0666  0.2844 -0.9713
12315TIP3   OH258435   4.338   2.465  17.008 -0.3428  0.2623  0.1879
12315TIP3    H158436   4.331   2.419  16.924  0.2024 -0.1253  0.3454
12315TIP3    H258437   4.295   2.407  17.071 -2.1958  1.2874 -0.0712
12316TIP3   OH258438   6.238   2.411  11.564  0.4896 -0.2805  0.5811
12316TIP3    H158439   6.311   2.349  11.560 -0.4968 -1.5683  1.6293
12316TIP3    H258440   6.261   2.470  11.636  0.1422 -1.1946  1.4632
12317TIP3   OH258441   1.720   3.281   4.548  0.1613  0.1682 -0.5010
12317TIP3    H158442   1.781   3.224   4.502  0.4633  0.3148 -0.2871
12317TIP3    H258443   1.669   3.222   4.603  0.3768  0.0879 -0.3854
12318TIP3   OH258444   2.992   1.123  17.239  0.1680 -0.3068 -0.5513
12318TIP3    H158445   3.051   1.197  17.246  0.9733 -0.9751 -0.0821
12318TIP3    H258446   2.916   1.147  17.292  0.0941  0.4803 -1.0076
12319TIP3   OH258447   5.856   6.252   3.678  0.0494  0.0766  0.0705
12319TIP3    H158448   5.876   6.222   3.590 -0.9300 -0.6340  0.0695
12319TIP3    H258449   5.810   6.335   3.666 -1.6243 -0.8524 -0.2049
12320TIP3   OH258450   3.010   4.521  15.660 -0.3267  0.1814 -0.8613
12320TIP3    H158451   3.042   4.567  15.582 -0.9622  1.1620 -0.5506
12320TIP3    H258452   2.925   4.485  15.634  0.3026 -1.1288 -1.2045
12321TIP3   OH258453   3.766   0.197  11.972  0.3097 -0.2956 -0.5097
12321TIP3    H158454   3.791   0.246  11.893  1.2645  0.6200  0.3391
12321TIP3    H258455   3.794   0.107  11.954  0.0309 -0.2138 -1.4200
12322TIP3   OH258456   6.385   0.167   1.244 -0.0916  0.2363  0.0012
12322TIP3    H158457   6.320   0.149   1.312  0.8367  0.2438  0.9033
12322TIP3    H258458   6.333   0.186   1.166 -1.1639 -1.2442  0.3168
12323TIP3   OH258459   3.331   0.929   1.533  0.3179 -0.2285 -0.2648
12323TIP3    H158460   3.394   0.944   1.462  3.3844 -1.6417  1.9235
12323TIP3    H258461   3.334   0.834   1.548 -1.8610 -0.2425  0.4477
12324TIP3   OH258462   5.054   4.218  10.945  0.1727  0.0058 -0.4832
12324TIP3    H158463   5.035   4.255  11.032 -1.4859 -0.1536 -0.7463
12324TIP3    H258464   5.041   4.291  10.885 -0.7030 -0.3813 -0.7756
12325TIP3   OH258465   3.854   2.722  10.416 -0.1303 -0.3350 -0.1923
12325TIP3    H158466   3.938   2.677  10.423  0.0858  0.1546  0.4115
12325TIP3    H258467   3.789   2.653  10.422  0.2067 -0.6112  0.2941
12326TIP3   OH258468   2.455   4.842   1.759 -0.1619 -0.1773 -0.1098
12326TIP3    H158469   2.382   4.792   1.724  1.2903 -2.4187 -0.1401
12326TIP3    H258470   2.533   4.791   1.735  1.2174  0.6616  2.2302
12327TIP3   OH258471   0.810   2.184  17.112  0.3048 -0.0206  0.4968
12327TIP3    H158472   0.737   2.176  17.173 -1.0113 -0.1129 -1.0150
12327TIP3    H258473   0.817   2.278  17.095 -1.4840 -0.1700 -1.5836
12328TIP3   OH258474   6.301   6.312  13.655  0.0141  0.0268  0.1018
12328TIP3    H158475   6.289   6.342  13.745 -3.7864 -3.3214  1.0285
12328TIP3    H258476   6.224   6.345  13.608  1.5893  1.1562 -1.8552
12329TIP3   OH258477   3.477   4.959   5.909  0.2914  0.4773 -0.2340
12329TIP3    H158478   3.459   4.998   5.995 -1.2681  0.0927 -0.3666
12329TIP3    H258479   3.569   4.934   5.914 -0.2672 -1.4788  2.1161
12330TIP3   OH258480   5.322   1.364   5.916  0.6078  0.1838 -0.5223
12330TIP3    H158481   5.321   1.271   5.892  0.0717  0.2359 -0.7189
12330TIP3    H258482   5.339   1.409   5.833  0.8622  0.2627 -0.4276
12331TIP3   OH258483   4.703   3.688   1.861 -0.2140  0.9727 -0.0637
12331TIP3    H158484   4.617   3.686   1.902  0.0340 -0.8476  0.4558
12331TIP3    H258485   4.685   3.687   1.767 -0.7574  1.3175  0.0317
12332TIP3   OH258486   4.010   0.470  15.985 -0.0067 -0.0826  0.6939
12332TIP3    H158487   4.026   0.556  15.946  1.8269 -0.2095  1.1124
12332TIP3    H258488   4.062   0.410  15.932 -2.8547 -1.3342 -0.9382
12333TIP3   OH258489   3.905   0.877   2.611 -0.6731 -0.1636  0.1148
12333TIP3    H158490   3.812   0.857   2.620 -1.0345  1.6308  0.7830
12333TIP3    H258491   3.935   0.822   2.539 -1.6155 -2.7436  1.5545
12334TIP3   OH258492   3.386   3.626  14.234  0.2291 -0.0867  0.0418
12334TIP3    H158493   3.391   3.539  14.194 -0.3729  0.1628 -0.5867
12334TIP3    H258494   3.350   3.682  14.165 -2.7862 -0.0261  1.5044
12335TIP3   OH258495   0.006   5.117   0.951  0.3575  0.2666  0.5484
12335TIP3    H158496   0.060   5.078   0.882 -3.3504 -2.1656 -1.2901
12335TIP3    H258497  -0.030   5.042   0.998 -0.7520  1.7831  2.2244
12336TIP3   OH258498   2.404   2.704   4.750 -0.3851 -0.3045 -0.0865
12336TIP3    H158499   2.380   2.615   4.772  1.3001 -0.7766 -0.0406
12336TIP3    H258500   2.392   2.754   4.831 -0.3298 -0.7026  0.1644
12337TIP3   OH258501   0.890   2.973   4.254  0.1184  0.3128  0.3037
12337TIP3    H158502   0.892   3.067   4.234 -0.7750  0.3412  0.3173
12337TIP3    H258503   0.798   2.954   4.272  0.5880 -0.1378  2.4442
12338TIP3   OH258504   5.318   2.332  11.660  0.0651  0.6638  1.1720
12338TIP3    H158505   5.341   2.359  11.749 -1.3306  0.7005  1.5513
12338TIP3    H258506   5.223   2.345  11.655 -0.1665 -1.0505  0.2806
12339TIP3   OH258507   4.314   1.066  15.353 -0.3563  0.1874 -0.0454
12339TIP3    H158508   4.303   1.111  15.437  0.5981 -1.7394  1.1622
12339TIP3    H258509   4.233   1.016  15.342  0.2232 -0.9061  0.5912
12340TIP3   OH258510   1.734   3.316   1.929  0.1676  0.0421  0.6642
12340TIP3    H158511   1.743   3.320   1.834 -0.7361  0.0282  0.5697
12340TIP3    H258512   1.702   3.227   1.946  1.0287 -0.2044  1.0500
12341TIP3   OH258513   6.049   6.515   3.671 -0.2781  0.3518  0.1618
12341TIP3    H158514   5.987   6.587   3.682 -0.9636 -0.0001 -1.1540
12341TIP3    H258515   6.098   6.538   3.592 -1.3178 -1.1541 -0.9823
12342TIP3   OH258516   2.748   1.092   1.212  0.4370 -0.0162  0.2518
12342TIP3    H158517   2.819   1.075   1.274  0.2484  1.2644  0.8572
12342TIP3    H258518   2.720   1.005   1.183  1.2180 -0.5988  1.1823
12343TIP3   OH258519   4.102   0.100  15.984  0.0879 -0.2940 -0.4157
12343TIP3    H158520   4.132   0.017  15.947  0.0309 -1.0076  1.0666
12343TIP3    H258521   4.154   0.112  16.063 -1.2904  0.0673  0.4709
12344TIP3   OH258522   0.718   5.417   0.423  0.3279 -0.0845 -0.0957
12344TIP3    H158523   0.706   5.506   0.456 -0.2653 -0.8586  1.9447
12344TIP3    H258524   0.812   5.401   0.430  0.2974  0.0131  0.5677
12345TIP3   OH258525   6.389   4.779   6.196 -0.1777  0.1680  0.4428
12345TIP3    H158526   6.375   4.790   6.290 -1.9766 -0.9619  0.3714
12345TIP3    H258527   6.481   4.756   6.187 -0.1519 -0.4489  2.0334
12346TIP3   OH258528   6.776   2.252   1.475 -0.0682  0.5281  0.0256
12346TIP3    H158529   6.785   2.179   1.413  1.1448  0.5491  0.1629
12346TIP3    H258530   6.725   2.317   1.426 -1.0848 -0.3423 -0.1338
12347TIP3   OH258531   2.873   0.073  11.445 -0.0373 -0.1639  0.5925
12347TIP3    H158532   2.814   0.148  11.455  2.2519  1.7011  0.9126
12347TIP3    H258533   2.896   0.072  11.352  2.2399  1.4758  1.0664
12348TIP3   OH258534   0.933   2.531  12.934 -0.0489  0.1460  0.1882
12348TIP3    H158535   0.897   2.496  12.853  0.5142  0.7618 -0.3314
12348TIP3    H258536   0.884   2.611  12.950  0.8943  0.8584 -0.3918
12349TIP3   OH258537   2.472   5.105   0.021 -0.6590 -0.7291 -0.1810
12349TIP3    H158538   2.450   5.101  -0.072  0.4370  1.8521 -0.6343
12349TIP3    H258539   2.568   5.097   0.023 -0.8034 -3.1159  0.9971
12350TIP3   OH258540   4.847   3.029   3.161  0.0383 -0.1876  0.3088
12350TIP3    H158541   4.808   3.031   3.073  1.6872 -0.3139 -0.4627
12350TIP3    H258542   4.833   2.940   3.191  2.0522 -1.0527 -1.1033
12351TIP3   OH258543   4.007   6.537  16.711  0.4224  0.2299  0.1687
12351TIP3    H158544   4.033   6.451  16.744 -2.4188 -0.5422  0.6585
12351TIP3    H258545   4.033   6.536  16.619  1.2092 -0.7965  0.3882
12352TIP3   OH258546   6.215   4.003   3.913  0.8819 -0.4363 -0.5391
12352TIP3    H158547   6.191   4.095   3.920  2.4902 -0.0795  0.9349
12352TIP3    H258548   6.227   3.989   3.819  1.6141  1.1346 -0.7144
12353TIP3   OH258549   0.152   5.611   1.815  0.2293  0.7234  0.5852
12353TIP3    H158550   0.071   5.560   1.819 -0.7288  1.9825 -1.1059
12353TIP3    H258551   0.157   5.656   1.899 -1.0552  0.9077  0.5847
12354TIP3   OH258552   0.388   3.148   5.163 -0.3915 -1.0354 -0.0699
12354TIP3    H158553   0.356   3.102   5.085 -1.3472  0.4402 -0.5902
12354TIP3    H258554   0.332   3.226   5.170  0.6435 -0.3632  1.2437
12355TIP3   OH258555   2.740   1.726  13.577 -0.3476  0.4919  0.2547
12355TIP3    H158556   2.793   1.733  13.497  0.4985  3.0293  0.9391
12355TIP3    H258557   2.791   1.667  13.633  0.1936  0.4756 -0.2350
12356TIP3   OH258558   5.170   2.110  14.127 -0.1573  0.1953 -0.8500
12356TIP3    H158559   5.096   2.087  14.072 -0.6726 -1.6014  0.4727
12356TIP3    H258560   5.139   2.181  14.182 -1.0060 -0.6381 -0.2093
12357TIP3   OH258561   6.281   6.247  11.752 -0.4039  0.0697  0.4642
12357TIP3    H158562   6.194   6.232  11.715 -0.1155 -1.4075  0.3239
12357TIP3    H258563   6.272   6.225  11.844 -0.0705 -0.5896  0.3462
12358TIP3   OH258564   2.995   5.121   4.828 -0.2059 -0.4385 -0.3250
12358TIP3    H158565   2.953   5.198   4.790  0.9301  0.5716  0.4159
12358TIP3    H258566   2.973   5.125   4.921 -1.7174 -2.0797 -0.5446
12359TIP3   OH258567   4.513   3.455   2.308 -0.3594 -0.0119  0.5454
12359TIP3    H158568   4.432   3.503   2.289 -1.7202 -2.0313  0.9330
12359TIP3    H258569   4.523   3.393   2.236  0.3266 -0.4123  0.9641
12360TIP3   OH258570   5.455   1.089  13.781 -0.1299  0.5291  0.9153
12360TIP3    H158571   5.420   1.059  13.864 -1.1492  1.2461  0.7600
12360TIP3    H258572   5.383   1.136  13.739  0.7656  1.3383  0.2159
12361TIP3   OH258573   0.847   1.509  11.445 -0.2417 -0.1492  0.2778
12361TIP3    H158574   0.772   1.458  11.415  0.4716 -2.6575  2.3332
12361TIP3    H258575   0.865   1.571  11.375 -3.7877  0.1065 -0.5712
12362TIP3   OH258576   4.532   1.168  15.835 -0.2299 -0.8590 -0.5620
12362TIP3    H158577   4.494   1.081  15.825 -0.8485 -0.4488 -2.1794
12362TIP3    H258578   4.627   1.153  15.830 -0.3575 -1.3593 -1.9695
12363TIP3   OH258579   4.817   2.135   3.993 -0.0898 -0.6064 -0.0952
12363TIP3    H158580   4.859   2.219   4.014 -0.3396 -0.4816 -0.0940
12363TIP3    H258581   4.889   2.080   3.960  0.1436 -0.5162  0.2572
12364TIP3   OH258582   0.041   5.036  14.824 -0.4665  0.1996  0.1201
12364TIP3    H158583   0.064   5.051  14.915  0.6616 -0.5383 -0.0262
12364TIP3    H258584   0.086   5.104  14.775 -0.0737 -0.1403  0.0041
12365TIP3   OH258585   2.555   3.801   2.989 -0.1235 -0.3515 -0.3936
12365TIP3    H158586   2.629   3.744   3.011  0.8665  0.3451 -1.7709
12365TIP3    H258587   2.591   3.890   2.994 -0.9839  0.0208 -0.6608
12366TIP3   OH258588   3.946   0.301   5.629 -0.0690  0.1439 -0.2264
12366TIP3    H158589   3.896   0.363   5.682  0.7061  1.2612 -0.7571
12366TIP3    H258590   4.022   0.351   5.599 -0.3147 -0.5323 -2.1377
12367TIP3   OH258591   6.441   4.958   1.121  0.4361  0.8711  0.7013
12367TIP3    H158592   6.408   4.871   1.100  0.3994  1.1492 -0.4779
12367TIP3    H258593   6.424   5.009   1.042 -0.6741  2.2886  1.7880
12368TIP3   OH258594   0.725   1.004  13.031  0.0958  0.3048 -0.1397
12368TIP3    H158595   0.778   0.952  12.970 -0.6896 -1.0096  0.2697
12368TIP3    H258596   0.685   0.939  13.089 -0.9954  1.3720  0.3275
12369TIP3   OH258597   3.539   3.391   0.890 -0.0338 -0.0984  0.1372
12369TIP3    H158598   3.561   3.403   0.797  0.5449  1.4133  0.4408
12369TIP3    H258599   3.445   3.406   0.894 -0.1497 -0.6937 -0.2817
12370TIP3   OH258600   0.397   1.520   4.402 -0.0199 -0.3356 -0.3218
12370TIP3    H158601   0.388   1.611   4.371  0.9660 -0.3392 -0.6697
12370TIP3    H258602   0.316   1.478   4.376 -0.1157  0.2263 -0.9684
12371TIP3   OH258603   4.093   5.908  13.367  0.7180 -0.3813  0.0125
12371TIP3    H158604   4.103   5.831  13.423 -0.4888 -0.3667  0.2927
12371TIP3    H258605   4.009   5.945  13.394  1.3112  1.0790 -0.0759
12372TIP3   OH258606   1.505   6.621   4.218 -0.5023 -0.1661 -0.3129
12372TIP3    H158607   1.429   6.620   4.277  1.0132 -0.8150  1.7493
12372TIP3    H258608   1.515   6.713   4.193 -0.2909  0.4312  1.7596
12373TIP3   OH258609   1.892   2.025   1.150 -0.0517 -0.0374 -0.2688
12373TIP3    H158610   1.853   1.986   1.228 -1.4587  0.3104 -0.7788
12373TIP3    H258611   1.911   2.115   1.175  0.1798 -0.1336 -0.0987
12374TIP3   OH258612   6.500   1.102  14.543 -0.1183 -0.5061  0.2272
12374TIP3    H158613   6.506   1.195  14.566 -1.6969 -0.5683  1.0389
12374TIP3    H258614   6.422   1.071  14.589 -0.0874 -2.0514 -0.6872
12375TIP3   OH258615   1.776   1.474   3.675  0.7293 -0.3319  0.3595
12375TIP3    H158616   1.771   1.452   3.768 -0.7529 -0.0283  0.3822
12375TIP3    H258617   1.718   1.411   3.632 -1.7898  1.9680  0.1583
12376TIP3   OH258618   2.701   0.425  12.954  0.3743  0.7642  0.1902
12376TIP3    H158619   2.664   0.382  13.031 -1.0336  2.0026  0.2540
12376TIP3    H258620   2.783   0.379  12.937  0.4005  0.0640  2.0501
12377TIP3   OH258621   2.010   2.868  13.441  0.7903  0.5865 -0.1610
12377TIP3    H158622   2.031   2.933  13.374 -2.5628  1.1153 -0.8584
12377TIP3    H258623   1.934   2.822  13.406 -0.2261 -0.0697  2.6732
12378TIP3   OH258624   1.355   4.763   4.876 -0.2205  0.3235  0.3981
12378TIP3    H158625   1.425   4.761   4.810 -1.4448  0.1821 -0.9624
12378TIP3    H258626   1.363   4.848   4.917 -0.2578  0.9873 -0.9072
12379TIP3   OH258627   6.484   2.167   0.643 -0.3461 -0.1210  0.1677
12379TIP3    H158628   6.399   2.124   0.638 -0.0760 -0.6352 -0.2385
12379TIP3    H258629   6.487   2.222   0.565  0.0196 -0.7432 -0.2672
12380TIP3   OH258630   1.613   4.851  12.732  0.1305  0.0922  0.5847
12380TIP3    H158631   1.615   4.755  12.730 -0.8809  0.0712  0.1570
12380TIP3    H258632   1.607   4.872  12.825 -3.0942 -0.3913  0.6068
12381TIP3   OH258633   5.191   2.551  15.688 -0.5162 -0.0902 -0.3014
12381TIP3    H158634   5.172   2.580  15.777  2.8251  0.7287  0.2545
12381TIP3    H258635   5.238   2.624  15.648  1.7281 -1.9336 -1.2939
12382TIP3   OH258636   2.554   4.711   3.055  0.0013  0.1676  0.6137
12382TIP3    H158637   2.638   4.736   3.016  0.2795 -0.4886  0.7842
12382TIP3    H258638   2.489   4.737   2.990  0.4742 -1.0873 -0.4066
12383TIP3   OH258639   2.305   1.905  12.114 -0.2327 -0.3169  0.8877
12383TIP3    H158640   2.372   1.928  12.049 -3.5996 -0.0457 -2.8902
12383TIP3    H258641   2.297   1.983  12.169 -1.1513  1.9560 -2.1926
12384TIP3   OH258642   6.319   2.802  12.311 -0.5380  0.5693 -0.3004
12384TIP3    H158643   6.405   2.769  12.338 -0.3434  0.8414 -0.5721
12384TIP3    H258644   6.339   2.862  12.239 -0.8797  1.2797  0.1912
12385TIP3   OH258645   1.854   3.344  12.798  0.5815 -0.1545 -0.4004
12385TIP3    H158646   1.898   3.262  12.822  1.2532  0.5293  0.8767
12385TIP3    H258647   1.926   3.403  12.775  0.2191  0.4890  0.0886
12386TIP3   OH258648   6.620   0.366   2.757 -0.2067 -0.5341  0.6277
12386TIP3    H158649   6.605   0.316   2.677 -0.6337 -0.4574  0.6587
12386TIP3    H258650   6.686   0.431   2.733  0.7143 -1.4047  0.7106
12387TIP3   OH258651   5.499   0.716  16.835  0.5768 -0.7974 -0.2552
12387TIP3    H158652   5.583   0.752  16.860  0.4352  0.0247 -0.9271
12387TIP3    H258653   5.503   0.624  16.862  1.4684 -0.6280  0.2119
12388TIP3   OH258654   0.701   4.472  12.584 -0.4862 -0.1099 -0.4133
12388TIP3    H158655   0.652   4.465  12.666 -0.3769  2.1361 -0.0991
12388TIP3    H258656   0.639   4.511  12.523  0.4874  1.6777 -0.3335
12389TIP3   OH258657   3.075   5.045   0.529  0.0657  0.4750 -0.3525
12389TIP3    H158658   3.054   5.104   0.456  1.3021  0.7673 -0.4964
12389TIP3    H258659   3.052   5.094   0.608  0.5278  0.9196 -0.4914
12390TIP3   OH258660   0.109   3.238   4.751  0.3358 -0.0778  0.0955
12390TIP3    H158661   0.045   3.168   4.744  1.0032 -0.7576  0.5472
12390TIP3    H258662   0.108   3.262   4.844  0.1172  0.5145 -0.0538
12391TIP3   OH258663   3.084   6.619   2.780  0.4874  0.0882  0.0733
12391TIP3    H158664   3.070   6.526   2.764 -0.8999  0.5105 -1.3270
12391TIP3    H258665   3.157   6.643   2.723  0.2741  0.0371 -0.2237
12392TIP3   OH258666   1.039   0.921  10.818 -0.1710 -0.7744 -0.0794
12392TIP3    H158667   1.134   0.922  10.808 -0.1067  2.2763 -0.2772
12392TIP3    H258668   1.006   0.924  10.728 -0.4262 -1.1568  0.0016
12393TIP3   OH258669   0.301   1.305   0.132  0.0580 -0.3766  0.1397
12393TIP3    H158670   0.299   1.239   0.202  1.0189  1.8538  2.4429
12393TIP3    H258671   0.390   1.340   0.136 -0.0992  0.3278 -1.7676
12394TIP3   OH258672   5.546   0.269   4.721 -0.0108 -0.3787 -1.0830
12394TIP3    H158673   5.490   0.345   4.706 -0.8918 -1.0506 -1.2404
12394TIP3    H258674   5.538   0.251   4.814  0.8613  0.2201 -0.8795
12395TIP3   OH258675   2.182   5.771   0.810 -0.1597 -0.0232  0.1437
12395TIP3    H158676   2.145   5.796   0.726 -0.8170  0.4441  0.5649
12395TIP3    H258677   2.109   5.735   0.859 -0.7148  3.0572  1.8635
12396TIP3   OH258678   0.898   5.042   5.069  0.7310 -0.3461  0.0086
12396TIP3    H158679   0.990   5.064   5.053  1.2836 -1.8701  0.8815
12396TIP3    H258680   0.886   5.057   5.163  0.0615 -0.0561 -0.1251
12397TIP3   OH258681   3.085   4.680   6.206  0.2581  0.1438  0.2001
12397TIP3    H158682   3.095   4.676   6.301 -0.1860  4.5291  0.6601
12397TIP3    H258683   2.999   4.643   6.188 -0.2591  0.5726  1.7091
12398TIP3   OH258684   2.283   4.989   4.749  0.5618 -0.0947  0.0125
12398TIP3    H158685   2.264   5.070   4.702 -0.4029 -0.2722  0.0808
12398TIP3    H258686   2.318   4.930   4.682  0.1475 -0.0117 -0.2789
12399TIP3   OH258687   6.318   2.790   3.359  0.0132 -0.0677 -0.1192
12399TIP3    H158688   6.301   2.741   3.440 -1.0233 -1.0652 -0.9093
12399TIP3    H258689   6.392   2.846   3.381  1.5216 -2.2352  0.7475
12400TIP3   OH258690   3.614   5.477  16.777 -0.1107  0.2114  0.0444
12400TIP3    H158691   3.679   5.531  16.733 -0.9925  1.3986  0.1504
12400TIP3    H258692   3.655   5.391  16.785  1.1194  0.7209 -0.6049
12401TIP3   OH258693   5.230   4.094  14.695  0.8263  0.1075  0.3485
12401TIP3    H158694   5.183   4.098  14.611  1.3115 -2.0653 -0.0834
12401TIP3    H258695   5.181   4.029  14.747  2.8324 -1.6737  0.1572
12402TIP3   OH258696   2.328   4.347  13.297  0.4545 -0.0003  0.0934
12402TIP3    H158697   2.333   4.410  13.369 -0.0998  0.7963 -0.5371
12402TIP3    H258698   2.273   4.391  13.232 -3.5261 -2.7405  1.2465
12403TIP3   OH258699   4.523   1.039  13.077 -0.4639 -0.6535  0.4883
12403TIP3    H158700   4.514   1.038  12.981  0.3038 -0.4383  0.4070
12403TIP3    H258701   4.479   0.959  13.105 -2.4584  0.2594  0.1353
12404TIP3   OH258702   1.684   3.999   3.422  0.0156  0.0757  0.0669
12404TIP3    H158703   1.721   4.080   3.389 -0.6147  0.2821 -0.1553
12404TIP3    H258704   1.625   4.027   3.492  0.3506 -0.2541  0.4880
12405TIP3   OH258705   4.214   5.881   5.483  0.4270  0.0984  0.0811
12405TIP3    H158706   4.197   5.968   5.519 -0.8504  0.1859 -0.6609
12405TIP3    H258707   4.150   5.871   5.413  0.4757 -1.4834  0.2164
12406TIP3   OH258708   3.970   0.228   4.274  0.2236 -0.4844 -0.2833
12406TIP3    H158709   3.879   0.212   4.297  0.3666 -2.1096 -0.7100
12406TIP3    H258710   3.979   0.193   4.186  1.4741 -1.2412  0.1168
12407TIP3   OH258711   0.689   5.825   0.230 -0.6605 -0.6411 -0.6736
12407TIP3    H158712   0.637   5.882   0.172 -0.3746 -0.7755 -1.0707
12407TIP3    H258713   0.766   5.878   0.253 -0.4460 -0.8219 -0.9581
12408TIP3   OH258714   4.051   6.352   4.096  0.1336 -0.4343 -0.1153
12408TIP3    H158715   4.104   6.341   4.175  0.1087  1.0670  0.1303
12408TIP3    H258716   4.011   6.266   4.082  1.9248 -1.3606  0.1862
12409TIP3   OH258717   2.190   3.524   2.921  0.2479  0.4463  0.3221
12409TIP3    H158718   2.275   3.489   2.893 -0.6815 -0.8470 -1.0950
12409TIP3    H258719   2.211   3.585   2.991  2.1553 -1.8494  1.9313
12410TIP3   OH258720   3.714   1.675   0.220 -0.3003 -0.4579 -0.3317
12410TIP3    H158721   3.666   1.732   0.160  1.0032  1.8183  0.6229
12410TIP3    H258722   3.647   1.638   0.277 -1.1055  1.9577  0.4374
12411TIP3   OH258723   6.545   1.337   0.470 -0.2498 -0.2444 -0.0960
12411TIP3    H158724   6.516   1.247   0.451  1.1867 -0.8526  0.4412
12411TIP3    H258725   6.628   1.326   0.516 -0.2861  1.3676  0.4103
12412TIP3   OH258726   4.789   0.685   3.055 -0.1068  0.5097  0.0456
12412TIP3    H158727   4.764   0.777   3.060  1.8807  1.1045 -0.1494
12412TIP3    H258728   4.852   0.673   3.127 -0.1088 -0.6305 -0.1160
12413TIP3   OH258729   6.226   6.403   1.943 -0.2020 -0.0394  0.0966
12413TIP3    H158730   6.254   6.491   1.918 -1.4843 -0.1258 -1.9378
12413TIP3    H258731   6.131   6.409   1.947 -0.3206 -1.3501 -0.2570
12414TIP3   OH258732   6.751   3.485   3.353 -0.2338  0.0740 -0.3741
12414TIP3    H158733   6.750   3.581   3.354 -0.3348  0.1211 -1.9592
12414TIP3    H258734   6.760   3.460   3.445  0.9229  1.6108 -0.0208
12415TIP3   OH258735   6.527   0.626   2.433  0.0731 -0.3175 -0.1706
12415TIP3    H158736   6.610   0.649   2.476 -0.5772  0.3989  0.7416
12415TIP3    H258737   6.535   0.533   2.414  0.5151 -0.6043  1.2742
12416TIP3   OH258738   6.150   2.206   0.660 -0.5042  0.0869  0.3514
12416TIP3    H158739   6.098   2.132   0.692  0.0968  0.2229  1.6620
12416TIP3    H258740   6.134   2.206   0.565 -0.3206 -1.8652  0.2731
12417TIP3   OH258741   1.331   1.771  12.979 -0.6074 -0.1602  0.1415
12417TIP3    H158742   1.299   1.859  12.960 -2.4912 -1.3828 -3.1293
12417TIP3    H258743   1.295   1.750  13.065 -2.0653  1.4300 -0.0340
12418TIP3   OH258744   5.745   5.876   2.178  0.1180 -0.4521  0.2216
12418TIP3    H158745   5.806   5.806   2.152  0.1568  0.2348 -1.6628
12418TIP3    H258746   5.658   5.835   2.173  0.2408 -0.7480  0.4935
12419TIP3   OH258747   5.083   5.789  13.786 -0.0761 -0.3660  0.3533
12419TIP3    H158748   5.068   5.877  13.822  1.2485  0.2811 -0.5924
12419TIP3    H258749   5.000   5.766  13.744  0.3359  1.6170 -1.7443
12420TIP3   OH258750   6.675   0.185  13.135 -0.2290 -0.1757  0.2133
12420TIP3    H158751   6.697   0.277  13.146  2.8331 -0.4511 -2.0995
12420TIP3    H258752   6.717   0.142  13.210  4.2486 -0.1825 -1.9460
12421TIP3   OH258753   0.650   2.865   4.134  0.0115 -0.6146  0.0525
12421TIP3    H158754   0.715   2.908   4.079  0.6372 -3.1495 -1.3747
12421TIP3    H258755   0.568   2.876   4.087 -0.1024  0.2267  0.4391
12422TIP3   OH258756   2.447   4.483   1.583 -0.1944 -0.7041 -0.0901
12422TIP3    H158757   2.517   4.526   1.633  1.7390 -3.4756 -0.1870
12422TIP3    H258758   2.398   4.434   1.649  0.4156 -1.8544 -0.4629
12423TIP3   OH258759   4.818   6.165  13.397  0.1460  0.3807 -0.2498
12423TIP3    H158760   4.807   6.070  13.390  1.4694  0.2334 -0.6224
12423TIP3    H258761   4.906   6.177  13.434 -0.8519  1.4419  1.9933
12424TIP3   OH258762   0.554   2.044  16.537  0.1431 -0.4851 -0.6848
12424TIP3    H158763   0.576   1.960  16.578 -0.6645  0.7706  2.6240
12424TIP3    H258764   0.530   2.101  16.610 -0.4951  2.3143 -2.9013
12425TIP3   OH258765   2.736   1.557   3.700 -0.2404 -0.5608  0.2413
12425TIP3    H158766   2.656   1.544   3.649  0.0579  0.3982 -0.5062
12425TIP3    H258767   2.749   1.652   3.699 -1.1658 -0.2723  3.5436
12426TIP3   OH258768   3.664   6.453   4.446  0.6127 -0.4443  0.2817
12426TIP3    H158769   3.717   6.374   4.457 -1.0735 -1.8213 -0.8810
12426TIP3    H258770   3.708   6.502   4.377 -0.4933 -2.4489 -1.9667
12427TIP3   OH258771   4.512   3.630  10.811  0.2053  0.1665  0.2906
12427TIP3    H158772   4.570   3.693  10.854 -1.9854  0.7797  2.5124
12427TIP3    H258773   4.540   3.632  10.719  3.3518  0.7490  1.1351
12428TIP3   OH258774   2.648   0.451   2.772 -0.3190 -0.0109 -0.3698
12428TIP3    H158775   2.724   0.407   2.735  0.6536 -1.0408  2.5620
12428TIP3    H258776   2.634   0.408   2.856 -3.9088  0.4462 -0.5577
12429TIP3   OH258777   0.657   0.727  15.032  0.5432 -0.0418 -0.2748
12429TIP3    H158778   0.677   0.673  14.955 -2.8790 -1.0166 -0.6558
12429TIP3    H258779   0.667   0.667  15.106 -0.9439 -0.5895 -0.4820
12430TIP3   OH258780   4.441   0.748  11.585  0.6013 -0.0855  0.1850
12430TIP3    H158781   4.492   0.812  11.634  1.7074 -1.0903  0.3922
12430TIP3    H258782   4.504   0.679  11.564 -0.6487 -1.2974  0.3223
12431TIP3   OH258783   4.944   2.288  14.711  0.2638 -0.2181 -0.1218
12431TIP3    H158784   4.963   2.225  14.643 -0.8096 -0.6361 -0.0459
12431TIP3    H258785   4.856   2.319  14.693  0.4826  0.7106  0.2750
12432TIP3   OH258786   6.565   5.700   5.922 -0.3378 -0.3418  0.3197
12432TIP3    H158787   6.572   5.707   6.018 -1.2007  2.2129  0.2949
12432TIP3    H258788   6.631   5.636   5.897 -0.0182 -1.0018  2.6126
12433TIP3   OH258789   5.240   6.778  17.063  0.0516 -0.5948 -0.7479
12433TIP3    H158790   5.334   6.761  17.062  0.4118  0.8644  1.4855
12433TIP3    H258791   5.228   6.855  17.007  0.0908 -1.0505 -1.3968
12434TIP3   OH258792   2.808   2.342   0.899  0.4181 -0.3893  0.3337
12434TIP3    H158793   2.803   2.380   0.811  3.0204 -1.7729 -0.5332
12434TIP3    H258794   2.734   2.282   0.904 -0.1877  0.2605 -0.6170
12435TIP3   OH258795   4.198   4.540   4.004  0.1215  0.4130  0.3421
12435TIP3    H158796   4.227   4.450   3.989  1.2941  1.1068 -2.1521
12435TIP3    H258797   4.134   4.533   4.075  0.5186 -2.2940  0.5584
12436TIP3   OH258798   2.639   5.145  15.974  0.2671  0.0750 -0.0010
12436TIP3    H158799   2.728   5.165  16.005  0.1309 -0.9424  1.0911
12436TIP3    H258800   2.596   5.104  16.049 -0.0845 -2.4672 -1.4878
12437TIP3   OH258801   4.493   5.643  15.983  0.1068  0.4096 -0.1767
12437TIP3    H158802   4.413   5.677  16.025  1.0541  1.3954  0.8890
12437TIP3    H258803   4.484   5.669  15.892 -1.1664 -0.2107 -0.2539
12438TIP3   OH258804   2.555   3.009   4.116  0.1335  0.1750 -0.6246
12438TIP3    H158805   2.492   2.951   4.158 -0.1849  2.4737  2.3723
12438TIP3    H258806   2.511   3.093   4.110  2.6656  1.7853  1.2696
12439TIP3   OH258807   0.859   6.302   1.379 -0.0784  0.3572  0.4852
12439TIP3    H158808   0.765   6.318   1.370 -0.0588 -0.1261 -0.8228
12439TIP3    H258809   0.887   6.363   1.447 -1.4376  0.0976  1.3263
12440TIP3   OH258810   2.557   5.557   1.975 -0.2830 -0.4805 -0.1417
12440TIP3    H158811   2.635   5.570   2.029  1.0957 -1.2066 -1.8174
12440TIP3    H258812   2.590   5.511   1.897 -2.3574 -0.5626 -1.0418
12441TIP3   OH258813   5.886   4.955  13.189  0.1629  0.2610 -0.5218
12441TIP3    H158814   5.875   5.038  13.235 -1.9044  0.7754 -1.8467
12441TIP3    H258815   5.937   4.977  13.111  0.7021  0.0264 -0.2426
12442TIP3   OH258816   1.205   0.644  17.077  0.1930  0.3948 -0.7059
12442TIP3    H158817   1.272   0.595  17.030 -0.0079  0.1475 -0.7390
12442TIP3    H258818   1.122   0.613  17.039  0.0446  0.4335 -0.4180
12443TIP3   OH258819   5.196   3.340  15.154 -0.2570  0.3312  0.0211
12443TIP3    H158820   5.146   3.340  15.073  0.4858 -0.8072 -0.4572
12443TIP3    H258821   5.140   3.294  15.217 -0.1460 -0.2362 -0.2941
12444TIP3   OH258822   4.058   5.659   5.202 -0.2753 -0.0738  0.1018
12444TIP3    H158823   3.981   5.656   5.146  0.1195  0.7644 -0.5035
12444TIP3    H258824   4.063   5.750   5.232  0.1141 -0.2708  0.6621
12445TIP3   OH258825   5.682   0.039   3.732 -0.1953 -0.0536  0.0099
12445TIP3    H158826   5.632   0.003   3.806 -0.4508 -0.7629 -0.4950
12445TIP3    H258827   5.618   0.042   3.660  0.6632 -1.7523 -0.8848
12446TIP3   OH258828   3.132   5.410   3.172 -0.2640 -0.9504  0.2095
12446TIP3    H158829   3.089   5.426   3.255  1.0084  2.2755  0.3917
12446TIP3    H258830   3.151   5.316   3.172 -1.1861 -1.2187  3.0906
12447TIP3   OH258831   1.485   4.840   3.309 -0.3449 -0.0623 -0.2549
12447TIP3    H158832   1.421   4.799   3.367 -1.3838  0.4910 -0.9813
12447TIP3    H258833   1.446   4.834   3.222  0.7547 -0.0172 -0.7612
12448TIP3   OH258834   4.694   1.872   2.608  0.0024  0.4441 -0.2234
12448TIP3    H158835   4.789   1.867   2.613  0.0025  0.7511  0.1112
12448TIP3    H258836   4.677   1.945   2.548 -0.0221  0.8374  0.2568
12449TIP3   OH258837   4.082   4.783  15.018  0.4023 -0.6961  0.0736
12449TIP3    H158838   4.128   4.825  15.091  0.6212 -0.8730  0.0384
12449TIP3    H258839   4.076   4.691  15.043  1.3605 -0.9468 -0.5773
12450TIP3   OH258840   4.819   0.110   2.377 -0.0967 -0.1323  0.0584
12450TIP3    H158841   4.758   0.144   2.442 -0.4227 -0.0883 -0.2644
12450TIP3    H258842   4.897   0.165   2.386 -0.1698 -0.0746  0.3544
12451TIP3   OH258843   3.174   4.880   0.317 -0.2080  0.1412  0.1328
12451TIP3    H158844   3.136   4.908   0.400  0.0388  1.0730 -0.0577
12451TIP3    H258845   3.267   4.900   0.325 -0.3254  1.1060 -0.7079
12452TIP3   OH258846   5.477   3.786   5.847  0.3896 -0.5410  0.6125
12452TIP3    H158847   5.498   3.738   5.927  0.6178  0.6697  1.3041
12452TIP3    H258848   5.558   3.832   5.824  0.0012  0.0336  0.3443
12453TIP3   OH258849   2.777   6.709  16.061 -0.4897 -0.1107  0.1231
12453TIP3    H158850   2.706   6.746  16.008  0.8129 -0.1867 -1.7776
12453TIP3    H258851   2.790   6.621  16.026  0.2670 -0.2437  0.7145
12454TIP3   OH258852   6.459   5.072  15.542 -0.2266 -0.2388  0.0693
12454TIP3    H158853   6.426   5.041  15.458 -0.2077  0.0642 -0.0501
12454TIP3    H258854   6.380   5.080  15.597 -0.2566 -0.2913  0.0343
12455TIP3   OH258855   6.107   0.713   3.375  0.0145 -0.0144  0.3737
12455TIP3    H158856   6.150   0.662   3.306 -1.3059  1.5487 -1.7177
12455TIP3    H258857   6.159   0.695   3.453  3.3789  0.3518 -1.5848
12456TIP3   OH258858   2.098   6.610  15.381 -0.4926 -0.5320 -0.5249
12456TIP3    H158859   2.145   6.692  15.366 -0.2566 -0.7112 -0.7659
12456TIP3    H258860   2.159   6.542  15.353 -0.8838 -0.7680 -0.7986
12457TIP3   OH258861   4.471   4.791  16.273 -0.0398 -0.2810  0.0891
12457TIP3    H158862   4.510   4.780  16.187 -0.1435 -2.0021  0.2371
12457TIP3    H258863   4.456   4.886  16.281 -0.0651 -0.1063 -1.7706
12458TIP3   OH258864   3.040   5.086  12.153  0.1203 -0.6071  0.3495
12458TIP3    H158865   3.007   5.000  12.129  2.3786 -1.8973  1.5210
12458TIP3    H258866   3.135   5.078  12.146  0.3775  2.0614 -0.2881
12459TIP3   OH258867   4.551   0.629  12.099 -0.2802  0.6410  0.1466
12459TIP3    H158868   4.599   0.700  12.141 -2.8501  1.1837  2.4563
12459TIP3    H258869   4.497   0.672  12.033 -0.9474  0.6884  0.7152
12460TIP3   OH258870   4.429   6.020  14.823  0.0759  0.6608 -0.3135
12460TIP3    H158871   4.392   5.932  14.837  2.0238 -0.5046 -1.9279
12460TIP3    H258872   4.508   6.022  14.877  0.3264  1.2038 -0.6903
12461TIP3   OH258873   5.274   5.931  15.655  0.3679 -0.4615  0.0108
12461TIP3    H158874   5.285   5.837  15.660  1.3685 -0.3104  1.0921
12461TIP3    H258875   5.269   5.960  15.747  3.2154  0.8565 -0.1456
12462TIP3   OH258876   6.348   2.471  15.946  0.5738  0.3353  0.3443
12462TIP3    H158877   6.397   2.510  16.018  1.1371 -2.3269  1.5441
12462TIP3    H258878   6.256   2.488  15.966  0.7710  0.3516  1.2774
12463TIP3   OH258879   6.084   6.454  12.717 -0.0820 -0.0573 -0.0483
12463TIP3    H158880   6.131   6.507  12.653 -0.5328 -0.5789 -0.8391
12463TIP3    H258881   6.070   6.512  12.792 -1.2161  1.1728 -1.1761
12464TIP3   OH258882   2.341   5.285  13.098 -0.0722  0.3120  0.1831
12464TIP3    H158883   2.333   5.224  13.171  0.9628  0.3722  0.3582
12464TIP3    H258884   2.278   5.253  13.033 -0.2559 -0.3501  0.6760
12465TIP3   OH258885   3.150   2.729   4.237 -1.2780  0.2177  0.1581
12465TIP3    H158886   3.158   2.642   4.198 -1.0842  0.3322 -0.0595
12465TIP3    H258887   3.058   2.753   4.223 -1.4317 -0.1144  0.5695
12466TIP3   OH258888   4.565   3.289  12.726  0.4970 -0.0402 -0.1224
12466TIP3    H158889   4.636   3.346  12.755 -0.2553  0.1864  1.4142
12466TIP3    H258890   4.508   3.347  12.674  1.3773 -0.2160 -1.3285
12467TIP3   OH258891   0.516   2.384   5.564  0.0048 -0.0613 -0.2023
12467TIP3    H158892   0.530   2.385   5.658 -1.7401 -0.0980  0.0885
12467TIP3    H258893   0.421   2.394   5.553  0.2577  0.8787 -1.9771
12468TIP3   OH258894   5.051   4.107  15.945 -0.1777 -0.8237 -0.8175
12468TIP3    H158895   5.051   4.013  15.965  0.5105 -0.8062 -0.7246
12468TIP3    H258896   4.970   4.120  15.896  0.2683 -1.6943 -1.8455
12469TIP3   OH258897   5.442   1.272   0.077 -0.4508 -0.2855 -0.8471
12469TIP3    H158898   5.495   1.200   0.044  0.1397  0.4327 -1.4768
12469TIP3    H258899   5.488   1.351   0.050  0.7321  0.4156  2.6054
12470TIP3   OH258900   2.944   5.902   1.248 -0.4437  0.2510 -0.0023
12470TIP3    H158901   3.025   5.918   1.296  0.2122  0.0735 -1.0182
12470TIP3    H258902   2.970   5.904   1.156 -1.4870 -0.3806 -0.3264
12471TIP3   OH258903   2.661   4.308   1.733  0.2981  0.4605 -0.8721
12471TIP3    H158904   2.631   4.355   1.655  3.5459  1.7162 -1.5331
12471TIP3    H258905   2.721   4.242   1.698 -0.6973 -1.2126  0.4179
12472TIP3   OH258906   6.272   2.355  14.218  0.0137  0.0744 -0.4029
12472TIP3    H158907   6.325   2.409  14.159 -0.7014  1.9892  0.6159
12472TIP3    H258908   6.215   2.417  14.263 -2.1320 -1.7517 -0.4323
12473TIP3   OH258909   1.947   0.743  12.992 -0.2526  0.0979  0.1429
12473TIP3    H158910   1.893   0.664  13.001  0.3686 -0.5992 -1.6107
12473TIP3    H258911   1.938   0.789  13.075 -2.1422 -0.8692  0.5261
12474TIP3   OH258912   4.775   5.603   1.993 -0.2885 -0.0353 -0.5682
12474TIP3    H158913   4.741   5.637   1.911 -2.4179  1.8204  0.9579
12474TIP3    H258914   4.811   5.679   2.038  2.8713 -1.3666 -0.5926
12475TIP3   OH258915   6.746   0.111  15.281  0.3062  0.6763  0.3074
12475TIP3    H158916   6.697   0.146  15.355 -1.4855 -0.1345 -0.4175
12475TIP3    H258917   6.724   0.017  15.281  0.1674  0.6865 -1.2823
12476TIP3   OH258918   1.945   4.570   0.243 -0.1369 -0.2394  0.1880
12476TIP3    H158919   1.960   4.595   0.152 -1.5682 -4.3122 -1.4214
12476TIP3    H258920   2.033   4.562   0.281  0.5421  0.3830 -1.1941
12477TIP3   OH258921   6.674   4.087   4.176 -0.6962  0.2732  0.7981
12477TIP3    H158922   6.652   4.008   4.126 -0.5100  1.1985 -0.8066
12477TIP3    H258923   6.769   4.090   4.175 -0.6230 -0.4000  2.4054
12478TIP3   OH258924   1.238   3.522   4.969  0.1288  0.0440  0.4486
12478TIP3    H158925   1.256   3.616   4.968 -2.0273  0.7509 -4.9467
12478TIP3    H258926   1.288   3.487   4.896 -0.4387 -2.7598  1.2935
12479TIP3   OH258927   1.960   6.172   5.700 -0.4485  0.4108 -0.0237
12479TIP3    H158928   1.975   6.220   5.618 -0.2650  0.4827  0.0512
12479TIP3    H258929   2.047   6.145   5.729 -0.3504  1.5976  0.8742
12480TIP3   OH258930   5.108   2.738   2.968 -0.2631 -0.0552 -0.3887
12480TIP3    H158931   5.023   2.754   3.009  0.2789  0.5570  0.5301
12480TIP3    H258932   5.095   2.657   2.918 -1.1896 -0.3375  0.2740
12481TIP3   OH258933   3.195   2.217   3.005  0.1811  0.8033 -0.0913
12481TIP3    H158934   3.146   2.282   3.056 -0.4572 -0.2459  0.6662
12481TIP3    H258935   3.280   2.211   3.048  0.8101  2.1939 -1.0542
12482TIP3   OH258936   6.123   2.803   1.984  0.7999 -0.0198 -1.1776
12482TIP3    H158937   6.064   2.862   1.937  0.2697 -1.2615 -2.1230
12482TIP3    H258938   6.209   2.844   1.976  0.3869  0.8054 -1.4903
12483TIP3   OH258939   4.777   1.011  13.486 -0.0166 -0.4012  0.4287
12483TIP3    H158940   4.728   1.006  13.569 -0.7714 -1.6545 -0.0675
12483TIP3    H258941   4.719   1.058  13.427 -0.6726 -1.9184 -0.1712
12484TIP3   OH258942   0.245   2.107   3.425 -0.4683 -0.3298 -0.0390
12484TIP3    H158943   0.244   2.116   3.330  0.0207  0.2132 -0.0023
12484TIP3    H258944   0.314   2.043   3.442 -1.8214 -1.8764 -0.1337
12485TIP3   OH258945   0.534   2.801   2.169 -0.0971  0.0418  0.3440
12485TIP3    H158946   0.601   2.791   2.101 -0.1145 -0.3371  0.3831
12485TIP3    H258947   0.505   2.892   2.159  0.2340  0.1325  0.1547
12486TIP3   OH258948   0.591   0.907   1.110 -0.0727  0.4175 -0.1523
12486TIP3    H158949   0.588   0.998   1.081  1.4949 -0.0435 -1.9804
12486TIP3    H258950   0.516   0.866   1.068  1.3658  0.0799 -2.5543
12487TIP3   OH258951   3.354   5.397  16.987 -0.2843  0.1593  0.1096
12487TIP3    H158952   3.275   5.354  16.954  0.8157 -1.1793 -0.8974
12487TIP3    H258953   3.341   5.404  17.081 -1.8997  0.6201 -0.1266
12488TIP3   OH258954   0.075   1.684   4.109 -0.0401 -0.5577 -0.1979
12488TIP3    H158955   0.134   1.673   4.034  0.2793  0.7475 -0.1639
12488TIP3    H258956   0.093   1.773   4.140 -2.2703  0.0065 -0.3845
12489TIP3   OH258957   0.902   6.274  16.805  0.0069 -0.2950  0.3937
12489TIP3    H158958   0.948   6.317  16.733  0.0510 -2.6751 -1.1465
12489TIP3    H258959   0.963   6.278  16.878  0.5820  0.9172 -0.1208
12490TIP3   OH258960   2.863   0.542  12.516 -0.3862  1.0133  0.0518
12490TIP3    H158961   2.822   0.604  12.575 -1.0162  0.0405  0.6710
12490TIP3    H258962   2.878   0.464  12.570  1.7575  1.1256 -0.3075
12491TIP3   OH258963   0.302   5.549   5.965  0.0681  0.1362  0.3093
12491TIP3    H158964   0.321   5.456   5.980 -0.2433  0.4085  2.7550
12491TIP3    H258965   0.242   5.573   6.035 -2.4811  1.4398 -2.1400
12492TIP3   OH258966   3.023   3.290   2.008  0.1728 -0.1097 -0.0068
12492TIP3    H158967   2.942   3.337   2.027  1.1406  1.5556  0.1335
12492TIP3    H258968   3.070   3.346   1.946  1.2986 -0.9641  0.0312
12493TIP3   OH258969   6.196   0.153  14.897 -0.0778  0.2820 -0.7623
12493TIP3    H158970   6.165   0.100  14.823  1.7011 -0.9983 -0.6578
12493TIP3    H258971   6.264   0.100  14.938  0.8511  2.1032  0.1871
12494TIP3   OH258972   4.449   1.329  16.051  0.4853  0.3735 -0.3392
12494TIP3    H158973   4.364   1.335  16.007 -1.7504 -2.9427  2.9085
12494TIP3    H258974   4.494   1.257  16.006  2.2517  2.7449 -2.6988
12495TIP3   OH258975   4.982   0.417  12.831  0.1975  0.3096 -0.2511
12495TIP3    H158976   4.887   0.431  12.833  0.2755  0.7935  0.1715
12495TIP3    H258977   4.991   0.324  12.808 -0.3940  0.0646  0.4536
12496TIP3   OH258978   5.293   4.773  13.285  0.0551 -0.3265  0.0993
12496TIP3    H158979   5.349   4.812  13.352  0.6219 -0.7409 -0.1269
12496TIP3    H258980   5.287   4.840  13.216  1.9556 -1.0394 -0.8107
12497TIP3   OH258981   2.112   5.385  11.484 -0.1627  0.0112 -0.5341
12497TIP3    H158982   2.021   5.369  11.461 -1.2520  2.4243  1.6006
12497TIP3    H258983   2.113   5.381  11.580  1.9931  0.0326 -0.5059
12498TIP3   OH258984   6.228   4.959   4.495  0.6740 -0.4245 -0.4105
12498TIP3    H158985   6.289   4.899   4.452  0.8256 -1.4181  1.1149
12498TIP3    H258986   6.283   5.033   4.521  0.9950 -0.7496 -0.1426
12499TIP3   OH258987   6.700   4.791   3.672 -0.8043 -0.9799  0.6671
12499TIP3    H158988   6.740   4.762   3.590  0.0634 -3.9859  1.9891
12499TIP3    H258989   6.680   4.883   3.658 -1.1892 -1.4803 -3.0719
12500TIP3   OH258990   2.129   4.550   2.347 -1.0697  0.4727 -0.3836
12500TIP3    H158991   2.080   4.563   2.429  0.1231  0.0907  0.4154
12500TIP3    H258992   2.213   4.595   2.362 -0.3248 -0.7017 -0.9000
12501TIP3   OH258993   0.981   6.686   5.554  0.0640 -0.0545 -0.3922
12501TIP3    H158994   1.028   6.743   5.493 -0.0477  0.5628  0.0888
12501TIP3    H258995   0.898   6.669   5.511  0.5623 -0.8467 -1.0785
12502TIP3   OH258996   0.880   2.516  15.118 -0.0080 -0.3787  0.1161
12502TIP3    H158997   0.919   2.603  15.104  0.1993 -0.3409  0.8772
12502TIP3    H258998   0.898   2.468  15.037  1.4655 -0.3064  0.3784
12503TIP3   OH258999   1.707   5.405   1.398 -0.2442  0.4003 -0.7224
12503TIP3    H159000   1.635   5.465   1.415 -0.6149  0.5756 -2.7427
12503TIP3    H259001   1.784   5.461   1.388  0.0383  0.2733  0.5415
12504TIP3   OH259002   5.346   0.533   4.995  0.8407  0.3150 -0.7157
12504TIP3    H159003   5.273   0.589   4.968  1.4058  0.1912 -2.6895
12504TIP3    H259004   5.424   0.579   4.966  1.6184  0.5769  1.6241
12505TIP3   OH259005   2.492   3.534   1.652  0.0158  0.3497 -0.3096
12505TIP3    H159006   2.401   3.555   1.630 -0.0270  2.6715  1.6850
12505TIP3    H259007   2.535   3.524   1.567 -1.0900  4.0696 -1.4965
12506TIP3   OH259008   6.729   3.542  11.031 -0.0095  0.0950  0.0275
12506TIP3    H159009   6.729   3.499  10.945 -1.1604 -1.1292  0.6053
12506TIP3    H259010   6.769   3.478  11.090 -0.1526  0.5094  0.5797
12507TIP3   OH259011   4.150   3.642  17.015 -0.1774  0.0720 -0.1756
12507TIP3    H159012   4.164   3.733  16.988 -2.2453 -0.1136 -2.2151
12507TIP3    H259013   4.190   3.590  16.946 -0.1160 -0.5561  0.3250
12508TIP3   OH259014   5.184   1.846   4.795 -0.4242 -0.2172 -0.1498
12508TIP3    H159015   5.145   1.772   4.748  0.7353 -0.7863 -0.2622
12508TIP3    H259016   5.277   1.841   4.774 -0.2279  0.9085  0.3613
12509TIP3   OH259017   5.493   3.208  12.708  0.7472  0.8701  0.0603
12509TIP3    H159018   5.444   3.126  12.720  0.2242  1.5063  3.1956
12509TIP3    H259019   5.477   3.233  12.618 -0.5254 -1.5771 -0.4751
12510TIP3   OH259020   3.812   1.807  11.981 -0.3357  0.7949 -0.3962
12510TIP3    H159021   3.775   1.864  12.048  0.2877  0.0284  0.6332
12510TIP3    H259022   3.757   1.821  11.904 -1.0702  1.6943  0.2725
12511TIP3   OH259023   1.043   0.633  11.151  0.0371  0.5478 -0.5078
12511TIP3    H159024   1.075   0.723  11.146 -0.6744  0.7501 -1.9823
12511TIP3    H259025   0.952   0.642  11.180 -0.3289  0.3911 -1.5704
12512TIP3   OH259026   6.221   3.021  12.491  0.4337  0.0919 -0.1395
12512TIP3    H159027   6.251   2.946  12.439 -0.0285 -0.1105 -0.1203
12512TIP3    H259028   6.130   3.035  12.463  0.5987  0.8057 -0.3210
12513TIP3   OH259029   1.018   4.469  14.954 -0.0465 -0.4523  0.7848
12513TIP3    H159030   1.053   4.411  15.021 -0.7781 -0.9110  0.7893
12513TIP3    H259031   0.933   4.497  14.989 -0.4141 -0.6559  0.0917
12514TIP3   OH259032   0.538   5.608  15.758  0.3034 -0.5434 -0.1567
12514TIP3    H159033   0.623   5.617  15.715  0.1749 -0.3691 -0.3750
12514TIP3    H259034   0.481   5.572  15.691  0.0393 -0.0334 -0.2146
12515TIP3   OH259035   5.005   2.204  13.335 -0.0244 -0.0294 -0.0658
12515TIP3    H159036   5.035   2.153  13.410  0.4055 -0.6249 -0.6286
12515TIP3    H259037   4.999   2.140  13.264  3.2009  1.0909 -1.5503
12516TIP3   OH259038   4.023   5.855  14.097 -0.4586 -0.4733  0.1780
12516TIP3    H159039   4.094   5.919  14.092 -0.6111 -0.2697  0.5690
12516TIP3    H259040   3.949   5.897  14.055 -1.4458  0.8396  2.9415
12517TIP3   OH259041   6.465   1.429   2.533 -0.5009  0.1405  0.2900
12517TIP3    H159042   6.558   1.449   2.547 -0.1706 -0.5650 -0.7903
12517TIP3    H259043   6.419   1.501   2.575  0.5405  0.6234  0.6520
12518TIP3   OH259044   6.018   0.969   2.052  0.7123  0.2231 -0.0596
12518TIP3    H159045   6.037   0.880   2.021  1.8214  1.0640 -1.9928
12518TIP3    H259046   6.055   1.026   1.985 -0.6330  2.1639  0.7527
12519TIP3   OH259047   5.240   1.198  13.660 -0.1049  0.0918  0.0715
12519TIP3    H159048   5.190   1.275  13.633 -0.8994 -0.9604 -1.5973
12519TIP3    H259049   5.202   1.126  13.610  1.6566 -1.1247  0.4060
12520TIP3   OH259050   1.269   3.513  10.987  0.3379 -0.3293  0.2521
12520TIP3    H159051   1.217   3.594  10.986  1.5221  0.5213  2.2808
12520TIP3    H259052   1.242   3.467  10.908 -0.4323  2.0074 -0.9432
12521TIP3   OH259053   4.474   3.054  15.397  0.9337  0.3272  0.2989
12521TIP3    H159054   4.521   3.092  15.323 -1.0193 -0.1166 -1.2562
12521TIP3    H259055   4.399   3.112  15.410 -0.1506 -1.0024  0.2059
12522TIP3   OH259056   6.479   0.109   5.944 -0.0064  0.6632  0.0334
12522TIP3    H159057   6.516   0.031   5.985  0.5263  0.3448 -1.0445
12522TIP3    H259058   6.435   0.155   6.016 -2.4764 -1.8449  0.2785
12523TIP3   OH259059   3.443   5.262  14.833  0.3933 -0.5163  0.6250
12523TIP3    H159060   3.495   5.249  14.754  0.1830 -0.8608  0.5452
12523TIP3    H259061   3.387   5.337  14.813  1.6746  0.6283  1.1241
12524TIP3   OH259062   5.040   5.400   0.569 -0.2086 -0.1613  0.0002
12524TIP3    H159063   4.985   5.408   0.491  0.2078 -0.4457 -0.3260
12524TIP3    H259064   4.991   5.343   0.628 -0.1893 -0.5489 -0.3560
12525TIP3   OH259065   4.776   1.498   0.915  0.0191  0.2918 -0.3133
12525TIP3    H159066   4.707   1.439   0.945  1.1572 -0.4034  1.0015
12525TIP3    H259067   4.779   1.566   0.982  0.0717  0.7770 -0.7984
12526TIP3   OH259068   0.833   1.038  14.871  0.3072 -0.0492 -0.0368
12526TIP3    H159069   0.813   0.971  14.805  0.8837 -0.4318  0.1659
12526TIP3    H259070   0.923   1.065  14.850  0.3007  0.2042  0.2678
12527TIP3   OH259071   4.421   0.237  15.638 -0.0112  0.1993 -0.0056
12527TIP3    H159072   4.441   0.327  15.613 -1.4152  0.3399 -0.7538
12527TIP3    H259073   4.417   0.190  15.554 -0.7128 -0.2250  0.2551
12528TIP3   OH259074   1.490   5.883  16.896  0.7294 -0.5831 -0.4678
12528TIP3    H159075   1.398   5.908  16.891  0.5470 -0.7039  1.4482
12528TIP3    H259076   1.490   5.802  16.947  1.9907  0.4830  1.3688
12529TIP3   OH259077   2.374   6.186   2.576 -0.1669 -0.1445  0.7245
12529TIP3    H159078   2.341   6.194   2.486 -0.3831  0.7694  0.8786
12529TIP3    H259079   2.411   6.272   2.596  1.4314 -0.8416  0.9176
12530TIP3   OH259080   4.842   1.253   4.621  0.5010 -0.0132  0.2287
12530TIP3    H159081   4.884   1.334   4.593 -2.7293  1.1529 -1.8778
12530TIP3    H259082   4.884   1.185   4.568  0.8976  0.8248 -0.5632
12531TIP3   OH259083   0.232   4.313   0.696 -0.1003  0.2939 -0.2398
12531TIP3    H159084   0.202   4.251   0.763  1.9409 -0.3231  0.1805
12531TIP3    H259085   0.160   4.317   0.633 -0.8487 -1.4490  0.4340
12532TIP3   OH259086   5.848   4.723  15.395  0.4716  0.0561  0.2729
12532TIP3    H159087   5.805   4.709  15.310 -2.5545 -1.8000  1.9439
12532TIP3    H259088   5.825   4.813  15.419 -1.1702 -0.3654  0.3810
12533TIP3   OH259089   6.065   2.528  11.250  0.0781 -0.8351 -0.0503
12533TIP3    H159090   6.084   2.599  11.188 -2.6160 -1.8184 -2.1775
12533TIP3    H259091   6.135   2.464  11.236  0.0267 -0.6164 -1.4079
12534TIP3   OH259092   4.857   3.185  15.752 -0.4363  0.0870 -0.6263
12534TIP3    H159093   4.818   3.265  15.788 -0.2094 -0.2098  0.3186
12534TIP3    H259094   4.841   3.119  15.819  1.9830  0.0375 -0.0347
12535TIP3   OH259095   5.858   1.867  15.380 -0.4973  0.1333 -0.2395
12535TIP3    H159096   5.807   1.801  15.334 -0.0644 -1.0899  0.9607
12535TIP3    H259097   5.835   1.855  15.472 -0.9375  2.1488 -0.0380
12536TIP3   OH259098   2.741   5.851  15.262 -0.4482  0.4037  0.3729
12536TIP3    H159099   2.767   5.798  15.337 -0.1389 -0.3616 -0.2641
12536TIP3    H259100   2.665   5.806  15.227  0.8784 -0.6731 -1.2496
12537TIP3   OH259101   0.280   4.593   1.809  0.0812  0.1076 -0.2185
12537TIP3    H159102   0.262   4.499   1.804 -0.5673  0.2330 -0.2428
12537TIP3    H259103   0.227   4.631   1.740 -0.1476  0.5689  0.2122
12538TIP3   OH259104   4.766   0.800   4.952  0.3606 -0.0946 -0.0791
12538TIP3    H159105   4.858   0.808   4.927  1.2636  2.4865  3.3626
12538TIP3    H259106   4.718   0.845   4.882  1.7947 -0.2202 -1.1982
12539TIP3   OH259107   1.069   5.473   0.736 -0.0306  0.1034  0.4057
12539TIP3    H159108   1.029   5.543   0.684  1.5177  2.5125  2.2183
12539TIP3    H259109   1.155   5.508   0.760  1.7756 -3.3362 -0.3326
12540TIP3   OH259110   4.893   0.347   2.997 -0.2540 -0.0663 -0.3633
12540TIP3    H159111   4.873   0.430   3.042  1.0096  0.6159 -1.0151
12540TIP3    H259112   4.975   0.317   3.037  0.3318  0.0126 -1.4663
12541TIP3   OH259113   2.446   5.288  16.751 -0.6170 -0.0712 -0.4751
12541TIP3    H159114   2.499   5.228  16.699  1.8531 -0.1669  1.8931
12541TIP3    H259115   2.377   5.234  16.789 -0.7502 -0.5558 -1.3873
12542TIP3   OH259116   1.732   1.459   5.186 -0.9601  0.7034  0.5154
12542TIP3    H159117   1.764   1.547   5.205  1.5953  0.5407 -2.3317
12542TIP3    H259118   1.781   1.402   5.244  0.4665  0.8803 -0.4716
12543TIP3   OH259119   5.277   1.391   2.145 -0.4494 -0.5141  0.7117
12543TIP3    H159120   5.333   1.454   2.190  0.8310 -2.2179  1.5844
12543TIP3    H259121   5.310   1.390   2.055 -0.7077  0.2990  0.6020
12544TIP3   OH259122   1.320   2.796   4.174 -0.1502 -0.0380 -0.1330
12544TIP3    H159123   1.280   2.838   4.098 -0.5200 -0.6738 -0.2983
12544TIP3    H259124   1.345   2.709   4.142  0.5465  0.0321  0.2189
12545TIP3   OH259125   4.241   4.739   2.033  0.2253  0.2938  0.0978
12545TIP3    H159126   4.262   4.701   1.948 -0.4312 -1.7543  0.7979
12545TIP3    H259127   4.276   4.677   2.097 -0.0224  1.3661  1.3209
12546TIP3   OH259128   1.032   2.106  16.698  0.2172  0.2983  0.1617
12546TIP3    H159129   1.099   2.158  16.653  0.7528 -0.8735 -0.4524
12546TIP3    H259130   1.072   2.020  16.709 -0.9223 -0.2178  0.4541
12547TIP3   OH259131   3.672   6.477  11.482 -0.2443 -0.3654  0.0262
12547TIP3    H159132   3.749   6.437  11.522  0.0481 -1.4089 -1.5056
12547TIP3    H259133   3.613   6.404  11.465 -0.4070  0.0444 -1.3020
12548TIP3   OH259134   2.869   0.129  14.644 -0.0612  0.5489 -0.2983
12548TIP3    H159135   2.839   0.094  14.728  1.8283 -0.6130 -0.0426
12548TIP3    H259136   2.811   0.090  14.579 -1.1895  1.0202  0.4077
12549TIP3   OH259137   6.246   5.979   4.122  0.4233 -0.2943  0.1189
12549TIP3    H159138   6.167   6.033   4.131  0.7711  0.4162 -0.8903
12549TIP3    H259139   6.266   5.951   4.211  0.1227  1.0979  0.6595
12550TIP3   OH259140   2.052   2.982  11.395  0.5665 -0.6380 -0.0053
12550TIP3    H159141   2.024   3.030  11.473 -0.4323 -0.4052 -0.4944
12550TIP3    H259142   2.007   2.897  11.402  2.1585 -1.4713  0.7495
12551TIP3   OH259143   2.521   5.169   0.992 -0.4289 -0.4469  0.6263
12551TIP3    H159144   2.555   5.251   0.959 -0.7450 -0.2057  0.8927
12551TIP3    H259145   2.428   5.186   1.006 -0.6506 -1.0680 -0.0138
12552TIP3   OH259146   4.613   1.361   5.979 -0.0314  0.0061  0.6042
12552TIP3    H159147   4.643   1.427   5.917  1.0053 -1.2395 -0.2731
12552TIP3    H259148   4.518   1.359   5.968 -0.1267  1.5901  0.9308
12553TIP3   OH259149   4.900   3.480  16.445  0.0265 -0.2930  0.3956
12553TIP3    H159150   4.919   3.446  16.532  0.0229  0.3557  0.6526
12553TIP3    H259151   4.984   3.475  16.399 -0.3660 -2.4078 -0.1999
12554TIP3   OH259152   1.200   2.473  16.940  0.5449 -0.2606 -0.2617
12554TIP3    H159153   1.249   2.550  16.911 -0.9319  0.3898 -1.1558
12554TIP3    H259154   1.145   2.505  17.012 -0.4973 -0.3100 -1.0109
12555TIP3   OH259155   5.510   5.288  11.726 -0.7137  0.3116 -0.0666
12555TIP3    H159156   5.490   5.380  11.710 -1.1119  0.2155 -0.1380
12555TIP3    H259157   5.438   5.240  11.686  0.2411 -0.1093 -1.3524
12556TIP3   OH259158   5.774   4.373   0.544  0.8866 -0.2675  0.0174
12556TIP3    H159159   5.714   4.427   0.597 -0.2758 -2.3383  0.9245
12556TIP3    H259160   5.728   4.360   0.461  0.1677 -1.5973  0.5981
12557TIP3   OH259161   6.525   4.868  14.596  0.1921  0.5231  0.3911
12557TIP3    H159162   6.464   4.846  14.526  1.0221 -0.7278  0.0221
12557TIP3    H259163   6.548   4.783  14.635  1.6569  0.9425  0.5161
12558TIP3   OH259164   1.091   5.863   4.739 -0.7005 -0.0058 -0.3472
12558TIP3    H159165   1.095   5.929   4.809 -0.4772  0.2209 -0.5726
12558TIP3    H259166   1.079   5.780   4.785 -0.7074  0.1602 -0.0466
12559TIP3   OH259167   6.533   3.323   3.609 -0.6856 -0.0556 -0.5730
12559TIP3    H159168   6.629   3.325   3.614 -0.6955 -0.3111 -0.2870
12559TIP3    H259169   6.504   3.399   3.659 -0.6499 -0.3007 -0.1775
12560TIP3   OH259170   6.397   5.944  12.698  0.5629 -0.1048 -0.7407
12560TIP3    H159171   6.306   5.926  12.719  0.6048  1.2256  0.8099
12560TIP3    H259172   6.444   5.926  12.780  1.4107  0.9724 -0.9662
12561TIP3   OH259173   3.010   5.702  14.159  0.1518  0.2277 -0.7577
12561TIP3    H159174   2.956   5.751  14.096  1.7116 -0.9424 -3.1440
12561TIP3    H259175   2.982   5.611  14.148 -0.0659  0.0695  0.8653
12562TIP3   OH259176   6.050   4.699   0.522  0.4045 -0.4721  0.0668
12562TIP3    H159177   6.038   4.605   0.537 -0.1583 -0.3307  0.5111
12562TIP3    H259178   5.964   4.737   0.538  0.8854  0.2621  0.9802
12563TIP3   OH259179   4.752   2.673   5.222 -0.2796 -0.1439 -0.1493
12563TIP3    H159180   4.826   2.614   5.206 -0.0233  0.2753 -0.5507
12563TIP3    H259181   4.728   2.657   5.313 -0.7740 -1.4864 -0.5000
12564TIP3   OH259182   3.204   0.100  12.152  0.1429  0.3781 -0.0347
12564TIP3    H159183   3.259   0.029  12.185 -1.3877 -0.4107  0.9411
12564TIP3    H259184   3.235   0.177  12.199  3.0481  0.8528 -2.4234
12565TIP3   OH259185   4.751   2.579   4.721  0.1874  0.6857 -0.1121
12565TIP3    H159186   4.800   2.559   4.801  1.3644 -0.9143 -1.1740
12565TIP3    H259187   4.714   2.666   4.737  1.4661  0.9723  1.6468
12566TIP3   OH259188   4.175   4.259   5.989 -0.1832  0.1384 -0.3941
12566TIP3    H159189   4.088   4.285   6.019  0.3896  0.5924  0.9279
12566TIP3    H259190   4.196   4.323   5.921 -1.0106 -0.1784 -0.9652
12567TIP3   OH259191   4.002   3.585   6.234  0.9954  0.0766  0.3892
12567TIP3    H159192   4.094   3.566   6.252  1.0034 -0.2953 -0.0073
12567TIP3    H259193   3.963   3.601   6.319  0.9775 -1.8342  0.7915
12568TIP3   OH259194   2.306   2.080  11.846 -0.0980  0.4642 -0.0613
12568TIP3    H159195   2.391   2.057  11.883 -1.2143  1.6561  3.6464
12568TIP3    H259196   2.316   2.170  11.816  0.8002 -0.4950 -2.9843
12569TIP3   OH259197   5.305   2.162  10.803  1.0081  0.4959  0.6144
12569TIP3    H159198   5.220   2.128  10.776  1.1021 -0.1583  1.1109
12569TIP3    H259199   5.314   2.245  10.757  0.7141 -0.0895 -0.5162
12570TIP3   OH259200   0.946   4.134   5.534 -0.0203  0.6696  0.2619
12570TIP3    H159201   0.898   4.161   5.456 -0.5403 -1.5957 -0.2884
12570TIP3    H259202   0.880   4.090   5.588  1.1907 -1.9397 -0.2246
12571TIP3   OH259203   3.189   1.714  14.074  0.3773  0.2061 -0.0736
12571TIP3    H159204   3.142   1.648  14.024  0.8704  0.2533 -0.6122
12571TIP3    H259205   3.164   1.698  14.165 -1.4562  0.8530 -0.4272
12572TIP3   OH259206   1.978   6.595  16.175 -0.6219 -0.4404  0.1563
12572TIP3    H159207   2.026   6.579  16.094 -0.7067 -1.9129  0.3792
12572TIP3    H259208   1.984   6.690  16.188  0.9467 -0.4096 -0.6062
12573TIP3   OH259209   2.790   0.120   1.720 -0.4856  0.1488 -0.3566
12573TIP3    H159210   2.792   0.038   1.669  0.2149  0.0335 -0.1588
12573TIP3    H259211   2.879   0.129   1.754 -1.0263  0.0245  1.1696
12574TIP3   OH259212   4.902   0.154   4.669 -0.0286 -0.1838 -0.2780
12574TIP3    H159213   4.867   0.069   4.643  1.6377 -0.5881 -1.3576
12574TIP3    H259214   4.925   0.144   4.762 -3.3569  0.3603  0.7354
12575TIP3   OH259215   3.171   3.368  15.436  0.0063  0.0176  0.1666
12575TIP3    H159216   3.207   3.287  15.474 -0.0565  0.4197  1.1034
12575TIP3    H259217   3.246   3.426  15.428 -0.0927  0.1659  0.3004
12576TIP3   OH259218   6.690   0.390  11.345 -0.3428  0.3055  0.1211
12576TIP3    H159219   6.687   0.405  11.251  0.8399  0.3636  0.0671
12576TIP3    H259220   6.600   0.374  11.371 -0.8368  1.4136 -0.8328
12577TIP3   OH259221   5.543   5.028  11.004  0.1451 -0.0090 -0.2244
12577TIP3    H159222   5.558   5.088  10.931 -0.0856  0.9953  0.5284
12577TIP3    H259223   5.527   5.085  11.079 -2.8682 -0.9291  0.0021
12578TIP3   OH259224   4.346   5.591  10.880  0.4242  0.0261 -0.5378
12578TIP3    H159225   4.253   5.607  10.861 -0.0896  0.1700  1.7424
12578TIP3    H259226   4.390   5.672  10.856 -0.1051  0.1398 -1.1650
12579TIP3   OH259227   5.974   4.905   3.909  0.4136  0.1218 -0.1569
12579TIP3    H159228   6.068   4.912   3.925  0.4065  2.9303 -0.7503
12579TIP3    H259229   5.939   4.991   3.934 -2.3253 -1.3869  1.7415
12580TIP3   OH259230   5.264   1.993   0.417 -0.7855 -0.3994  0.0136
12580TIP3    H159231   5.295   2.032   0.336 -1.4229  1.6130  0.6648
12580TIP3    H259232   5.242   2.068   0.473 -1.3066 -1.7157  1.6741
12581TIP3   OH259233   5.532   4.987  11.339  0.0834 -0.2134  0.0691
12581TIP3    H159234   5.502   5.049  11.273  0.0840 -0.0411  0.2309
12581TIP3    H259235   5.544   4.904  11.291  0.5279  0.0245 -0.2436
12582TIP3   OH259236   3.435   2.725   5.469 -0.2148 -0.5747  0.5114
12582TIP3    H159237   3.385   2.805   5.454 -0.1446 -0.8618 -1.6145
12582TIP3    H259238   3.373   2.664   5.508 -0.5917  0.1020  0.9925
12583TIP3   OH259239   1.255   2.340  13.570 -0.0201  0.8851  0.4642
12583TIP3    H159240   1.260   2.415  13.510 -0.0161  1.2546  0.9224
12583TIP3    H259241   1.173   2.354  13.618 -0.9583 -0.3537 -0.6932
12584TIP3   OH259242   2.620   6.089   4.781  0.1988  0.1431 -0.8078
12584TIP3    H159243   2.666   6.154   4.728  0.5333  0.6269  0.0604
12584TIP3    H259244   2.629   6.120   4.871  0.0036 -0.8841 -0.4196
12585TIP3   OH259245   1.179   4.600   5.686 -0.1409 -0.0445 -0.6882
12585TIP3    H159246   1.236   4.564   5.754  0.6216  0.4588 -1.0459
12585TIP3    H259247   1.239   4.643   5.625 -1.0027  1.8425 -0.2833
12586TIP3   OH259248   5.801   1.484   2.192  0.1321  0.2032  0.2060
12586TIP3    H159249   5.772   1.418   2.129 -1.9984  1.0912  0.1591
12586TIP3    H259250   5.895   1.491   2.178 -0.0526 -0.6731 -1.8489
12587TIP3   OH259251   0.764   3.193  15.987 -0.8350  0.0445 -0.8350
12587TIP3    H159252   0.852   3.192  15.949 -1.1279  0.8355 -1.5783
12587TIP3    H259253   0.769   3.134  16.062 -0.6040 -2.8206 -2.9426
12588TIP3   OH259254   4.766   4.852   3.593 -0.3205  0.2195  0.5091
12588TIP3    H159255   4.777   4.794   3.669 -2.6252 -0.7783  0.1979
12588TIP3    H259256   4.772   4.940   3.628  1.5262 -0.1820  1.3123
12589TIP3   OH259257   6.766   2.382  16.749  0.1242  0.1834 -0.0250
12589TIP3    H159258   6.836   2.336  16.703 -0.0082 -0.5231  0.4558
12589TIP3    H259259   6.698   2.315  16.761 -0.1427  0.5508  0.5399
12590TIP3   OH259260   4.324   4.572  16.920 -0.2930 -0.6568  0.5144
12590TIP3    H159261   4.309   4.484  16.955 -0.1096 -0.7317  0.4075
12590TIP3    H259262   4.394   4.560  16.855  0.0733 -0.3517  0.8463
12591TIP3   OH259263   5.933   3.642   4.723 -0.1391  0.0390 -0.6183
12591TIP3    H159264   5.962   3.550   4.729  1.9203  0.6776  0.3408
12591TIP3    H259265   5.891   3.659   4.807 -0.2108  0.0555 -0.6582
12592TIP3   OH259266   6.195   5.179   0.372  0.0728  0.6044  0.0854
12592TIP3    H159267   6.130   5.109   0.362  0.0151  0.6382  0.2276
12592TIP3    H259268   6.280   5.135   0.361  0.0225  0.5819 -0.2271
12593TIP3   OH259269   4.980   4.554  10.943 -0.4392  0.0058  0.2478
12593TIP3    H159270   5.036   4.502  10.884 -0.7047 -2.2878  1.8725
12593TIP3    H259271   5.040   4.618  10.981  0.8617 -1.5105  0.9147
12594TIP3   OH259272   5.144   6.781  12.535  0.0196  0.8035  0.2593
12594TIP3    H159273   5.050   6.778  12.514  0.2362 -1.1074 -0.7304
12594TIP3    H259274   5.187   6.770  12.450  1.1470  1.5898  0.7156
12595TIP3   OH259275   0.840   1.854  16.163 -0.7157  0.4124 -0.4571
12595TIP3    H159276   0.834   1.761  16.141  0.5502  0.1392  0.2572
12595TIP3    H259277   0.912   1.887  16.110 -0.3859  0.7019  0.1521
12596TIP3   OH259278   6.002   0.088  15.271  0.0937  0.3235 -0.5031
12596TIP3    H159279   6.041   0.158  15.219 -0.9453  1.7782  0.5926
12596TIP3    H259280   6.051   0.088  15.353 -0.4920  0.4070 -0.1411
12597TIP3   OH259281   0.050   1.121   1.933  0.4130  0.1124 -0.1127
12597TIP3    H159282  -0.011   1.146   2.002  0.6778  2.0334 -0.5069
12597TIP3    H259283   0.129   1.093   1.980  0.5393  1.2656  0.4178
12598TIP3   OH259284   2.708   6.526  14.421  0.1429 -0.1114  0.5225
12598TIP3    H159285   2.777   6.489  14.477  1.1586  2.2996  0.9986
12598TIP3    H259286   2.735   6.504  14.332  1.5269  0.6826  0.7088
12599TIP3   OH259287   5.430   6.253   0.704  0.2637 -0.3738  0.6483
12599TIP3    H159288   5.464   6.342   0.706 -1.2540  0.3681 -1.7462
12599TIP3    H259289   5.507   6.198   0.694  1.1896  0.6826  1.6415
12600TIP3   OH259290   6.398   5.975  14.057  0.3276 -0.4638  0.1881
12600TIP3    H159291   6.381   6.018  13.973  1.9746 -1.4306 -0.6977
12600TIP3    H259292   6.480   6.014  14.087  0.6136 -1.3055  0.5302
12601TIP3   OH259293   4.239   1.233   0.974 -0.4766 -0.2063 -0.1331
12601TIP3    H159294   4.332   1.243   0.995 -0.6411  1.8039 -0.1471
12601TIP3    H259295   4.234   1.150   0.927  0.9724 -1.3857  1.6268
12602TIP3   OH259296   0.491   4.624  12.483  0.0563 -0.1841  0.1182
12602TIP3    H159297   0.436   4.668  12.549  0.5335  1.2713 -0.4094
12602TIP3    H259298   0.547   4.694  12.449 -1.0449 -0.5593 -2.7492
12603TIP3   OH259299   0.293   0.229   5.416 -0.0940  0.0863 -0.4253
12603TIP3    H159300   0.341   0.231   5.499  1.6977 -0.9694 -1.3901
12603TIP3    H259301   0.285   0.322   5.392  0.8461  0.3226  0.1092
12604TIP3   OH259302   5.248   6.562   0.629 -0.5851 -0.8234  0.4603
12604TIP3    H159303   5.235   6.592   0.539 -0.9532  1.1590  1.1297
12604TIP3    H259304   5.330   6.513   0.626 -0.2243 -0.1898 -0.8283
12605TIP3   OH259305   1.428   5.666  17.027  0.3124  0.8047  0.1009
12605TIP3    H159306   1.476   5.601  17.079  0.3970  0.2238 -0.6896
12605TIP3    H259307   1.375   5.614  16.967 -1.4207  1.4226  1.0128
12606TIP3   OH259308   3.778   4.555  11.623  0.1115 -0.1353  0.1400
12606TIP3    H159309   3.840   4.483  11.630 -0.4542 -0.6983 -0.4739
12606TIP3    H259310   3.790   4.589  11.535  0.7034  0.8444  0.5817
12607TIP3   OH259311   5.554   2.672  12.939 -0.5306  0.1737 -0.2218
12607TIP3    H159312   5.587   2.583  12.954  0.6662  0.4374 -1.1304
12607TIP3    H259313   5.498   2.665  12.862  1.1013  0.5097 -1.4882
12608TIP3   OH259314   3.607   5.298   5.893 -0.1136 -0.5944 -0.2131
12608TIP3    H159315   3.607   5.297   5.988  0.6974 -1.2827 -0.2065
12608TIP3    H259316   3.516   5.314   5.869 -0.2169  0.2676  0.6673
12609TIP3   OH259317   6.822   4.866  14.505 -0.7269  0.2691  0.0091
12609TIP3    H159318   6.823   4.834  14.596  0.6591 -0.6945 -0.3058
12609TIP3    H259319   6.908   4.905  14.492  0.0615 -1.7908 -1.5802
12610TIP3   OH259320   5.093   4.001  12.963  0.1568  0.9202  0.0071
12610TIP3    H159321   5.028   3.958  13.019 -0.5982 -1.0543 -2.2341
12610TIP3    H259322   5.177   3.974  13.000 -0.2681  1.2626  1.2981
12611TIP3   OH259323   1.230   2.240   1.228 -0.3018  0.2397  0.5715
12611TIP3    H159324   1.187   2.170   1.178 -0.0459 -0.2502  1.0321
12611TIP3    H259325   1.173   2.253   1.304 -0.1391  0.2524  0.6913
12612TIP3   OH259326   1.270   4.598  12.146  0.4657 -0.4290  0.6515
12612TIP3    H159327   1.268   4.655  12.223 -0.7802  0.4562 -0.0154
12612TIP3    H259328   1.237   4.514  12.178 -1.0521  0.2233  0.8867
12613TIP3   OH259329   2.706   1.088   4.407 -0.2162  0.7117 -0.0753
12613TIP3    H159330   2.631   1.082   4.466  1.2939  0.4356  1.8881
12613TIP3    H259331   2.725   1.181   4.401 -1.1600  0.8653 -1.2484
12614TIP3   OH259332   6.292   1.270  13.473 -0.4612 -0.2219 -0.2852
12614TIP3    H159333   6.357   1.331  13.440  1.1510 -1.1882  0.9641
12614TIP3    H259334   6.212   1.322  13.482  0.1404  1.0170 -1.7757
12615TIP3   OH259335   4.956   2.210  15.194  0.3765  0.0624  0.3701
12615TIP3    H159336   4.902   2.166  15.128 -0.7012  0.6383  0.8355
12615TIP3    H259337   4.899   2.278  15.229  1.9399  1.7467 -0.2204
12616TIP3   OH259338   3.779   6.587   4.243  0.1233 -0.2250  0.5015
12616TIP3    H159339   3.766   6.493   4.232  1.1121 -0.2639 -0.5283
12616TIP3    H259340   3.873   6.598   4.251 -0.0048  0.6560  0.9265
12617TIP3   OH259341   5.215   6.493   5.976 -0.3501  0.1173  0.0899
12617TIP3    H159342   5.226   6.585   5.953 -1.0586  0.4953  1.1905
12617TIP3    H259343   5.122   6.474   5.959 -0.2380 -0.3593 -0.0181
12618TIP3   OH259344   5.521   4.301   4.312  0.5152 -0.0531  0.3452
12618TIP3    H159345   5.566   4.257   4.384  0.3318 -0.0792  0.4447
12618TIP3    H259346   5.561   4.388   4.310  1.9769 -0.7093 -0.8504
12619TIP3   OH259347   0.710   5.972   0.890 -0.8541  0.1490  0.0042
12619TIP3    H159348   0.752   6.009   0.968  1.1426  3.0123 -2.1954
12619TIP3    H259349   0.768   5.901   0.863 -1.0256 -0.2162  0.5832
12620TIP3   OH259350   4.760   1.322  14.869 -0.4877 -0.3074 -0.4436
12620TIP3    H159351   4.724   1.236  14.887 -2.2434 -0.0113 -2.1527
12620TIP3    H259352   4.837   1.305  14.814 -1.7408 -0.7939 -2.1342
12621TIP3   OH259353   1.280   6.152  14.499  0.2466 -0.0990  0.0086
12621TIP3    H159354   1.357   6.180  14.450 -0.7721  0.5210 -1.3315
12621TIP3    H259355   1.286   6.057  14.502  2.2824  0.0123  2.1001
12622TIP3   OH259356   2.721   6.813   4.376 -0.0556  0.8898 -0.0765
12622TIP3    H159357   2.730   6.719   4.390  0.7007  0.9433 -0.1485
12622TIP3    H259358   2.759   6.828   4.289 -0.5813  1.1953 -0.2558
12623TIP3   OH259359   0.672   2.354  13.393 -0.0431 -0.0225 -0.0046
12623TIP3    H159360   0.659   2.395  13.307 -1.8452  0.2339  0.3488
12623TIP3    H259361   0.696   2.264  13.372  0.2840  0.2314 -0.7797
12624TIP3   OH259362   6.275   3.514  14.457 -0.3083 -0.2028  0.2139
12624TIP3    H159363   6.316   3.495  14.541  0.6736 -0.4516 -0.3003
12624TIP3    H259364   6.207   3.579  14.477  0.0064 -0.1540  1.1660
12625TIP3   OH259365   1.190   2.290   4.281  0.7923  0.4920  0.0067
12625TIP3    H159366   1.138   2.309   4.203 -0.2791  0.4604  0.6888
12625TIP3    H259367   1.148   2.340   4.351 -0.6030 -2.2787  1.3385
12626TIP3   OH259368   1.920   0.831   5.768  0.3902  0.1419 -0.8220
12626TIP3    H159369   2.008   0.839   5.805 -0.1413  1.0422  0.3126
12626TIP3    H259370   1.898   0.919   5.739 -0.5756  0.1881 -0.0225
12627TIP3   OH259371   2.289   0.706   2.895 -0.2122 -0.3430  0.5574
12627TIP3    H159372   2.302   0.664   2.810 -0.5065  2.4671 -0.9784
12627TIP3    H259373   2.377   0.717   2.931 -0.0585 -1.2101  0.4643
12628TIP3   OH259374   1.933   3.520  10.917  0.3326  0.1207 -0.0898
12628TIP3    H159375   2.015   3.470  10.921 -0.4609 -1.2490 -0.1519
12628TIP3    H259376   1.904   3.510  10.826 -0.1320  0.1869  0.0503
12629TIP3   OH259377   4.507   4.183   4.304 -0.0424  0.2304 -0.1948
12629TIP3    H159378   4.538   4.111   4.358 -0.5000  2.3372  3.1651
12629TIP3    H259379   4.577   4.196   4.239  0.7871 -2.0916  0.1323
12630TIP3   OH259380   5.609   2.401  16.972  0.1303  0.0240 -0.4789
12630TIP3    H159381   5.576   2.311  16.965 -3.2164  1.1108 -0.3609
12630TIP3    H259382   5.614   2.431  16.881 -1.0570  0.4151 -0.4337
12631TIP3   OH259383   2.835   3.184  11.651  0.2091  0.1256 -0.1467
12631TIP3    H159384   2.832   3.155  11.742  1.6449 -0.2325 -0.1875
12631TIP3    H259385   2.823   3.105  11.600 -1.6583  0.4765 -0.2972
12632TIP3   OH259386   0.424   1.726  11.138 -0.2238  0.4750  0.6356
12632TIP3    H159387   0.402   1.759  11.051  1.0309  1.3009  0.6103
12632TIP3    H259388   0.511   1.761  11.156 -0.5111  0.4221  2.2841
12633TIP3   OH259389   4.808   6.811  15.173 -0.0645 -1.2444 -0.4609
12633TIP3    H159390   4.754   6.862  15.114  1.2895  1.1110  0.2126
12633TIP3    H259391   4.746   6.773  15.236 -1.0039  1.4200  0.3363
12634TIP3   OH259392   0.521   1.465  15.536  0.1481 -0.2168  0.2385
12634TIP3    H159393   0.616   1.470  15.526  0.0497  0.9117 -0.2767
12634TIP3    H259394   0.486   1.510  15.459 -0.7912  0.0338  0.7957
12635TIP3   OH259395   1.171   2.286  11.516 -0.1411 -0.0457  0.8209
12635TIP3    H159396   1.152   2.374  11.548  1.8314 -0.0869  2.2677
12635TIP3    H259397   1.158   2.229  11.592  2.0576 -0.5054  0.9110
12636TIP3   OH259398   6.751   3.652  12.297  0.1953 -0.2480  0.2480
12636TIP3    H159399   6.807   3.712  12.247  0.1765 -0.0957  0.4081
12636TIP3    H259400   6.735   3.698  12.380 -2.3083  0.8671 -0.7715
12637TIP3   OH259401   1.868   5.409  14.192 -0.6544 -0.0179 -0.0064
12637TIP3    H159402   1.833   5.459  14.118 -0.4071 -0.5267 -0.4800
12637TIP3    H259403   1.907   5.332  14.151 -1.3739 -0.7942  0.7398
12638TIP3   OH259404   0.965   2.899   2.843  0.4583 -0.8503 -0.1457
12638TIP3    H159405   1.056   2.868   2.847  1.4985  1.9884  2.1025
12638TIP3    H259406   0.968   2.974   2.784 -0.2250 -0.2759  0.5247
12639TIP3   OH259407   6.392   1.279  13.162  0.0492 -0.1282  0.1939
12639TIP3    H159408   6.377   1.347  13.228 -2.8802  0.9744 -1.4412
12639TIP3    H259409   6.315   1.222  13.167  1.1091 -1.6952 -0.4157
12640TIP3   OH259410   2.583   5.171   1.312 -0.2916 -0.2235 -1.0699
12640TIP3    H159411   2.642   5.246   1.317 -0.1156 -0.4221  0.2750
12640TIP3    H259412   2.499   5.209   1.286  0.0340  0.2948 -1.3851
12641TIP3   OH259413   6.382   6.089   5.554  0.0317 -0.1276 -0.0782
12641TIP3    H159414   6.291   6.111   5.532  0.0628  0.2035  0.1295
12641TIP3    H259415   6.416   6.050   5.474 -0.3443 -0.4163 -0.1050
12642TIP3   OH259416   0.183   3.951   5.988  0.0356 -0.2398 -0.6966
12642TIP3    H159417   0.270   3.965   6.025 -0.1079 -2.0781  0.4794
12642TIP3    H259418   0.188   3.866   5.945 -1.1987 -0.4141 -0.5346
12643TIP3   OH259419   6.754   0.548   4.729 -0.4879 -0.0604 -0.3381
12643TIP3    H159420   6.679   0.561   4.787 -2.0491 -1.2588 -1.9742
12643TIP3    H259421   6.763   0.453   4.721  0.8077  0.0686 -0.7011
12644TIP3   OH259422   1.480   0.418   3.235  0.1906 -0.4371  0.3909
12644TIP3    H159423   1.511   0.451   3.320 -1.6513  0.1070  0.8932
12644TIP3    H259424   1.448   0.495   3.189 -0.9094 -1.0261  0.1336
12645TIP3   OH259425   5.997   5.645   1.479 -0.0764  0.2659 -0.3507
12645TIP3    H159426   6.048   5.566   1.498 -1.1649 -0.2702  0.3983
12645TIP3    H259427   5.932   5.616   1.415 -1.8557 -0.0149  1.4854
12646TIP3   OH259428   4.342   3.854   3.674  0.6337 -0.1392  0.2221
12646TIP3    H159429   4.374   3.825   3.760 -0.7346  0.1068  0.8466
12646TIP3    H259430   4.355   3.778   3.617  2.5536  0.0464  0.3516
12647TIP3   OH259431   6.199   3.875  12.629  0.0982 -0.4020  0.1271
12647TIP3    H159432   6.138   3.882  12.556  0.1295  0.7137  0.1899
12647TIP3    H259433   6.199   3.782  12.652 -1.4550 -0.4480  0.0364
12648TIP3   OH259434   0.496   5.415   2.706  0.3600  0.1520  0.0224
12648TIP3    H159435   0.505   5.510   2.702 -0.8462  0.2853  0.1107
12648TIP3    H259436   0.462   5.398   2.794  2.6391 -0.5702  0.8152
12649TIP3   OH259437   4.039   5.071  11.190  0.2939 -0.5744  0.0399
12649TIP3    H159438   3.959   5.103  11.233  0.3380  0.3304 -0.5292
12649TIP3    H259439   4.088   5.028  11.260 -0.5250 -0.8292  0.4721
12650TIP3   OH259440   0.184   6.367  15.007  0.0572  0.1182 -0.1158
12650TIP3    H159441   0.134   6.390  15.084  1.0534 -2.9721  1.6501
12650TIP3    H259442   0.256   6.431  15.004  0.3080 -0.0166  1.8923
12651TIP3   OH259443   2.694   6.788  16.837 -0.2330  0.5278 -0.9246
12651TIP3    H159444   2.619   6.845  16.853  0.8942  1.6763  0.4763
12651TIP3    H259445   2.770   6.845  16.847  0.9313 -1.1485  0.3290
12652TIP3   OH259446   3.168   0.597   4.988  0.5156  0.3283 -0.7249
12652TIP3    H159447   3.251   0.595   5.036  1.9909  0.7925 -3.1100
12652TIP3    H259448   3.129   0.511   5.005  1.3569  0.1733  0.5948
12653TIP3   OH259449   2.726   4.985  10.855  0.4485 -0.3809  0.0634
12653TIP3    H159450   2.776   5.029  10.785  0.3669  0.8922  0.7773
12653TIP3    H259451   2.743   5.037  10.933 -2.0892  0.1826  0.3183
12654TIP3   OH259452   6.555   6.381   6.071 -0.1354  0.5756  0.0941
12654TIP3    H159453   6.592   6.367   6.158 -0.7383  0.4456  0.3326
12654TIP3    H259454   6.548   6.293   6.034  0.4949  0.6610 -0.2497
12655TIP3   OH259455   2.715   5.624   2.704 -0.2197 -0.4120  0.8099
12655TIP3    H159456   2.704   5.529   2.709  2.3254 -0.8350 -0.1759
12655TIP3    H259457   2.627   5.658   2.689 -0.9831 -2.7502 -0.4547
12656TIP3   OH259458   6.395   0.190   2.535 -0.4695  0.5947 -0.4098
12656TIP3    H159459   6.487   0.184   2.561 -0.5409  1.6378  0.1062
12656TIP3    H259460   6.398   0.196   2.440 -0.1398 -1.7254 -0.6207
12657TIP3   OH259461   1.512   6.266  14.396  0.5232  0.1005 -0.0635
12657TIP3    H159462   1.503   6.345  14.342  2.0690 -1.8466 -3.5223
12657TIP3    H259463   1.586   6.285  14.454  0.6287  1.3725 -0.5814
12658TIP3   OH259464   1.494   4.870   0.249 -0.4278  0.6061  0.1635
12658TIP3    H159465   1.517   4.881   0.341  1.6324  1.7534 -0.4347
12658TIP3    H259466   1.563   4.916   0.201 -2.7042  2.1346 -1.8993
12659TIP3   OH259467   5.834   2.085  16.737 -0.5888  0.6575 -0.0937
12659TIP3    H159468   5.744   2.069  16.710 -0.6864 -1.0065  1.0820
12659TIP3    H259469   5.839   2.052  16.826  1.1646  0.7694 -0.1152
12660TIP3   OH259470   5.897   2.528  13.852  0.3545 -0.1461  0.0661
12660TIP3    H159471   5.849   2.557  13.774  0.4903  0.4152  0.1843
12660TIP3    H259472   5.953   2.458  13.821  1.9155  1.4060 -0.8085
12661TIP3   OH259473   3.234   3.083   1.315  0.0495 -0.0282  0.4443
12661TIP3    H159474   3.187   3.000   1.323 -1.0862  0.5919  0.3932
12661TIP3    H259475   3.266   3.083   1.225  3.0698 -1.9183  1.3615
12662TIP3   OH259476   1.394   2.561   0.154 -0.1458 -0.6115 -0.2628
12662TIP3    H159477   1.476   2.530   0.192  1.2279  2.2115 -0.6656
12662TIP3    H259478   1.375   2.644   0.199 -2.1467 -0.5871 -1.0156
12663TIP3   OH259479   1.966   5.189  17.157 -0.3989 -0.1231 -0.2962
12663TIP3    H159480   1.969   5.181  17.252 -0.0235 -0.2848 -0.3213
12663TIP3    H259481   1.970   5.098  17.125 -0.9673 -0.0926 -0.4539
12664TIP3   OH259482   6.026   3.345  16.983  0.2487  0.1701  0.0567
12664TIP3    H159483   6.077   3.264  16.981 -0.8270 -0.5609  1.0854
12664TIP3    H259484   5.937   3.318  16.960  0.4544  1.6050 -2.9065
12665TIP3   OH259485   0.627   6.369   0.331  0.6183  0.1756  0.2585
12665TIP3    H159486   0.545   6.344   0.289  1.2667 -1.0681 -0.3138
12665TIP3    H259487   0.656   6.446   0.283  0.4215 -0.1294 -0.3568
12666TIP3   OH259488   1.925   5.367  13.192 -0.0218 -0.5251 -0.0893
12666TIP3    H159489   1.985   5.433  13.156 -0.6911  0.1382 -0.0005
12666TIP3    H259490   1.957   5.352  13.281 -1.1536  1.3291  0.6809
12667TIP3   OH259491   0.181   4.091  11.795 -0.3123  0.4752 -0.0058
12667TIP3    H159492   0.257   4.064  11.743 -0.3900  0.1140  0.0617
12667TIP3    H259493   0.111   4.101  11.730 -0.7233 -1.1334  0.1364
12668TIP3   OH259494   2.650   5.956   3.483 -0.3334 -0.5546 -0.3370
12668TIP3    H159495   2.670   5.862   3.483  1.5628 -0.3429 -3.9406
12668TIP3    H259496   2.608   5.971   3.398 -2.0846  1.6533  0.8316
12669TIP3   OH259497   4.862   3.606   4.269  0.4404  0.2480  0.3485
12669TIP3    H159498   4.789   3.544   4.266 -0.4220  1.2572 -1.0083
12669TIP3    H259499   4.820   3.690   4.289  1.3410  0.6978  0.3699
12670TIP3   OH259500   3.227   0.581  11.004  0.4207  0.2151 -0.1925
12670TIP3    H159501   3.289   0.515  11.036  0.6145 -0.0535 -1.0914
12670TIP3    H259502   3.217   0.561  10.911 -1.9127 -0.4595  0.1440
12671TIP3   OH259503   0.664   1.357   6.141 -0.2365 -0.0944  0.1978
12671TIP3    H159504   0.646   1.366   6.235 -1.4606 -0.6180  0.0281
12671TIP3    H259505   0.578   1.366   6.100  0.0513 -1.5404 -0.7558
12672TIP3   OH259506   2.333   6.059   2.948  0.2329 -0.0491 -0.1491
12672TIP3    H159507   2.413   6.106   2.971  0.1217 -0.1179  0.3826
12672TIP3    H259508   2.360   5.996   2.881  0.7293 -0.4438  0.4144
12673TIP3   OH259509   4.726   3.368  14.306  0.2831  0.1621 -0.5862
12673TIP3    H159510   4.634   3.344  14.302  0.1356  0.7665 -3.5164
12673TIP3    H259511   4.771   3.300  14.256  0.8153  1.9360 -2.6611
12674TIP3   OH259512   4.029   6.109   1.442 -0.5364 -0.0979  0.4435
12674TIP3    H159513   3.955   6.079   1.389 -0.9354  2.3428 -0.5113
12674TIP3    H259514   4.001   6.093   1.533 -1.2523 -1.2696  0.0440
12675TIP3   OH259515   3.214   0.101   3.952  0.0914 -0.0402 -0.9188
12675TIP3    H159516   3.209   0.195   3.971 -3.3926 -0.4482  1.0731
12675TIP3    H259517   3.274   0.067   4.019 -0.6627  0.4773  0.0527
12676TIP3   OH259518   3.902   1.402  13.036  0.0269  0.6769  0.0277
12676TIP3    H159519   3.989   1.415  12.998  0.1358  0.8566  0.3436
12676TIP3    H259520   3.915   1.408  13.130 -0.6683  2.7632  0.0311
12677TIP3   OH259521   6.518   0.179  16.669  0.3424  0.0435  0.2781
12677TIP3    H159522   6.440   0.227  16.642  0.2123  0.4477  1.3060
12677TIP3    H259523   6.588   0.245  16.669  0.5467 -0.1702 -0.0133
12678TIP3   OH259524   1.654   6.091   3.487 -0.5042 -0.0880 -0.0682
12678TIP3    H159525   1.684   6.075   3.577 -1.4471 -0.3383  0.2107
12678TIP3    H259526   1.734   6.114   3.440  0.4650 -2.5543  0.2124
12679TIP3   OH259527   3.531   0.948  11.704  0.1321  0.2160  0.0210
12679TIP3    H159528   3.515   0.860  11.671  0.3842  0.3141 -0.3662
12679TIP3    H259529   3.608   0.940  11.760  0.6500  0.3343 -0.6590
12680TIP3   OH259530   3.753   1.174   2.764 -0.4170  0.4089  0.1343
12680TIP3    H159531   3.664   1.170   2.800 -1.1598 -0.6701 -1.6615
12680TIP3    H259532   3.760   1.095   2.710  1.0822  1.2763 -1.0005
12681TIP3   OH259533   2.350   4.810   3.755  0.1784  0.1952 -0.4767
12681TIP3    H159534   2.280   4.868   3.729 -1.1294 -1.1516 -0.1247
12681TIP3    H259535   2.348   4.739   3.691  0.7007 -0.2436 -0.0245
12682TIP3   OH259536   6.659   2.163   5.497  0.1319 -0.0585 -0.2080
12682TIP3    H159537   6.667   2.079   5.542 -2.9829  0.3368  1.3664
12682TIP3    H259538   6.701   2.149   5.412  0.7133 -2.8231  0.4324
12683TIP3   OH259539   2.431   6.760   3.058  0.1091 -0.0027  0.6894
12683TIP3    H159540   2.348   6.795   3.089  1.2575  2.2900  1.4092
12683TIP3    H259541   2.485   6.754   3.137  0.5026 -1.9527  0.3216
12684TIP3   OH259542   0.801   3.703   3.697 -0.2524 -0.0254 -0.4309
12684TIP3    H159543   0.821   3.773   3.634 -0.8660 -0.4817 -1.1567
12684TIP3    H259544   0.713   3.674   3.673  0.8776 -2.7453 -1.8000
12685TIP3   OH259545   5.053   6.273   2.106 -0.1977  0.2784  0.2070
12685TIP3    H159546   5.005   6.247   2.185 -0.2335 -1.3596 -0.3002
12685TIP3    H259547   4.992   6.328   2.058 -0.9147 -0.3198  0.4076
12686TIP3   OH259548   2.895   1.122   2.002 -0.6670 -0.4888 -0.3621
12686TIP3    H159549   2.882   1.200   1.949 -0.9845 -0.1926  0.1445
12686TIP3    H259550   2.974   1.081   1.966  0.2976  0.8027  0.2262
12687TIP3   OH259551   1.142   2.452  11.052  0.2945  0.9008  0.3412
12687TIP3    H159552   1.055   2.436  11.091  0.5668  0.2535  0.7012
12687TIP3    H259553   1.140   2.403  10.970  1.6429 -2.4490  2.1127
12688TIP3   OH259554   0.559   0.008   0.565  0.0082  0.8423 -0.0579
12688TIP3    H159555   0.477  -0.042   0.561  0.9198 -0.7034 -0.1745
12688TIP3    H259556   0.615  -0.032   0.498  1.1633  1.3055  0.6016
12689TIP3   OH259557   0.248   1.177   3.433  0.2383  0.3009 -0.3144
12689TIP3    H159558   0.261   1.259   3.384 -0.4316 -0.6268 -2.1526
12689TIP3    H259559   0.215   1.204   3.518  0.4514  1.9620 -0.7323
12690TIP3   OH259560   2.761   1.587   1.084  0.1509 -0.1574 -0.4281
12690TIP3    H159561   2.804   1.614   1.003  1.1066  0.3021  0.2099
12690TIP3    H259562   2.780   1.657   1.147 -1.3715 -0.0501 -0.0538
12691TIP3   OH259563   0.489   2.793  14.414  0.9348 -0.4060 -0.3414
12691TIP3    H159564   0.478   2.720  14.353  0.8650  0.3471 -1.2566
12691TIP3    H259565   0.403   2.804  14.454  1.7754 -3.1629  2.6021
12692TIP3   OH259566   5.486   0.971  11.511  0.0987 -0.2315  0.3893
12692TIP3    H159567   5.565   1.024  11.502  0.1773 -0.1780  1.2942
12692TIP3    H259568   5.463   0.947  11.421  1.3446 -0.5660  0.1409
12693TIP3   OH259569   5.080   1.617   0.103 -0.0528 -0.0784  0.0877
12693TIP3    H159570   5.093   1.522   0.106 -1.5555 -0.2993  0.7911
12693TIP3    H259571   5.071   1.643   0.194  1.0946  0.8924 -0.0439
12694TIP3   OH259572   6.728   2.632  12.236 -0.2786  0.3351  0.2195
12694TIP3    H159573   6.742   2.724  12.211 -0.8569  0.5569  0.6576
12694TIP3    H259574   6.689   2.592  12.158 -0.7980  0.6772  0.2935
12695TIP3   OH259575   2.382   4.184  15.179  0.5055 -0.4728  0.6131
12695TIP3    H159576   2.312   4.132  15.140 -0.3292  1.4441 -0.5836
12695TIP3    H259577   2.350   4.206  15.267 -0.3570  0.3012  0.1115
12696TIP3   OH259578   3.093   0.864   5.729 -0.3023 -0.1717 -0.6764
12696TIP3    H159579   3.109   0.781   5.684 -4.2342 -1.3256 -0.3375
12696TIP3    H259580   3.025   0.843   5.794  0.3038  2.8573  1.1318
12697TIP3   OH259581   4.049   4.909  10.859 -0.0137  0.6375  0.1152
12697TIP3    H159582   3.971   4.855  10.874  0.0065  0.7891  0.7879
12697TIP3    H259583   4.122   4.854  10.889  0.3231 -0.1199 -1.9133
12698TIP3   OH259584   4.259   2.336   3.161 -0.8171 -0.1288  0.0335
12698TIP3    H159585   4.347   2.371   3.146 -0.1436 -1.5918  0.4009
12698TIP3    H259586   4.246   2.342   3.255 -0.9913 -0.2145  0.0161
12699TIP3   OH259587   1.765   5.841   0.692 -0.1809 -0.2351  0.1350
12699TIP3    H159588   1.799   5.821   0.780  1.4762  0.4104 -0.3301
12699TIP3    H259589   1.802   5.926   0.671  0.8423 -1.1140 -1.8640
12700TIP3   OH259590   4.715   1.159   2.607 -0.1284  0.0653 -0.2497
12700TIP3    H159591   4.714   1.070   2.642 -0.9677 -0.2769 -1.1080
12700TIP3    H259592   4.795   1.198   2.643  1.8543 -1.9764 -2.1355
12701TIP3   OH259593   2.829   0.542  16.997 -0.1570 -0.4677  0.3609
12701TIP3    H159594   2.813   0.486  17.073  0.2791  2.0805  2.4575
12701TIP3    H259595   2.884   0.613  17.029 -0.1891  0.9029 -2.2802
12702TIP3   OH259596   4.501   4.918  10.758  0.0906 -0.3012  0.1156
12702TIP3    H159597   4.476   4.843  10.705  2.7612 -0.0994 -1.6098
12702TIP3    H259598   4.440   4.987  10.732  0.0870 -0.7878 -1.2267
12703TIP3   OH259599   2.429   2.993  13.221 -0.4163  0.2178  0.0632
12703TIP3    H159600   2.462   2.928  13.283  1.8195  1.7942  0.6612
12703TIP3    H259601   2.507   3.024  13.175 -1.5800  1.5151 -1.1535
12704TIP3   OH259602   5.347   0.946  12.387 -0.2800  0.0276  0.2293
12704TIP3    H159603   5.413   1.015  12.378 -1.7176  1.2196 -3.1807
12704TIP3    H259604   5.309   0.939  12.299 -1.7343 -3.6452  0.9865
12705TIP3   OH259605   0.241   0.141   2.128  0.2319  0.0366  0.2571
12705TIP3    H159606   0.249   0.189   2.210  1.7064  0.4410 -0.0921
12705TIP3    H259607   0.206   0.205   2.066 -2.3116 -0.6550  0.8487
12706TIP3   OH259608   5.587   4.712  12.422  0.2035  0.7369 -0.0062
12706TIP3    H159609   5.551   4.730  12.509  2.8720  0.6113  1.2152
12706TIP3    H259610   5.554   4.625  12.400 -0.7563  0.9037  0.6928
12707TIP3   OH259611   1.690   1.135  17.001  0.1626 -0.6132 -0.0999
12707TIP3    H159612   1.748   1.185  17.059  0.6292  0.0307 -1.0933
12707TIP3    H259613   1.605   1.136  17.045  0.2897  0.6364  0.1441
12708TIP3   OH259614   6.496   6.255  12.850 -0.6130 -0.3206 -0.3324
12708TIP3    H159615   6.464   6.315  12.783  1.1192  0.6762 -0.3142
12708TIP3    H259616   6.475   6.168  12.817  0.4056  0.1318 -2.2997
12709TIP3   OH259617   2.391   0.474  12.509  0.0138 -0.3591  0.3857
12709TIP3    H159618   2.352   0.502  12.592  0.3492 -1.2129  0.8431
12709TIP3    H259619   2.316   0.464  12.449 -0.3984 -1.2803  1.0435
12710TIP3   OH259620   0.872   5.824   4.557  0.2579  0.0294  0.5586
12710TIP3    H159621   0.807   5.889   4.532 -0.6288 -1.7895 -2.3808
12710TIP3    H259622   0.953   5.875   4.569 -0.5694  1.7755 -0.7838
12711TIP3   OH259623   4.034   0.194  13.606 -0.3503 -0.0776 -0.1327
12711TIP3    H159624   4.106   0.132  13.599 -0.1792 -0.1102  1.3891
12711TIP3    H259625   3.960   0.141  13.636 -0.1668  0.4246  1.3187
12712TIP3   OH259626   6.271   0.910  16.185 -0.5701  0.0391  0.2167
12712TIP3    H159627   6.223   0.973  16.131  0.5064  0.6176 -0.0931
12712TIP3    H259628   6.348   0.887  16.132 -0.7557 -1.2652  0.4781
12713TIP3   OH259629   6.270   1.451  14.979  0.0323 -0.4171  0.5163
12713TIP3    H159630   6.178   1.439  15.002 -0.2079  0.6698  0.1818
12713TIP3    H259631   6.279   1.411  14.893  0.5047 -2.8300  1.5831
12714TIP3   OH259632   5.781   0.009   6.066 -0.0015  0.1356  0.3160
12714TIP3    H159633   5.842   0.056   6.010 -0.3411 -0.9753 -1.0579
12714TIP3    H259634   5.776   0.062   6.146  1.0662  1.3838 -0.3951
12715TIP3   OH259635   2.637   4.956  15.183  0.5074  0.1808 -0.4379
12715TIP3    H159636   2.707   4.899  15.212  0.8345  0.8403  0.0727
12715TIP3    H259637   2.556   4.909  15.205  0.6798  1.1061  2.6096
12716TIP3   OH259638   4.567   3.427  16.055 -0.4267  0.3178 -0.2193
12716TIP3    H159639   4.557   3.503  16.113 -1.2930  0.2937 -0.3156
12716TIP3    H259640   4.478   3.390  16.049  0.2273 -1.7151  1.2029
12717TIP3   OH259641   1.149   5.423  15.415  0.2732 -0.1036  0.4083
12717TIP3    H159642   1.141   5.335  15.452 -1.4046 -0.1461  0.0075
12717TIP3    H259643   1.225   5.460  15.459 -0.4445 -0.8742  2.4177
12718TIP3   OH259644   4.325   0.636  13.129  0.2279 -0.0998 -0.4817
12718TIP3    H159645   4.274   0.582  13.068  1.0656 -1.3785 -0.0800
12718TIP3    H259646   4.307   0.598  13.215 -0.5831  1.4052  0.0497
12719TIP3   OH259647   3.805   4.150   3.862  0.2376 -0.1609  0.1851
12719TIP3    H159648   3.711   4.155   3.849  0.4951  0.0201 -2.1532
12719TIP3    H259649   3.837   4.237   3.836  1.2867 -1.2438 -2.5624
12720TIP3   OH259650   5.204   4.603   2.230 -0.1669  0.2070  0.3561
12720TIP3    H159651   5.135   4.667   2.247  0.6951  1.0913  0.6651
12720TIP3    H259652   5.166   4.542   2.167 -1.9825 -0.6649  2.1929
12721TIP3   OH259653   5.298   6.463  12.712 -0.5052 -0.8692  0.2745
12721TIP3    H159654   5.261   6.443  12.797 -0.1331  0.3731  0.7501
12721TIP3    H259655   5.368   6.526  12.730  0.5264 -1.6399 -0.8062
12722TIP3   OH259656   6.087   3.858   1.475 -0.2196  0.1252  0.2015
12722TIP3    H159657   6.120   3.809   1.400 -0.1066 -1.9390  1.5504
12722TIP3    H259658   6.068   3.792   1.542 -3.0451  1.5946  1.0267
12723TIP3   OH259659   4.710   0.021  12.964  0.3263 -0.4707 -0.5567
12723TIP3    H159660   4.723  -0.070  12.991 -1.3713 -0.8433 -0.8558
12723TIP3    H259661   4.663   0.062  13.036  1.8879  0.4710 -0.0166
12724TIP3   OH259662   1.491   2.734   2.475  0.3110 -0.5506 -0.3715
12724TIP3    H159663   1.586   2.729   2.467  0.3096 -1.3626 -0.0017
12724TIP3    H259664   1.459   2.738   2.385  0.7926  2.4056 -0.4987
12725TIP3   OH259665   2.228   1.895   5.764 -0.0236 -0.1243 -0.5811
12725TIP3    H159666   2.309   1.941   5.742 -0.0836 -0.7406 -2.2566
12725TIP3    H259667   2.227   1.819   5.706 -0.5984 -1.5202  1.1393
12726TIP3   OH259668   5.455   1.479  15.452 -0.0471  0.3759 -0.4128
12726TIP3    H159669   5.389   1.512  15.513 -1.1279 -2.7136  0.2485
12726TIP3    H259670   5.405   1.443  15.379  0.9353 -0.8352 -0.5348
12727TIP3   OH259671   3.836   0.475   6.117 -0.7032 -0.4106 -0.5723
12727TIP3    H159672   3.811   0.567   6.108  1.0002  0.0244 -1.3264
12727TIP3    H259673   3.808   0.451   6.205 -0.4603  1.0779 -0.0623
12728TIP3   OH259674   4.107   3.510  14.438  0.2557 -0.3574 -0.0236
12728TIP3    H159675   4.114   3.495  14.532 -3.3612 -1.0417  0.2753
12728TIP3    H259676   4.052   3.588  14.429  0.7214 -0.1609 -1.6127
12729TIP3   OH259677   3.953   3.229   1.652  0.1719 -0.1576  0.1672
12729TIP3    H159678   3.943   3.316   1.612  0.3008  0.1697  0.8292
12729TIP3    H259679   3.865   3.191   1.649  0.0328  0.1531  0.2099
12730TIP3   OH259680   0.599   6.506   3.620  0.0329 -0.2572 -0.0549
12730TIP3    H159681   0.626   6.438   3.683 -3.1267 -0.5210  1.2126
12730TIP3    H259682   0.645   6.585   3.649  0.0058 -0.7896  1.5688
12731TIP3   OH259683   3.109   0.833   4.149  0.2781  0.0605  0.0631
12731TIP3    H159684   3.032   0.858   4.097  1.2043  2.9365 -0.1244
12731TIP3    H259685   3.184   0.861   4.096  1.3417  0.4735  1.6993
12732TIP3   OH259686   5.535   1.301   3.196  0.5117 -0.1918 -0.2024
12732TIP3    H159687   5.527   1.233   3.262 -0.9542 -0.1492 -0.2960
12732TIP3    H259688   5.603   1.360   3.229  0.5209 -0.7310  0.7551
12733TIP3   OH259689   3.727   3.329  13.353 -0.0450 -0.2189 -0.0850
12733TIP3    H159690   3.758   3.399  13.410  0.2248  0.0180 -0.5252
12733TIP3    H259691   3.767   3.347  13.268  0.6402 -1.3288 -0.0191
12734TIP3   OH259692   1.339   1.880  14.578  0.3216 -0.4196 -0.5404
12734TIP3    H159693   1.250   1.850  14.597  0.7886 -0.2891  2.1271
12734TIP3    H259694   1.326   1.949  14.513 -1.5135 -0.5187 -0.3581
12735TIP3   OH259695   6.202   1.974   4.480  0.0847  0.3641  0.1675
12735TIP3    H159696   6.294   1.969   4.456 -0.5006  0.2866 -2.3434
12735TIP3    H259697   6.188   1.897   4.536  1.1922 -0.6278 -0.8501
12736TIP3   OH259698   6.570   2.161  16.473  0.0966  0.1992 -0.0198
12736TIP3    H159699   6.635   2.165  16.544  0.5242  1.6733 -0.4570
12736TIP3    H259700   6.603   2.093  16.415 -1.7972 -3.2725  2.5705
12737TIP3   OH259701   1.852   0.385  14.929  0.1720  0.0936  0.7823
12737TIP3    H159702   1.880   0.425  15.012 -2.5746  0.1488  1.7815
12737TIP3    H259703   1.768   0.343  14.950  0.0989 -1.1525 -1.6598
12738TIP3   OH259704   4.130   5.093   4.795 -0.4335 -0.0485  0.7483
12738TIP3    H159705   4.202   5.066   4.851  0.2965 -1.8112 -0.9162
12738TIP3    H259706   4.081   5.013   4.777 -1.3519  0.6761 -0.1430
12739TIP3   OH259707   6.719   3.876  12.456  0.1855  0.2462  0.1317
12739TIP3    H159708   6.677   3.949  12.410  0.0491 -0.7516 -1.3848
12739TIP3    H259709   6.810   3.905  12.469  0.1097  0.7274 -0.3666
12740TIP3   OH259710   0.506   1.155  13.422 -0.0327 -0.6499 -0.7876
12740TIP3    H159711   0.422   1.121  13.391 -1.9908  0.6583  2.5116
12740TIP3    H259712   0.515   1.239  13.377 -0.5842 -0.7173 -1.0378
12741TIP3   OH259713   0.134   0.376  14.183 -0.6683  0.3291 -0.0216
12741TIP3    H159714   0.141   0.382  14.278  1.1225 -0.4718 -0.0685
12741TIP3    H259715   0.053   0.423  14.162 -1.6764 -0.4215  1.9789
12742TIP3   OH259716   0.393   2.684   4.535 -0.0927 -0.5565 -0.3491
12742TIP3    H159717   0.325   2.635   4.488 -0.6333 -0.0536 -0.1155
12742TIP3    H259718   0.358   2.773   4.540  0.7613 -0.1983 -0.5541
12743TIP3   OH259719   3.591   5.564  17.040 -0.1234 -0.2546 -0.5482
12743TIP3    H159720   3.499   5.556  17.062  0.0225 -1.0915 -0.2017
12743TIP3    H259721   3.598   5.528  16.951 -0.6991  3.0447 -2.0962
12744TIP3   OH259722   6.628   0.214   6.384 -0.1356 -0.1588  0.0527
12744TIP3    H159723   6.599   0.127   6.357  0.9382 -0.5968  0.2757
12744TIP3    H259724   6.547   0.262   6.400 -0.7416 -1.1276 -0.0234
12745TIP3   OH259725   4.539   6.294  14.990  0.1026  0.1240  0.1480
12745TIP3    H159726   4.586   6.352  15.050 -2.1008  0.2552  1.8329
12745TIP3    H259727   4.543   6.208  15.032 -0.4709 -0.0291 -0.1122
12746TIP3   OH259728   3.100   2.131   2.177 -0.5730 -0.5926  0.2876
12746TIP3    H159729   3.118   2.077   2.100  3.7024 -1.0041  1.3011
12746TIP3    H259730   3.099   2.069   2.250 -3.6355 -0.0926  0.7808
12747TIP3   OH259731   3.087   6.505   1.546 -0.0979  0.0830 -0.2575
12747TIP3    H159732   3.044   6.588   1.524  1.3298  0.8654 -0.2265
12747TIP3    H259733   3.031   6.438   1.508 -1.3499  1.0485 -0.1894
12748TIP3   OH259734   0.570   4.429  16.434 -0.6981 -0.0406 -0.2816
12748TIP3    H159735   0.495   4.475  16.394 -1.9853 -1.3681  0.5023
12748TIP3    H259736   0.540   4.408  16.523 -0.1488 -2.2766 -0.5719
12749TIP3   OH259737   4.440   5.969   5.862  0.0125 -0.9077 -0.4208
12749TIP3    H159738   4.359   5.934   5.826 -0.3335  0.3895 -0.9648
12749TIP3    H259739   4.509   5.913   5.826 -0.5789 -1.6042 -0.4910
12750TIP3   OH259740   2.126   5.950   3.615  0.3864  0.6910  0.9886
12750TIP3    H159741   2.172   5.878   3.658 -0.7465 -1.7533 -1.6025
12750TIP3    H259742   2.192   5.990   3.558 -0.0281 -1.4343 -1.1125
12751TIP3   OH259743   3.094   2.209   2.534 -0.5537 -0.3695  0.7104
12751TIP3    H159744   3.093   2.121   2.495 -1.3435 -0.8428  1.7484
12751TIP3    H259745   3.173   2.209   2.589 -1.5345 -1.1509  2.2050
12752TIP3   OH259746   2.771   5.177  12.461 -0.1770  0.1548  0.1667
12752TIP3    H159747   2.832   5.105  12.443 -1.1748 -0.4241 -1.0367
12752TIP3    H259748   2.817   5.255  12.432  1.6970  0.3573  3.1755
12753TIP3   OH259749   6.709   0.229  12.476  0.0371 -0.0675  0.7550
12753TIP3    H159750   6.799   0.223  12.507  0.0461 -0.3053  0.6801
12753TIP3    H259751   6.677   0.313  12.511  0.4281  0.2314  0.4087
12754TIP3   OH259752   2.193   6.465   3.667 -0.5723  0.5331  1.0476
12754TIP3    H159753   2.281   6.442   3.637 -0.9718 -0.3440  0.4938
12754TIP3    H259754   2.154   6.382   3.693 -2.1937  0.4315 -1.3553
12755TIP3   OH259755   3.206   2.559   2.741  0.5463 -0.4667 -0.1833
12755TIP3    H159756   3.279   2.501   2.718  1.4519  0.9008 -0.8711
12755TIP3    H259757   3.247   2.643   2.759 -0.8952  0.4078 -0.8271
12756TIP3   OH259758   0.657   3.788   4.274  0.1106 -0.7551 -0.0123
12756TIP3    H159759   0.702   3.729   4.334 -1.2714 -1.5084  0.3526
12756TIP3    H259760   0.633   3.732   4.200  1.1918  0.0066 -0.9681
12757TIP3   OH259761   5.224   3.878   3.394 -0.2701  0.1317 -0.4245
12757TIP3    H159762   5.157   3.917   3.450 -0.6611 -1.0416 -0.0493
12757TIP3    H259763   5.237   3.942   3.323 -2.2944  0.0808 -0.8866
12758TIP3   OH259764   4.847   5.549  15.840  0.2480 -0.4346 -0.2935
12758TIP3    H159765   4.872   5.593  15.758  0.2268  1.1720  0.5133
12758TIP3    H259766   4.873   5.611  15.908 -3.2717  0.1094  0.7566
12759TIP3   OH259767   1.568   2.649  13.312  0.1188 -0.0304 -0.2704
12759TIP3    H159768   1.498   2.709  13.339  0.7378 -0.1328  1.6979
12759TIP3    H259769   1.536   2.563  13.336 -0.2099 -0.4090 -1.9098
12760TIP3   OH259770   4.513   5.687  12.117 -0.4024 -0.3056  0.3161
12760TIP3    H159771   4.543   5.771  12.082  2.3358 -1.4283 -0.3096
12760TIP3    H259772   4.524   5.695  12.212  2.7883 -0.8439  0.1090
12761TIP3   OH259773   4.289   4.685   1.731 -0.0463  0.4752  0.1462
12761TIP3    H159774   4.254   4.602   1.698  0.4112 -0.2931  1.5104
12761TIP3    H259775   4.380   4.686   1.702  0.0037  0.4083  0.3028
12762TIP3   OH259776   1.315   1.770  10.916  0.4746 -0.5485 -0.3645
12762TIP3    H159777   1.379   1.810  10.975 -0.3029 -1.7677  1.4024
12762TIP3    H259778   1.291   1.840  10.855  1.3947  0.7479  0.7059
12763TIP3   OH259779   1.106   3.135  14.179  0.3175 -0.2157 -0.1704
12763TIP3    H159780   1.117   3.045  14.212 -0.2520  0.5420  2.3342
12763TIP3    H259781   1.084   3.186  14.257 -0.3486  1.9464 -1.6847
12764TIP3   OH259782   1.997   5.203   5.077  0.4692  0.4518 -0.3206
12764TIP3    H159783   1.903   5.185   5.079  0.3512  1.0743  0.1847
12764TIP3    H259784   2.035   5.125   5.038 -0.0432 -0.8175  1.5526
12765TIP3   OH259785   1.473   6.012   3.700  0.0833 -0.0120 -0.2122
12765TIP3    H159786   1.536   6.004   3.771  0.5013  0.1764 -0.5580
12765TIP3    H259787   1.520   6.059   3.631  0.2678 -1.7274 -1.2975
12766TIP3   OH259788   3.541   6.445  16.315 -0.1729 -0.5164 -0.2787
12766TIP3    H159789   3.613   6.382  16.319  0.1632 -0.2818 -1.9239
12766TIP3    H259790   3.580   6.528  16.343 -0.2235 -0.6984  0.3581
12767TIP3   OH259791   1.594   3.614   2.873 -0.0997 -0.3119  0.4375
12767TIP3    H159792   1.563   3.526   2.850  0.8751 -1.2872  2.5176
12767TIP3    H259793   1.643   3.644   2.797  1.0699 -2.3699  0.2960
12768TIP3   OH259794   2.703   5.664   4.534 -0.2668  0.2081 -0.2255
12768TIP3    H159795   2.654   5.745   4.518 -0.3347 -0.0042 -1.1180
12768TIP3    H259796   2.782   5.693   4.580  0.5726  1.0058 -2.0862
12769TIP3   OH259797   3.532   5.267  16.565  0.4660  0.6076 -0.0411
12769TIP3    H159798   3.528   5.182  16.608 -1.7394  0.3378 -0.6700
12769TIP3    H259799   3.472   5.322  16.616  0.5016  1.2741 -0.7037
12770TIP3   OH259800   4.586   0.792   6.263  0.0967  0.1829  0.2235
12770TIP3    H159801   4.549   0.704   6.258 -0.1802  0.3894 -2.7044
12770TIP3    H259802   4.670   0.780   6.308 -0.3637 -1.3964  0.7155
12771TIP3   OH259803   3.734   5.564  12.144 -0.3084 -0.3019 -0.0822
12771TIP3    H159804   3.748   5.554  12.238 -0.0917 -1.4577 -0.2305
12771TIP3    H259805   3.821   5.579  12.108 -0.4867  1.0788 -0.0155
12772TIP3   OH259806   2.163   3.320  16.274 -0.7270 -0.1799  0.0188
12772TIP3    H159807   2.080   3.339  16.318 -0.5652  0.3848  0.0910
12772TIP3    H259808   2.145   3.242  16.221 -1.3817  0.1063 -0.1887
12773TIP3   OH259809   0.939   2.437   2.999 -0.7505  0.1234 -0.2046
12773TIP3    H159810   0.982   2.425   3.084 -0.4687 -1.6049 -0.5562
12773TIP3    H259811   0.907   2.527   3.001  1.6320  1.0186  0.6404
12774TIP3   OH259812   6.608   3.686   4.967  0.5114  0.0627  0.2856
12774TIP3    H159813   6.602   3.634   4.887  2.2869  0.0315  0.1504
12774TIP3    H259814   6.517   3.709   4.987  0.0981  2.1854 -3.1480
12775TIP3   OH259815   1.676   1.772   3.089 -0.2210  0.4762 -0.5720
12775TIP3    H159816   1.616   1.813   3.151 -0.3689  0.0799 -0.4480
12775TIP3    H259817   1.735   1.719   3.143 -0.3968  0.0733 -0.7715
12776TIP3   OH259818   3.604   3.757   1.102 -0.8011 -0.0682 -0.2073
12776TIP3    H159819   3.523   3.771   1.153 -2.0515 -0.4302 -1.9988
12776TIP3    H259820   3.617   3.840   1.056  0.5848  0.4163  0.9920
12777TIP3   OH259821   3.719   1.294   3.356 -0.1146  0.0086  0.0534
12777TIP3    H159822   3.706   1.379   3.313  1.4244  0.3045  0.1339
12777TIP3    H259823   3.694   1.230   3.289 -1.6003  0.5055  0.0987
12778TIP3   OH259824   2.929   1.298  14.302 -0.8359 -0.3502 -0.1264
12778TIP3    H159825   2.963   1.387  14.315  0.3659 -0.5740 -1.4574
12778TIP3    H259826   2.856   1.291  14.363 -1.0074  1.5798 -0.0489
12779TIP3   OH259827   2.701   4.320  17.017  0.4075  0.0762 -0.2370
12779TIP3    H159828   2.634   4.323  16.948  1.9285 -0.1296 -1.7886
12779TIP3    H259829   2.684   4.397  17.070 -0.2530  0.7635 -1.4062
12780TIP3   OH259830   4.856   5.763  12.005 -0.0705 -0.2025 -0.2469
12780TIP3    H159831   4.805   5.786  12.083  2.5622  2.2581  0.8866
12780TIP3    H259832   4.849   5.667  12.000 -1.0849 -0.3487  2.4568
12781TIP3   OH259833   4.489   3.704  16.668  0.5120  0.5274  0.0161
12781TIP3    H159834   4.411   3.679  16.717 -0.9778  1.6759 -1.6435
12781TIP3    H259835   4.557   3.713  16.734 -0.4069 -1.7140  1.3888
12782TIP3   OH259836   5.284   4.592  15.599 -0.6542  0.4985  0.3340
12782TIP3    H159837   5.363   4.539  15.587 -0.3219  0.9766  0.4059
12782TIP3    H259838   5.223   4.557  15.535 -0.1852  0.5081 -0.1276
12783TIP3   OH259839   3.513   1.067   4.085  0.4869 -0.4441 -0.2386
12783TIP3    H159840   3.560   1.081   4.003  0.6416 -0.0969 -0.0982
12783TIP3    H259841   3.533   1.146   4.137 -0.5335 -0.1286 -0.3078
12784TIP3   OH259842   4.993   0.984   2.508 -0.4777 -0.1104  0.4674
12784TIP3    H159843   5.009   0.923   2.579 -1.6354 -0.6157  0.3099
12784TIP3    H259844   5.054   0.957   2.439  0.6630  0.3938  1.2437
12785TIP3   OH259845   5.832   3.328   5.097 -0.5717 -0.6930  0.3885
12785TIP3    H159846   5.843   3.293   5.185  0.5710 -0.3093  0.4172
12785TIP3    H259847   5.891   3.277   5.042 -0.0241  0.1585  0.1566
12786TIP3   OH259848   0.695   4.857  13.860 -0.1673  0.0566 -0.0402
12786TIP3    H159849   0.659   4.818  13.939  1.7463  0.5583  1.1501
12786TIP3    H259850   0.661   4.946  13.858  0.3525  0.2770  0.6432
12787TIP3   OH259851   1.500   3.355   6.024 -0.5035  0.4655  0.3333
12787TIP3    H159852   1.515   3.332   6.116 -0.4881 -0.3143  0.1414
12787TIP3    H259853   1.565   3.304   5.976 -1.7248 -0.6115 -0.2622
12788TIP3   OH259854   0.561   6.803  15.091 -0.1342  0.2028  0.0923
12788TIP3    H159855   0.523   6.850  15.016 -0.0686  0.5614  0.2824
12788TIP3    H259856   0.633   6.752  15.054 -0.0042  0.5001 -0.0640
12789TIP3   OH259857   0.768   3.715  15.705 -0.8385  0.1283 -0.1052
12789TIP3    H159858   0.843   3.700  15.762 -1.8575  0.0337  1.2562
12789TIP3    H259859   0.779   3.650  15.635  0.7279  0.6213 -0.3581
12790TIP3   OH259860   4.329   2.586  12.438 -0.0946 -0.2165 -0.0779
12790TIP3    H159861   4.286   2.592  12.523  0.1991 -1.1949  0.1561
12790TIP3    H259862   4.303   2.500  12.405 -0.9033  0.4917 -1.3715
12791TIP3   OH259863   5.537   2.074  12.016 -0.3655 -0.4251 -0.6138
12791TIP3    H159864   5.583   1.993  12.038 -0.6524 -0.0536  1.5323
12791TIP3    H259865   5.457   2.045  11.972 -0.3359 -1.2923 -0.1144
12792TIP3   OH259866   0.496   6.430  13.830 -0.4615  0.4905 -0.2391
12792TIP3    H159867   0.525   6.347  13.867  0.3884  1.2403  0.8125
12792TIP3    H259868   0.506   6.419  13.735 -0.5295 -0.6567 -0.1194
12793TIP3   OH259869   5.365   1.293   4.103  0.1115 -0.0314 -0.6507
12793TIP3    H159870   5.372   1.241   4.183  0.3317  1.5294  0.3996
12793TIP3    H259871   5.271   1.293   4.084 -0.0575  0.2738  0.1178
12794TIP3   OH259872   0.964   0.573  15.529 -0.1752 -0.1744  0.4340
12794TIP3    H159873   0.911   0.652  15.528  1.6269  1.1080  0.8257
12794TIP3    H259874   1.003   0.568  15.442  0.4649 -0.0783  0.7060
12795TIP3   OH259875   5.551   1.601   2.550  0.0336  0.2759 -0.1917
12795TIP3    H159876   5.630   1.550   2.529  0.3800  1.9164 -3.6175
12795TIP3    H259877   5.582   1.669   2.609  0.7820 -0.1999 -0.0202
12796TIP3   OH259878   4.925   3.811  11.693 -0.1079  0.3258  0.1818
12796TIP3    H159879   4.958   3.890  11.650  0.8664  0.9932  2.0263
12796TIP3    H259880   4.941   3.827  11.786  0.8648 -2.3921  0.5603
12797TIP3   OH259881   5.174   5.880  15.167 -0.0136 -0.3183  0.2607
12797TIP3    H159882   5.136   5.968  15.172 -0.6050 -0.4056 -1.8249
12797TIP3    H259883   5.164   5.855  15.075  0.2771 -2.5188  0.7869
12798TIP3   OH259884   6.661   3.817   4.047  0.3545 -0.5551 -0.6905
12798TIP3    H159885   6.566   3.819   4.062  0.0249 -1.9741 -2.2906
12798TIP3    H259886   6.679   3.728   4.017  2.3014 -0.4701  0.0678
12799TIP3   OH259887   2.819   5.723  15.481  0.1392  0.2066 -0.1644
12799TIP3    H159888   2.894   5.743  15.538 -0.9401  1.6526  0.8246
12799TIP3    H259889   2.811   5.628  15.484  1.8896  0.0272 -0.2441
12800TIP3   OH259890   4.934   1.655   6.135  0.4701 -0.0215 -0.2558
12800TIP3    H159891   4.988   1.579   6.115  0.8575  0.7012 -2.2977
12800TIP3    H259892   4.993   1.715   6.182  0.6155 -0.3571 -0.0110
12801TIP3   OH259893   0.490   3.719   1.995  0.0305  0.8542 -0.6848
12801TIP3    H159894   0.507   3.786   1.929  1.7011 -0.3594 -1.5847
12801TIP3    H259895   0.537   3.749   2.072 -2.8920  2.8750  0.4814
12802TIP3   OH259896   3.911   2.151   5.877 -0.1546 -0.5273  1.0759
12802TIP3    H159897   3.902   2.089   5.950  1.2660 -2.4215 -0.2570
12802TIP3    H259898   3.948   2.230   5.917  2.0496 -2.0450  2.2486
12803TIP3   OH259899   0.640   2.459  13.866  0.3891 -0.5087 -0.6301
12803TIP3    H159900   0.663   2.405  13.790 -0.2053 -1.9156  0.1498
12803TIP3    H259901   0.551   2.490  13.847  0.6786  0.1131 -1.0150
12804TIP3   OH259902   2.617   4.706  15.283 -0.6764  0.0461 -0.9088
12804TIP3    H159903   2.564   4.645  15.231  0.2061 -0.1719 -1.5634
12804TIP3    H259904   2.705   4.668  15.283 -0.2971  0.8945 -0.6351
12805TIP3   OH259905   2.231   4.711  14.430 -0.2200 -0.5551 -0.3381
12805TIP3    H159906   2.301   4.677  14.373 -0.1620 -1.2717  0.1486
12805TIP3    H259907   2.172   4.757  14.370  1.0730  0.7651 -0.6631
12806TIP3   OH259908   0.864   5.739   0.899 -0.1005  0.4335 -0.0761
12806TIP3    H159909   0.862   5.687   0.818  2.4792 -1.3962  0.9195
12806TIP3    H259910   0.957   5.750   0.918 -0.6402  1.5552  2.2278
12807TIP3   OH259911   1.465   1.477  16.795  0.0577 -0.2635 -0.0325
12807TIP3    H159912   1.390   1.514  16.747 -0.4333 -1.1681  0.0309
12807TIP3    H259913   1.430   1.399  16.837  0.2826  0.8784  2.4328
12808TIP3   OH259914   1.770   1.830  14.761 -0.2146 -0.4321  0.2071
12808TIP3    H159915   1.699   1.877  14.806 -1.4556  2.0574 -3.7969
12808TIP3    H259916   1.725   1.771  14.701  0.8542  1.3280 -2.5551
12809TIP3   OH259917   3.294   2.604  14.203 -0.0498 -0.0541 -0.2481
12809TIP3    H159918   3.297   2.594  14.298  1.8809 -1.0479 -0.3588
12809TIP3    H259919   3.229   2.539  14.174 -2.6519  2.0349  0.4990
12810TIP3   OH259920   3.722   0.321  15.327  0.1030 -0.5344 -0.0276
12810TIP3    H159921   3.650   0.321  15.264  0.4701  1.1474 -0.5075
12810TIP3    H259922   3.799   0.340  15.275  0.6781 -0.8365  0.6972
12811TIP3   OH259923   2.161   4.148   5.944 -0.0408 -0.2617  0.1163
12811TIP3    H159924   2.229   4.199   5.901  0.2503 -0.6095  0.1572
12811TIP3    H259925   2.197   4.128   6.031 -0.6700  0.5358  0.5759
12812TIP3   OH259926   5.054   0.021   6.863  0.1459 -0.5462  0.2670
12812TIP3    H159927   5.076  -0.036   6.936 -0.5787  0.7568  1.5701
12812TIP3    H259928   4.989  -0.028   6.812  1.2479 -1.7846  0.0280
12813TIP3   OH259929   3.148   4.233  16.055 -0.4254 -0.0610  0.3619
12813TIP3    H159930   3.105   4.243  16.140 -1.1254 -1.3464  0.1907
12813TIP3    H259931   3.088   4.178  16.005 -1.7124  3.3620 -2.2086
12814TIP3   OH259932   3.052   6.191   3.878  0.0040  0.1983 -0.1399
12814TIP3    H159933   3.050   6.247   3.955  1.2228  0.6964 -0.4491
12814TIP3    H259934   2.963   6.198   3.842  0.0651  1.8246 -0.0823
12815TIP3   OH259935   2.810   4.202  16.299 -0.3082  1.2275 -0.6372
12815TIP3    H159936   2.826   4.110  16.322  1.7410  1.4147 -1.0969
12815TIP3    H259937   2.724   4.221  16.335 -0.5495 -0.7131 -0.0492
12816TIP3   OH259938   0.392   6.504   2.770 -0.5108 -0.0212  1.0822
12816TIP3    H159939   0.446   6.521   2.847 -0.4614  2.3042  0.5976
12816TIP3    H259940   0.448   6.527   2.696 -1.4650  0.4634  0.4907
12817TIP3   OH259941   4.986   1.627   2.364 -0.0228  0.0290  0.0222
12817TIP3    H159942   5.016   1.557   2.307  1.2859  0.9139 -0.4392
12817TIP3    H259943   5.041   1.621   2.442  0.9074  1.2147 -0.5076
12818TIP3   OH259944   2.005   2.250  17.152 -0.1600 -0.2881 -0.5235
12818TIP3    H159945   1.914   2.274  17.169 -0.2327 -1.0373  0.1624
12818TIP3    H259946   2.000   2.171  17.099 -0.0344 -3.3623  3.5423
12819TIP3   OH259947   5.467   1.726  13.477 -0.1205 -0.4073 -0.1016
12819TIP3    H159948   5.391   1.675  13.504  0.0997 -0.5933  0.1741
12819TIP3    H259949   5.434   1.784  13.408 -0.2283 -1.4214 -0.9315
12820TIP3   OH259950   5.862   0.955   1.438 -0.4542  0.0921 -0.0626
12820TIP3    H159951   5.875   1.012   1.514  0.8699  1.9785 -1.6082
12820TIP3    H259952   5.803   1.003   1.381  0.9648  0.1482 -1.5674
12821TIP3   OH259953   1.109   2.127   0.132 -0.1523 -0.4742  0.3121
12821TIP3    H159954   1.095   2.219   0.154  0.0371 -0.4917  0.5110
12821TIP3    H259955   1.021   2.090   0.129 -0.2725 -0.1446 -0.4152
12822TIP3   OH259956   2.087   1.753  14.425 -0.8845 -0.1865 -0.4051
12822TIP3    H159957   2.174   1.770  14.389 -0.9924 -0.7792 -0.9646
12822TIP3    H259958   2.102   1.747  14.520 -0.3544 -0.0361 -0.4755
12823TIP3   OH259959   6.582   2.122   1.730  0.2167 -0.5107  0.2150
12823TIP3    H159960   6.579   2.027   1.718 -0.2322 -0.5382  0.5199
12823TIP3    H259961   6.528   2.157   1.659 -0.8063 -0.5698  0.9302
12824TIP3   OH259962   3.654   2.845   5.541 -0.5669  0.0374  0.0929
12824TIP3    H159963   3.636   2.938   5.533 -1.3834 -0.0440  0.8383
12824TIP3    H259964   3.579   2.803   5.499  0.5419 -0.3056 -1.6832
12825TIP3   OH259965   0.315   4.308   1.870 -0.4322  0.1768 -0.4634
12825TIP3    H159966   0.323   4.253   1.948  0.1523 -0.4005 -0.9130
12825TIP3    H259967   0.232   4.282   1.830 -0.9257  0.7563  0.1705
12826TIP3   OH259968   4.057   6.115   5.565  0.2084 -0.3671 -0.0642
12826TIP3    H159969   4.019   6.203   5.570 -0.2485 -0.6445  2.4637
12826TIP3    H259970   3.993   6.059   5.609  1.8973 -1.4405  1.1328
12827TIP3   OH259971   6.207   3.752  15.587 -0.0102  0.1640 -0.0263
12827TIP3    H159972   6.134   3.776  15.644 -0.6230  0.4898 -0.9183
12827TIP3    H259973   6.183   3.787  15.501  0.9305 -0.2322 -0.4704
12828TIP3   OH259974   0.172   2.861  16.243  0.3724 -0.7722 -0.0456
12828TIP3    H159975   0.199   2.825  16.327 -0.3065 -0.7716  0.1837
12828TIP3    H259976   0.146   2.951  16.262  1.7098 -0.2656 -0.5497
12829TIP3   OH259977   0.249   6.132   0.104  0.2278  0.0529 -0.2771
12829TIP3    H159978   0.203   6.048   0.114 -0.3506  0.3704 -0.1917
12829TIP3    H259979   0.216   6.167   0.022  1.6937 -0.5389 -1.1452
12830TIP3   OH259980   2.327   5.730  12.848 -0.2248 -0.1190  0.3631
12830TIP3    H159981   2.369   5.815  12.835 -1.9070  0.6139 -0.5516
12830TIP3    H259982   2.262   5.745  12.916 -0.9418 -0.5227 -0.2295
12831TIP3   OH259983   4.457   3.863  16.431 -0.2869  0.1488  0.5602
12831TIP3    H159984   4.426   3.822  16.511 -1.4685  2.1588  1.1871
12831TIP3    H259985   4.541   3.903  16.455 -0.0603 -0.2719  0.4678
12832TIP3   OH259986   0.909   2.820  13.391 -0.5686  0.1559  0.2230
12832TIP3    H159987   0.828   2.834  13.440  0.0424 -0.8784  1.5845
12832TIP3    H259988   0.975   2.803  13.458  0.2214 -1.7424 -0.9479
12833TIP3   OH259989   0.602   3.376  15.894  0.4372  0.0811  0.2511
12833TIP3    H159990   0.659   3.311  15.935 -0.1501 -1.1165 -0.7751
12833TIP3    H259991   0.623   3.371  15.801  1.6349  2.6390  0.2882
12834TIP3   OH259992   5.409   2.596  13.613  0.4862 -0.3073  0.0925
12834TIP3    H159993   5.454   2.580  13.696 -1.4108  0.1555  1.2845
12834TIP3    H259994   5.478   2.597  13.547  2.3136  1.2544  1.9155
12835TIP3   OH259995   5.531   0.101  16.870  0.1223  0.1802 -0.2478
12835TIP3    H159996   5.557   0.009  16.881 -1.6205 -0.3177  0.0924
12835TIP3    H259997   5.540   0.138  16.958  1.4265  0.5385 -0.5078
12836TIP3   OH259998   6.106   3.466   3.958 -0.0310  0.1602 -0.4439
12836TIP3    H159999   6.086   3.375   3.983 -2.4173  0.5379 -0.7238
12836TIP3    H260000   6.149   3.458   3.873  1.5242 -0.7762  0.3952
12837TIP3   OH260001   1.798   2.936   1.480  0.2337 -0.1372  0.1414
12837TIP3    H160002   1.804   2.963   1.388  1.5493  0.4452  0.3778
12837TIP3    H260003   1.706   2.945   1.502  0.0718  0.7018 -0.8324
12838TIP3   OH260004   1.693   2.454  14.261 -0.5281 -0.0419  0.3219
12838TIP3    H160005   1.634   2.529  14.249 -1.1489 -0.7625 -1.4390
12838TIP3    H260006   1.635   2.379  14.270  0.0594 -0.2405  3.3205
12839TIP3   OH260007   6.013   4.488   6.105 -0.4106 -0.8036 -0.2757
12839TIP3    H160008   5.922   4.517   6.105 -0.0201  0.8448 -3.0501
12839TIP3    H260009   6.009   4.397   6.073 -1.0858 -0.7464 -0.3732
12840TIP3   OH260010   6.713   3.598   5.589 -0.3568  0.6960 -0.1192
12840TIP3    H160011   6.788   3.575   5.643 -0.2203  1.1881 -0.0970
12840TIP3    H260012   6.640   3.608   5.651 -0.9768 -1.8798 -0.3219
12841TIP3   OH260013   2.674   1.238  13.305 -0.4094 -0.5705  0.1880
12841TIP3    H160014   2.650   1.228  13.213 -1.0391  0.4916  0.2253
12841TIP3    H260015   2.762   1.275  13.303 -1.3432  1.7479 -0.0425
12842TIP3   OH260016   2.016   5.197   3.568  0.5775  0.0101  0.3054
12842TIP3    H160017   1.933   5.154   3.544  0.3113  0.8650 -0.3633
12842TIP3    H260018   2.063   5.206   3.485  0.3821  1.5063  0.3358
12843TIP3   OH260019   4.058   4.514   3.456 -0.7553  0.1195  0.1347
12843TIP3    H160020   3.988   4.463   3.416 -0.5519  1.2320 -1.7383
12843TIP3    H260021   4.045   4.603   3.423  2.4123  0.0833 -1.5631
12844TIP3   OH260022   6.395   5.147   3.136  0.7689 -0.1115  0.3049
12844TIP3    H160023   6.386   5.226   3.083  0.7398 -1.3771 -1.7024
12844TIP3    H260024   6.334   5.158   3.208 -0.7790  0.8166 -1.0864
12845TIP3   OH260025   0.877   6.284   1.056 -0.5814 -0.4357 -0.4039
12845TIP3    H160026   0.950   6.293   1.117  0.1254  1.9205 -1.4752
12845TIP3    H260027   0.917   6.289   0.970 -1.9920  1.8900 -1.0316
12846TIP3   OH260028   0.770   4.599   4.362  0.1474 -0.0624 -0.2778
12846TIP3    H160029   0.788   4.655   4.438 -0.5292 -0.6772  0.3520
12846TIP3    H260030   0.679   4.618   4.338  0.1096 -0.4306 -0.4433
12847TIP3   OH260031   0.142   5.273  11.629  0.5095  0.3380  0.2317
12847TIP3    H160032   0.226   5.252  11.588 -0.2156  0.6144 -1.4733
12847TIP3    H260033   0.118   5.193  11.676  0.7145 -0.5171 -1.0597
12848TIP3   OH260034   5.877   3.464   3.520  0.3428 -0.4959  0.0679
12848TIP3    H160035   5.840   3.500   3.439 -0.4988 -1.3424  0.0514
12848TIP3    H260036   5.955   3.417   3.492 -0.9468 -2.3777 -0.5754
12849TIP3   OH260037   2.689   6.154  14.186 -0.0156  0.2457  0.2519
12849TIP3    H160038   2.764   6.213  14.196 -0.1602  0.7293 -1.2163
12849TIP3    H260039   2.718   6.070  14.221  1.4312  0.2656 -0.8386
12850TIP3   OH260040   1.432   3.942  13.929 -0.2352  0.4492  0.5155
12850TIP3    H160041   1.378   3.875  13.888  0.6200 -0.7601  1.2830
12850TIP3    H260042   1.522   3.919  13.903  0.0104  1.9603 -0.1049
12851TIP3   OH260043   0.254   0.447  13.773  0.2307 -0.6216 -0.0834
12851TIP3    H160044   0.247   0.510  13.845 -1.4692 -0.2620 -0.5018
12851TIP3    H260045   0.218   0.366  13.808  0.8424 -0.8867 -0.0621
12852TIP3   OH260046   5.189   4.030   5.357  0.1042  0.4119  0.4197
12852TIP3    H160047   5.187   4.107   5.301 -3.0632 -0.8846 -1.5182
12852TIP3    H260048   5.120   4.045   5.422 -2.5044 -1.7396 -1.6370
12853TIP3   OH260049   6.689   3.962   3.339 -0.2038  0.2260  0.5503
12853TIP3    H160050   6.606   3.915   3.335 -0.7308  0.9365  2.1730
12853TIP3    H260051   6.728   3.951   3.252 -2.4317  0.6736 -0.5659
12854TIP3   OH260052   5.531   2.807  14.680  0.0036 -0.0396  0.0259
12854TIP3    H160053   5.577   2.878  14.636 -0.2592 -0.5107 -1.0383
12854TIP3    H260054   5.447   2.801  14.635  0.1459 -1.2265 -0.1181
12855TIP3   OH260055   0.467   1.920   4.015  0.6231 -0.3737 -0.3056
12855TIP3    H160056   0.549   1.873   3.998  1.0397  1.3175 -3.7655
12855TIP3    H260057   0.492   2.012   4.021 -0.8358  0.0164  0.3115
12856TIP3   OH260058   1.312   6.514  11.605 -0.1039  0.2481  0.3034
12856TIP3    H160059   1.364   6.543  11.531 -0.4669 -0.5380 -0.2677
12856TIP3    H260060   1.241   6.578  11.612  0.2354  0.6235  0.3125
12857TIP3   OH260061   2.967   5.172  15.629 -0.0184 -0.1313  0.2752
12857TIP3    H160062   2.981   5.168  15.724  0.0459  0.6872  0.3054
12857TIP3    H260063   3.047   5.210  15.594 -0.3317  0.2572 -0.0295
12858TIP3   OH260064   1.158   3.536  12.654 -0.6914 -0.2676 -0.4465
12858TIP3    H160065   1.171   3.619  12.699 -0.6537 -0.6074  0.1808
12858TIP3    H260066   1.171   3.470  12.722  1.4306 -0.8783 -1.3704
12859TIP3   OH260067   5.892   2.536   0.543 -0.5347 -0.6765  0.3112
12859TIP3    H160068   5.972   2.579   0.574  0.5878 -0.7586 -2.1763
12859TIP3    H260069   5.842   2.606   0.501 -1.0567 -0.9076  0.5426
12860TIP3   OH260070   3.740   5.612  14.295 -0.1196  0.3353 -0.0699
12860TIP3    H160071   3.790   5.602  14.376  1.0987 -0.5986 -0.9008
12860TIP3    H260072   3.799   5.580  14.226 -0.4517  2.6640 -1.5670
12861TIP3   OH260073   1.929   4.213  15.054  0.5083 -0.2581  0.1172
12861TIP3    H160074   1.976   4.248  14.979 -0.2390 -1.1736 -0.8158
12861TIP3    H260075   1.853   4.270  15.063  0.8849  0.1804  0.5265
12862TIP3   OH260076   6.317   1.035  15.756 -1.0601 -0.2846  0.8558
12862TIP3    H160077   6.230   1.000  15.776 -2.0777  0.4922 -1.8631
12862TIP3    H260078   6.350   0.978  15.686 -0.5204  1.0323  0.0131
12863TIP3   OH260079   3.800   4.439   3.284 -0.4295  0.2377 -0.1629
12863TIP3    H160080   3.778   4.532   3.281  0.6438  0.4876 -2.5656
12863TIP3    H260081   3.744   4.399   3.217 -1.2174 -0.9802  1.1560
12864TIP3   OH260082   3.799   0.631   6.436  0.7258  0.5932  0.0129
12864TIP3    H160083   3.775   0.684   6.360 -4.1495  0.9391  1.4625
12864TIP3    H260084   3.806   0.542   6.402 -2.4031  0.5748 -0.8673
12865TIP3   OH260085   2.629   6.767   2.148  0.1083 -0.0281  0.0934
12865TIP3    H160086   2.646   6.679   2.182  1.1974 -0.1138 -0.6064
12865TIP3    H260087   2.714   6.810   2.153 -0.7491  1.5876  2.0433
12866TIP3   OH260088   1.207   2.227  16.065  0.2210 -1.1070 -0.1209
12866TIP3    H160089   1.226   2.215  15.972  0.7754  2.7044 -0.6746
12866TIP3    H260090   1.265   2.298  16.092 -1.5894 -0.4975  2.5458
12867TIP3   OH260091   4.464   5.720  12.971 -0.0446  0.3505  0.5893
12867TIP3    H160092   4.370   5.742  12.970 -0.0419  0.5952  2.4346
12867TIP3    H260093   4.472   5.647  12.910 -2.1042 -2.0883  2.9889
12868TIP3   OH260094   5.033   2.436   5.128  0.7501 -0.2256 -0.6422
12868TIP3    H160095   5.117   2.427   5.082  0.6819 -0.6754 -0.6818
12868TIP3    H260096   5.051   2.499   5.197  1.7336 -1.9334  0.7470
12869TIP3   OH260097   6.426   1.812  16.627  0.6076 -0.0998  0.8081
12869TIP3    H160098   6.337   1.836  16.602  0.0537 -1.1409  1.6576
12869TIP3    H260099   6.470   1.793  16.545 -0.6879 -1.8840  0.4511
12870TIP3   OH260100   1.850   6.430   3.330  0.5858  0.0884 -0.6016
12870TIP3    H160101   1.896   6.428   3.246  2.4991  0.7290  0.3652
12870TIP3    H260102   1.903   6.488   3.384 -1.6670  1.2903  0.4759
12871TIP3   OH260103   3.226   0.766  14.357 -0.9608 -0.1069  0.1095
12871TIP3    H160104   3.197   0.771  14.448 -1.8795 -1.5815 -0.0596
12871TIP3    H260105   3.311   0.722  14.361 -0.6097  0.5686  0.2966
12872TIP3   OH260106   3.363   5.310  15.996  1.1513  0.2501  0.0431
12872TIP3    H160107   3.434   5.247  15.985  2.7274  1.6988  1.4497
12872TIP3    H260108   3.288   5.257  16.024  1.8642 -1.2040 -0.6923
12873TIP3   OH260109   2.384   4.210   0.594 -0.0016  0.4650 -0.1035
12873TIP3    H160110   2.393   4.136   0.654 -0.4983 -0.9740 -1.7040
12873TIP3    H260111   2.443   4.189   0.522 -0.7184  1.2611 -0.9545
12874TIP3   OH260112   3.011   3.137  13.170 -0.1798  0.0147  0.4491
12874TIP3    H160113   2.961   3.122  13.251  0.6843 -0.4146  0.9210
12874TIP3    H260114   2.982   3.067  13.111  0.1095 -0.4534  0.8493
12875TIP3   OH260115   0.254   5.955  16.135 -0.6278 -0.4725 -0.0402
12875TIP3    H160116   0.328   5.939  16.077 -1.9089  1.7187 -2.4810
12875TIP3    H260117   0.266   6.045  16.166 -1.9472 -0.2888 -0.0104
12876TIP3   OH260118   6.612   0.245   5.233  0.2799  0.1927 -0.0518
12876TIP3    H160119   6.650   0.321   5.190 -3.3476  1.0835 -2.0794
12876TIP3    H260120   6.644   0.170   5.184  1.3402  0.6477 -0.0791
12877TIP3   OH260121   5.764   6.760  15.380 -0.5410 -0.2180  0.0165
12877TIP3    H160122   5.759   6.719  15.293 -0.3566 -1.3340  0.5111
12877TIP3    H260123   5.858   6.774  15.394 -0.6394  0.9074 -0.3765
12878TIP3   OH260124   0.498   1.602   5.366  0.1460  0.2231 -0.1942
12878TIP3    H160125   0.431   1.661   5.332  0.9902  1.6519  0.5176
12878TIP3    H260126   0.563   1.660   5.407  0.7188 -1.2323  1.0645
12879TIP3   OH260127   3.111   2.349  16.214 -0.1612  0.0893 -0.2350
12879TIP3    H160128   3.177   2.346  16.145  0.6771 -0.6355  0.5676
12879TIP3    H260129   3.148   2.406  16.281 -0.2560 -0.4650  0.3022
12880TIP3   OH260130   1.014   6.717   1.505 -0.0777 -0.0079  0.1122
12880TIP3    H160131   0.928   6.695   1.469 -0.8710  0.9820  1.3170
12880TIP3    H260132   1.034   6.646   1.566 -0.5368  0.3075  0.6299
12881TIP3   OH260133   3.888   3.766   2.817  0.5062 -0.1556 -0.3218
12881TIP3    H160134   3.834   3.770   2.896  0.1431  0.6019 -0.6036
12881TIP3    H260135   3.836   3.714   2.756  1.1488 -1.4618  0.1966
12882TIP3   OH260136   0.839   6.624   1.234  0.7265  0.0433  0.0584
12882TIP3    H160137   0.773   6.628   1.165 -0.2252 -0.1954  0.9297
12882TIP3    H260138   0.922   6.617   1.188  0.1432  0.3201 -1.0622
12883TIP3   OH260139   1.828   2.214  15.924 -0.5005 -0.1693 -0.4244
12883TIP3    H160140   1.807   2.121  15.936 -0.0713 -0.2384 -0.1924
12883TIP3    H260141   1.813   2.230  15.831  2.0189 -1.1446 -1.0713
12884TIP3   OH260142   5.393   1.905  15.070  0.3676 -0.4681 -0.2402
12884TIP3    H160143   5.406   1.958  15.149  0.8153 -0.9802  0.0382
12884TIP3    H260144   5.430   1.819  15.092  1.7958 -0.2133 -1.4811
12885TIP3   OH260145   4.028   2.835   4.471  0.2422 -0.6590  0.3834
12885TIP3    H160146   4.056   2.835   4.563  0.1015  0.4686  0.4417
12885TIP3    H260147   3.973   2.757   4.463 -0.5027 -0.2805  1.5139
12886TIP3   OH260148   4.784   6.092  11.630  0.4911 -0.2162  0.8603
12886TIP3    H160149   4.860   6.108  11.686  1.1011 -0.0584 -0.0085
12886TIP3    H260150   4.806   6.133  11.547  0.1793 -1.6615  0.0385
12887TIP3   OH260151   6.279   6.554   5.125 -0.1936  0.1889 -0.3278
12887TIP3    H160152   6.248   6.596   5.045  1.0179  2.1217  0.1687
12887TIP3    H260153   6.278   6.623   5.190  1.6066 -0.6104  0.6036
12888TIP3   OH260154   2.316   2.217  14.986 -0.3341 -0.2090 -0.2873
12888TIP3    H160155   2.330   2.229  14.892 -0.7711  0.1325 -0.3131
12888TIP3    H260156   2.241   2.273  15.006 -0.9291 -1.1059  0.0601
12889TIP3   OH260157   3.529   1.421   0.147  0.0186  0.3607 -0.6059
12889TIP3    H160158   3.572   1.416   0.232  2.0993 -0.0668 -1.6216
12889TIP3    H260159   3.495   1.333   0.132  0.7486  0.1086 -0.7686
12890TIP3   OH260160   2.414   6.775   5.571  0.0045 -0.1076  0.3699
12890TIP3    H160161   2.397   6.778   5.477  0.9823  0.6006  0.2056
12890TIP3    H260162   2.494   6.826   5.583 -0.1992 -0.0526  1.6095
12891TIP3   OH260163   4.942   3.894   1.104  0.0562 -0.6211  0.0770
12891TIP3    H160164   5.018   3.939   1.068  0.3780 -1.7735 -0.7739
12891TIP3    H260165   4.867   3.942   1.070  0.3840 -0.0492  0.1422
12892TIP3   OH260166   1.337   5.102   4.678 -0.4934  0.5970  0.4628
12892TIP3    H160167   1.311   5.167   4.743 -1.5156  0.2515  0.4089
12892TIP3    H260168   1.256   5.075   4.637 -0.1893 -1.2593  0.9900
12893TIP3   OH260169   6.098   5.328   6.264 -0.0508 -0.2054 -0.0240
12893TIP3    H160170   6.159   5.387   6.220  0.1327  0.7471  1.4285
12893TIP3    H260171   6.020   5.380   6.280 -0.1528 -0.5519  0.6682
12894TIP3   OH260172   3.009   3.306   2.362  0.2534  0.2189  0.1925
12894TIP3    H160173   2.986   3.235   2.301  0.8561 -1.2049  1.5523
12894TIP3    H260174   2.937   3.368   2.355 -1.0678 -1.2732  0.0557
12895TIP3   OH260175   2.690   2.668   3.043 -0.0951  0.2944 -0.0970
12895TIP3    H160176   2.708   2.749   3.091 -1.4939  1.2989 -1.1659
12895TIP3    H260177   2.731   2.682   2.957 -0.6545  0.0285 -0.4119
12896TIP3   OH260178   2.526   2.309  16.747 -0.5274 -0.4314 -0.4316
12896TIP3    H160179   2.439   2.320  16.708 -1.3437 -1.8014  0.8954
12896TIP3    H260180   2.517   2.233  16.805  1.8340 -1.3113 -1.0670
12897TIP3   OH260181   4.236   1.605  15.818 -0.3036  0.7141 -0.6365
12897TIP3    H160182   4.329   1.586  15.822  0.0825  2.5347  0.7099
12897TIP3    H260183   4.232   1.699  15.799 -1.8290  0.7431 -0.2924
12898TIP3   OH260184   0.746   0.138   1.219  0.0092 -0.5866  0.1644
12898TIP3    H160185   0.809   0.186   1.274 -1.3721 -1.0963  2.3194
12898TIP3    H260186   0.777   0.047   1.222  0.8852 -0.3729 -1.3800
12899TIP3   OH260187   0.408   3.414  12.682 -0.0036  0.7530 -0.6378
12899TIP3    H160188   0.391   3.415  12.588  0.6832 -1.5966 -0.8677
12899TIP3    H260189   0.500   3.436  12.690 -0.0865  1.0492 -0.5172
12900TIP3   OH260190   5.845   2.531  11.752 -0.2462  0.2368  0.1161
12900TIP3    H160191   5.883   2.538  11.664 -2.1165  1.9809 -0.6339
12900TIP3    H260192   5.812   2.442  11.758  3.2265 -1.1680  0.5781
12901TIP3   OH260193   0.526   1.511   5.786  0.0577 -0.6635  0.3068
12901TIP3    H160194   0.479   1.468   5.715 -0.6636  0.9151 -0.2208
12901TIP3    H260195   0.460   1.527   5.853  0.4344 -0.8648  0.7318
12902TIP3   OH260196   1.114   2.117  11.746  0.7074 -0.4556 -0.0502
12902TIP3    H160197   1.077   2.048  11.802 -0.7677 -0.0739 -0.5031
12902TIP3    H260198   1.063   2.195  11.767 -0.2903 -0.4331 -2.2790
12903TIP3   OH260199   4.276   0.512   1.653  0.3845  0.0918 -0.0047
12903TIP3    H160200   4.303   0.551   1.736  0.9723  0.0522 -0.1736
12903TIP3    H260201   4.210   0.447   1.678  2.5094 -1.9166  0.7587
12904TIP3   OH260202   4.593   3.159  12.004 -0.0139  0.1286  0.2833
12904TIP3    H160203   4.549   3.164  12.089  2.5506 -1.1914  1.8324
12904TIP3    H260204   4.597   3.066  11.985 -0.0337  0.3800 -1.0174
12905TIP3   OH260205   2.573   1.020   1.492  0.1133  0.2067  0.4572
12905TIP3    H160206   2.587   0.956   1.422 -0.3925 -0.9481  1.3610
12905TIP3    H260207   2.502   1.076   1.460 -0.2909 -0.4737  0.1366
12906TIP3   OH260208   0.511   5.484   4.079 -0.0436 -0.1224 -0.9438
12906TIP3    H160209   0.573   5.501   4.150 -0.1151 -0.2799 -0.8424
12906TIP3    H260210   0.456   5.413   4.112 -1.4652  1.2040 -0.2760
12907TIP3   OH260211   5.447   5.813   4.350 -0.5321 -0.0707  0.2919
12907TIP3    H160212   5.459   5.772   4.265  0.3456  1.2022 -0.2334
12907TIP3    H260213   5.531   5.802   4.394 -0.5459  0.4290  0.4549
12908TIP3   OH260214   1.226   0.342  15.661 -0.0021 -0.3235  0.3595
12908TIP3    H160215   1.297   0.404  15.644  2.3671 -2.7040  0.9232
12908TIP3    H260216   1.253   0.262  15.615 -2.7064 -1.1523  0.0304
12909TIP3   OH260217   2.181   3.181   0.341  0.1121 -0.2781  0.2332
12909TIP3    H160218   2.102   3.128   0.350  0.5817 -1.1864 -0.6875
12909TIP3    H260219   2.171   3.226   0.257  0.3556 -0.0120  0.3435
12910TIP3   OH260220   5.519   0.537  14.246  0.3998 -0.1105  0.0419
12910TIP3    H160221   5.558   0.452  14.266  1.8503  0.1146 -1.5748
12910TIP3    H260222   5.498   0.574  14.332 -0.3141 -2.0974  0.7690
12911TIP3   OH260223   2.383   0.763   2.613  0.1110  0.3510  0.4500
12911TIP3    H160224   2.452   0.766   2.679  0.8394  0.5778 -0.3121
12911TIP3    H260225   2.350   0.852   2.609  0.0215  0.3230  0.5470
12912TIP3   OH260226   3.641   1.905   4.744 -0.3543  0.1268 -0.6025
12912TIP3    H160227   3.721   1.942   4.781 -0.2711 -2.0853  1.7211
12912TIP3    H260228   3.574   1.971   4.760  0.4992  0.9050 -0.1502
12913TIP3   OH260229   1.156   2.345   6.065 -0.4362  0.3863 -0.2994
12913TIP3    H160230   1.242   2.373   6.098 -0.0139 -1.1672  0.0110
12913TIP3    H260231   1.170   2.332   5.971 -0.6113  1.1168 -0.4290
12914TIP3   OH260232   1.861   0.228  15.989 -0.0812 -0.4538 -0.2866
12914TIP3    H160233   1.864   0.160  15.921  0.3243 -1.4494  0.6981
12914TIP3    H260234   1.872   0.310  15.941  0.8297 -1.1798 -1.3638
12915TIP3   OH260235   3.420   5.074   4.966 -0.0395 -0.6949  0.2652
12915TIP3    H160236   3.452   5.165   4.971  1.6099 -1.1093 -1.4979
12915TIP3    H260237   3.392   5.063   4.876  0.4528 -2.1371  0.2600
12916TIP3   OH260238   5.205   5.211  16.113 -0.5343 -0.5330 -0.4522
12916TIP3    H160239   5.280   5.189  16.168  0.1973 -0.3723 -1.3549
12916TIP3    H260240   5.231   5.290  16.067 -1.4242 -0.2470 -0.4946
12917TIP3   OH260241   3.336   2.849   4.734  0.4971 -0.5508  0.0747
12917TIP3    H160242   3.345   2.939   4.763  2.2371 -1.2130  1.7343
12917TIP3    H260243   3.332   2.855   4.638  0.9252  1.2388  0.1405
12918TIP3   OH260244   5.665   1.732   2.194  0.0094  0.3188 -0.1590
12918TIP3    H160245   5.712   1.653   2.220  3.4210  2.5082  1.0718
12918TIP3    H260246   5.626   1.765   2.275 -0.0435  0.6900 -0.3332
12919TIP3   OH260247   3.111   4.683  17.012  0.3111  0.3833  0.5834
12919TIP3    H160248   3.017   4.669  17.001  0.7062 -0.6073 -3.0655
12919TIP3    H260249   3.143   4.602  17.052 -0.0103 -1.0139 -1.7760
12920TIP3   OH260250   4.791   1.683   1.119  0.1041 -0.0926 -0.2921
12920TIP3    H160251   4.862   1.725   1.168 -0.3774  0.1705  0.1892
12920TIP3    H260252   4.747   1.628   1.183 -1.1389  1.0027 -0.1669
12921TIP3   OH260253   3.534   6.694   5.505 -0.1104  0.0754  0.7260
12921TIP3    H160254   3.495   6.702   5.592 -0.7948 -1.5861  0.6071
12921TIP3    H260255   3.607   6.633   5.517  0.8807  1.1609  0.4375
12922TIP3   OH260256   4.155   3.980  13.325 -0.2696  0.0449  0.5021
12922TIP3    H160257   4.185   4.002  13.237  1.4530 -1.1520  0.7461
12922TIP3    H260258   4.210   4.032  13.383 -0.6833  0.0391  0.9069
12923TIP3   OH260259   2.447   3.531  15.765 -0.4117  0.2100  0.2805
12923TIP3    H160260   2.542   3.543  15.778 -0.3215 -1.6390  1.6489
12923TIP3    H260261   2.440   3.492  15.678  0.3212 -1.7493  1.0427
12924TIP3   OH260262   0.101   4.215  12.278 -0.2559  0.3610 -0.1183
12924TIP3    H160263   0.045   4.231  12.354  1.8409 -0.0344  1.6165
12924TIP3    H260264   0.082   4.125  12.253 -0.0805  0.0765  0.7456
12925TIP3   OH260265   1.952   4.774   2.731 -0.3139 -0.6392  0.0684
12925TIP3    H160266   2.043   4.790   2.706 -1.0868 -0.0067 -2.7014
12925TIP3    H260267   1.939   4.829   2.808  1.4837 -0.2587  0.1530
12926TIP3   OH260268   4.531   2.377   3.452  0.0358  0.1957  0.3568
12926TIP3    H160269   4.504   2.286   3.443 -1.4134  0.7092 -1.0344
12926TIP3    H260270   4.627   2.375   3.448  0.0272 -1.2652  0.4608
12927TIP3   OH260271   3.263   5.065  15.765  0.3527 -0.3086  0.2925
12927TIP3    H160272   3.286   5.065  15.857 -1.8004  1.8732  0.9185
12927TIP3    H260273   3.213   4.984  15.752  1.5748 -1.1645  0.7138
12928TIP3   OH260274   4.714   6.578   2.839  0.2333  0.1094 -0.4818
12928TIP3    H160275   4.661   6.608   2.912  1.1058  0.8027 -0.1236
12928TIP3    H260276   4.658   6.592   2.762 -0.9352 -1.2101  0.0708
12929TIP3   OH260277   2.721   5.033  13.918 -0.0346 -0.0095  0.1745
12929TIP3    H160278   2.706   4.974  13.844  0.2338  1.0202 -0.7373
12929TIP3    H260279   2.744   4.976  13.991  1.9520 -0.9403 -1.1067
12930TIP3   OH260280   0.682   0.620  15.871  0.1813 -0.4860 -0.2082
12930TIP3    H160281   0.762   0.671  15.856 -0.0098 -0.2242 -0.3352
12930TIP3    H260282   0.679   0.558  15.797  0.1872 -0.3953 -0.2848
12931TIP3   OH260283   0.395   5.794  14.337  0.5213  0.3230 -0.0930
12931TIP3    H160284   0.473   5.756  14.296  0.6365  0.1039  0.3322
12931TIP3    H260285   0.412   5.791  14.431 -1.8201 -3.9653  0.4405
12932TIP3   OH260286   4.428   0.149  12.351  0.0623 -0.4744 -0.7380
12932TIP3    H160287   4.415   0.241  12.325  0.0349 -0.3827 -0.4068
12932TIP3    H260288   4.478   0.111  12.278  2.5412  0.4989  0.3302
12933TIP3   OH260289   1.946   0.699   4.082  0.0204  0.3845  0.1830
12933TIP3    H160290   1.898   0.709   4.000  0.6590 -1.1071 -0.4027
12933TIP3    H260291   1.954   0.605   4.094  2.1461  0.5832  0.6482
12934TIP3   OH260292   1.314   5.941   1.777 -0.0233 -0.1313  0.2626
12934TIP3    H160293   1.408   5.933   1.794  0.3081  2.3929  0.0754
12934TIP3    H260294   1.280   5.991   1.851 -0.6121  1.4619 -0.9963
12935TIP3   OH260295   4.420   2.215   4.813 -0.3500 -0.1827 -0.7039
12935TIP3    H160296   4.501   2.252   4.777  0.2680  0.1648  0.9245
12935TIP3    H260297   4.351   2.245   4.754  0.5930  0.3418 -1.5769
12936TIP3   OH260298   5.814   3.910   5.571  0.6382 -0.2006  0.0706
12936TIP3    H160299   5.816   3.821   5.537  0.7124 -0.1331 -0.1039
12936TIP3    H260300   5.875   3.958   5.515 -0.6723  0.3557 -0.9407
12937TIP3   OH260301   6.753   1.434   4.130  0.0631 -0.0471  0.0713
12937TIP3    H160302   6.736   1.425   4.036  1.1686 -0.8510 -0.0685
12937TIP3    H260303   6.782   1.525   4.140 -0.1773  0.0801 -0.3410
12938TIP3   OH260304   3.549   5.660  13.927  0.1291  0.2225  0.4391
12938TIP3    H160305   3.602   5.581  13.922  1.1526  0.9562 -1.9545
12938TIP3    H260306   3.462   5.629  13.950  0.2718 -1.7953 -1.3753
12939TIP3   OH260307   5.594   1.376   2.891 -0.7543 -0.3978  0.0080
12939TIP3    H160308   5.573   1.362   2.984 -1.9252  1.1195  0.0155
12939TIP3    H260309   5.589   1.289   2.852  0.4950 -1.1835  1.4792
12940TIP3   OH260310   5.457   3.919   4.094 -0.0356 -0.0307  0.2190
12940TIP3    H160311   5.490   3.838   4.134 -1.2849 -0.0561  1.2311
12940TIP3    H260312   5.382   3.891   4.042 -0.4000  0.4563  0.4746
12941TIP3   OH260313   5.492   0.109   3.499 -0.4684 -0.2464 -0.2928
12941TIP3    H160314   5.505   0.198   3.532 -1.6727 -0.7323  1.6143
12941TIP3    H260315   5.499   0.118   3.404  1.6157  1.4904 -0.0562
12942TIP3   OH260316   3.604   5.362  14.245  0.2826 -0.0539 -0.1694
12942TIP3    H160317   3.647   5.338  14.163  0.4891 -0.5224  0.0732
12942TIP3    H260318   3.616   5.456  14.252 -1.1168  0.2577 -1.4789
12943TIP3   OH260319   2.300   5.703   3.967  0.0149  0.0624 -0.9365
12943TIP3    H160320   2.292   5.769   4.036 -2.7681 -1.0177 -0.0702
12943TIP3    H260321   2.286   5.751   3.885  0.4450  0.9135 -0.5179
12944TIP3   OH260322   1.628   1.658   1.907 -0.0735  0.5650  0.1269
12944TIP3    H160323   1.723   1.654   1.913 -0.0029 -0.1073 -1.0322
12944TIP3    H260324   1.609   1.745   1.872  0.3054 -0.1323 -1.9747
12945TIP3   OH260325   4.251   2.298   2.386 -0.8926  0.0495  0.5540
12945TIP3    H160326   4.161   2.322   2.366 -0.9709  0.1965  1.0729
12945TIP3    H260327   4.294   2.294   2.300 -1.4928 -0.4515  0.2595
12946TIP3   OH260328   0.173   5.700  16.235 -0.0509 -0.7583  0.2230
12946TIP3    H160329   0.199   5.791  16.224 -0.1083 -0.4810  2.0214
12946TIP3    H260330   0.079   5.704  16.254  0.0250 -1.1483  0.7045
12947TIP3   OH260331   1.691   0.113   3.596  0.2191 -0.4651 -0.0476
12947TIP3    H160332   1.715   0.038   3.651  0.1766  0.0747  0.7258
12947TIP3    H260333   1.695   0.079   3.506  1.0111 -1.1718  0.2369
12948TIP3   OH260334   1.152   1.792   0.585 -0.0959  0.6209 -0.2730
12948TIP3    H160335   1.119   1.733   0.517 -0.4303  0.6760 -0.1592
12948TIP3    H260336   1.175   1.734   0.658  1.1649  0.4602 -0.7740
12949TIP3   OH260337   6.599   6.785  10.855 -0.1877 -0.2809 -0.4476
12949TIP3    H160338   6.599   6.762  10.948 -0.9000 -1.0602 -0.6287
12949TIP3    H260339   6.558   6.710  10.812  1.1157 -0.3977 -1.5160
12950TIP3   OH260340   0.231   0.293  13.260 -0.5023 -0.2120 -0.0038
12950TIP3    H160341   0.201   0.276  13.171 -0.8364 -2.9523  0.5325
12950TIP3    H260342   0.223   0.388  13.271 -2.7201 -0.0665 -2.0852
12951TIP3   OH260343   2.164   3.807  15.214 -0.1807  0.6905  0.1294
12951TIP3    H160344   2.130   3.884  15.169 -3.0357 -0.8571 -0.5665
12951TIP3    H260345   2.232   3.773  15.156  2.2004  3.3515  1.1185
12952TIP3   OH260346   3.314   6.468  12.516 -0.7563  0.5516  0.3982
12952TIP3    H160347   3.374   6.461  12.442 -0.3243 -0.8613  0.8633
12952TIP3    H260348   3.233   6.504  12.478 -0.5426 -0.1580 -0.7555
12953TIP3   OH260349   6.803   5.625  11.137 -0.7766 -0.1510 -0.5618
12953TIP3    H160350   6.808   5.597  11.046 -1.1920 -1.5719 -0.1655
12953TIP3    H260351   6.744   5.562  11.179 -0.7894  0.6183  0.6425
12954TIP3   OH260352   4.582   5.658   3.636 -0.2315 -0.3266 -0.5598
12954TIP3    H160353   4.563   5.609   3.556 -0.7203  3.6563 -3.1920
12954TIP3    H260354   4.673   5.687   3.625  0.2129 -0.9527  1.1495
12955TIP3   OH260355   1.564   2.938  15.892 -0.1164  0.3850  0.1430
12955TIP3    H160356   1.562   2.843  15.880 -0.6245  0.3699  0.2852
12955TIP3    H260357   1.519   2.952  15.975 -1.1720  0.8349 -0.4827
12956TIP3   OH260358   5.570   6.521   2.235 -0.2164 -0.2193 -0.2035
12956TIP3    H160359   5.524   6.510   2.318  2.7111 -1.0819  1.4325
12956TIP3    H260360   5.524   6.593   2.192 -2.6181 -0.5955  1.5649
12957TIP3   OH260361   1.384   2.324  12.168  0.3148 -0.4994  0.0712
12957TIP3    H160362   1.387   2.230  12.155  1.7848 -0.4038 -0.5114
12957TIP3    H260363   1.415   2.361  12.085 -0.6456  0.5240  0.1361
12958TIP3   OH260364   6.304   4.560  12.124 -0.2796 -0.1535 -0.3522
12958TIP3    H160365   6.247   4.615  12.178 -1.4243 -1.1174 -0.5407
12958TIP3    H260366   6.321   4.484  12.178  3.6402  1.4784  1.0917
12959TIP3   OH260367   0.862   0.336   2.268  0.1384  0.1679  0.7664
12959TIP3    H160368   0.932   0.277   2.298  1.9675  1.2028 -1.2298
12959TIP3    H260369   0.884   0.421   2.306  0.3772  0.6472 -0.4093
12960TIP3   OH260370   3.161   0.346   3.741 -0.0701 -0.5976  0.2126
12960TIP3    H160371   3.208   0.410   3.688 -1.2287  1.2666  1.3065
12960TIP3    H260372   3.079   0.330   3.693 -0.7297  0.4252  0.9458
12961TIP3   OH260373   0.850   4.105   4.084 -0.1221 -0.0866 -0.4407
12961TIP3    H160374   0.927   4.076   4.034 -0.5263  0.0110 -1.1371
12961TIP3    H260375   0.873   4.193   4.114  1.0276 -0.9679  1.5050
12962TIP3   OH260376   5.432   6.573  14.703 -0.2982 -0.1226 -0.1825
12962TIP3    H160377   5.460   6.510  14.636 -0.8254  0.0861 -0.6130
12962TIP3    H260378   5.439   6.526  14.786 -0.5400 -0.6979 -0.4880
12963TIP3   OH260379   4.330   4.535  12.984  0.0440  0.5834  0.5271
12963TIP3    H160380   4.388   4.480  12.933  0.3638 -0.3832  1.8870
12963TIP3    H260381   4.242   4.502  12.964  0.0970  0.7329  0.0211
12964TIP3   OH260382   3.732   4.468   4.250 -0.0498  0.4196 -0.1396
12964TIP3    H160383   3.711   4.497   4.339  1.3370  1.0833  0.0021
12964TIP3    H260384   3.726   4.373   4.254  2.1343  0.2619  1.2973
12965TIP3   OH260385   2.449   6.640  13.926  0.1051 -0.3839  0.0637
12965TIP3    H160386   2.529   6.625  13.876  0.7289  1.6682  0.3384
12965TIP3    H260387   2.456   6.731  13.955 -1.2116 -0.8812  2.1417
12966TIP3   OH260388   4.682   3.365   2.822 -0.2930 -0.1133 -0.0167
12966TIP3    H160389   4.752   3.388   2.761  0.1187  1.5123  1.0377
12966TIP3    H260390   4.612   3.427   2.803 -0.9750 -0.9173 -0.1982
12967TIP3   OH260391   3.691   6.793   2.424 -0.1680  0.3271  0.3944
12967TIP3    H160392   3.760   6.810   2.488 -0.7905  2.3452  0.5771
12967TIP3    H260393   3.674   6.699   2.432  0.8812  0.2398  2.0272
12968TIP3   OH260394   2.346   3.493   2.099  0.2486  0.2824  0.0390
12968TIP3    H160395   2.262   3.458   2.071  0.1791  1.4377 -1.3116
12968TIP3    H260396   2.336   3.511   2.192 -1.0628  0.5757 -0.1481
12969TIP3   OH260397   3.187   4.949  16.193  1.1359  0.8480 -0.2663
12969TIP3    H160398   3.152   4.994  16.270  0.9360  1.2604 -0.5998
12969TIP3    H260399   3.131   4.873  16.183  1.2725  0.6930  0.1001
12970TIP3   OH260400   1.811   3.261   1.038  0.7667 -0.4434 -0.1289
12970TIP3    H160401   1.843   3.301   0.957 -0.5935 -0.8312 -0.8904
12970TIP3    H260402   1.735   3.315   1.063  0.6339 -0.8624  0.3897
12971TIP3   OH260403   2.286   4.430  11.977  0.0100  0.4004 -0.3238
12971TIP3    H160404   2.246   4.495  12.035  0.8872  1.0115 -0.3678
12971TIP3    H260405   2.347   4.383  12.033  1.3143  1.3994 -0.8384
12972TIP3   OH260406   2.996   2.118   4.687  0.9524  0.3067 -0.4826
12972TIP3    H160407   3.086   2.089   4.704  0.3266 -0.8529  1.1688
12972TIP3    H260408   2.961   2.054   4.626  0.7380 -0.2346  0.2002
12973TIP3   OH260409   3.432   2.965  11.028  0.0554 -0.0201  0.1417
12973TIP3    H160410   3.520   2.967  11.065  0.1419 -0.7605 -0.0079
12973TIP3    H260411   3.388   2.893  11.073 -0.3714  0.1432 -0.0074
12974TIP3   OH260412   5.386   5.337   5.043 -0.0211  0.5571 -0.3182
12974TIP3    H160413   5.420   5.277   4.977 -0.5143  1.1604 -1.1476
12974TIP3    H260414   5.371   5.282   5.120  0.8345 -0.1033 -0.6107
12975TIP3   OH260415   2.142   4.045  15.078 -0.1844  0.5647  0.2275
12975TIP3    H160416   2.057   4.088  15.069 -0.3791  0.5430  1.7957
12975TIP3    H260417   2.161   4.012  14.990 -0.8236  2.3341 -0.6236
12976TIP3   OH260418   6.366   3.313  16.796 -0.3154  0.1124  0.3743
12976TIP3    H160419   6.402   3.258  16.865  0.6646 -0.1656 -0.3365
12976TIP3    H260420   6.440   3.367  16.768 -0.2372 -0.9164 -1.5646
12977TIP3   OH260421   5.157   6.250   2.767 -0.8459  0.2521 -0.2262
12977TIP3    H160422   5.161   6.265   2.861 -0.6244 -2.0324  0.1705
12977TIP3    H260423   5.065   6.235   2.748 -0.8950  0.7368 -0.4094
12978TIP3   OH260424   0.833   0.989   1.753  0.2491 -0.2139  0.2293
12978TIP3    H160425   0.741   1.015   1.741 -0.4002 -2.0476  0.9347
12978TIP3    H260426   0.861   0.963   1.665 -0.2907 -0.7815  0.2167
12979TIP3   OH260427   3.978   2.292  10.670  0.4637  0.8081  0.3013
12979TIP3    H160428   4.039   2.228  10.634  0.8675  0.9640  0.6970
12979TIP3    H260429   3.991   2.370  10.617  0.3247  0.7140  0.1303
12980TIP3   OH260430   2.988   4.722  12.695  0.4792  0.1230  0.2538
12980TIP3    H160431   3.002   4.816  12.710  2.4680  0.0176 -0.5960
12980TIP3    H260432   2.917   4.699  12.754  0.4040  2.0223  0.9862
12981TIP3   OH260433   1.930   3.993   5.589 -0.2924  0.4542  0.7062
12981TIP3    H160434   1.960   4.084   5.593 -0.1870  0.4898 -0.5884
12981TIP3    H260435   1.857   3.995   5.526 -1.3973 -0.0705  1.9218
12982TIP3   OH260436   0.895   4.261  13.837  0.2280  0.0605 -0.5402
12982TIP3    H160437   0.850   4.295  13.760 -0.9804  0.5369  0.3450
12982TIP3    H260438   0.831   4.205  13.879  0.3923  0.8477  0.8164
12983TIP3   OH260439   3.241   4.692   1.396 -0.6314 -0.0953  0.2474
12983TIP3    H160440   3.189   4.745   1.336  0.9147  0.9299 -0.2427
12983TIP3    H260441   3.267   4.615   1.345 -0.4026  0.1440 -0.0013
12984TIP3   OH260442   3.641   0.643   0.494 -0.6231  0.5857  0.2909
12984TIP3    H160443   3.603   0.604   0.415  0.9652 -2.0943  0.7607
12984TIP3    H260444   3.734   0.650   0.476 -0.1005 -0.8101  2.1723
12985TIP3   OH260445   1.561   1.968  15.620  0.3117  0.0919  0.7378
12985TIP3    H160446   1.467   1.961  15.636  0.1514  0.1119 -0.1714
12985TIP3    H260447   1.577   2.061  15.606  0.4587  0.0831  0.8459
12986TIP3   OH260448   3.651   0.370  11.292  0.0955  0.2272 -0.3535
12986TIP3    H160449   3.582   0.322  11.247 -0.2377 -0.4537  0.8332
12986TIP3    H260450   3.728   0.359  11.236 -0.4536 -0.0266 -1.0788
12987TIP3   OH260451   0.231   1.769  13.682  0.0987  0.4185 -0.0595
12987TIP3    H160452   0.224   1.792  13.775 -0.5635 -3.6431  1.0948
12987TIP3    H260453   0.284   1.689  13.682 -1.1613 -0.5257 -3.0018
12988TIP3   OH260454   6.430   2.738   2.683 -0.2390 -0.7427  0.3874
12988TIP3    H160455   6.334   2.746   2.680 -0.3831 -2.2804  0.1525
12988TIP3    H260456   6.446   2.644   2.683  1.3170 -0.5352 -1.3146
12989TIP3   OH260457   1.969   2.704  12.153  0.3614  0.0835 -0.4183
12989TIP3    H160458   1.905   2.718  12.083  0.3340 -0.0677 -0.4255
12989TIP3    H260459   2.030   2.777  12.145  1.1720 -0.6743 -1.5136
12990TIP3   OH260460   6.736   3.965  16.507  0.1023 -0.6404 -0.0049
12990TIP3    H160461   6.648   4.002  16.516 -0.0401 -1.1600  0.8458
12990TIP3    H260462   6.779   4.021  16.442 -1.4437 -1.4573 -1.8491
12991TIP3   OH260463   6.409   3.304   5.878 -0.0973 -0.3702 -0.4059
12991TIP3    H160464   6.422   3.211   5.895  2.2421  0.0337  0.3291
12991TIP3    H260465   6.382   3.341   5.962 -1.0449 -0.3698 -0.7008
12992TIP3   OH260466   5.914   1.350   1.042 -0.1670 -0.3976  0.0010
12992TIP3    H160467   5.952   1.362   1.130  1.9347 -0.2065 -0.8586
12992TIP3    H260468   5.937   1.260   1.019 -0.6038 -0.4085 -0.3934
12993TIP3   OH260469   3.330   2.904   0.075  0.3652  0.1964  0.9906
12993TIP3    H160470   3.248   2.930   0.034 -0.1095 -0.1349  1.7278
12993TIP3    H260471   3.359   2.983   0.122 -0.1711 -0.0493  1.7554
12994TIP3   OH260472   3.281   0.013  11.376 -0.1545  0.2458 -0.6071
12994TIP3    H160473   3.250   0.095  11.337 -1.5114 -0.7747 -1.7567
12994TIP3    H260474   3.242   0.011  11.463 -1.0980  0.2828 -1.0163
12995TIP3   OH260475   6.139   4.137   3.414 -0.3131  0.1872  0.1703
12995TIP3    H160476   6.066   4.101   3.364 -0.0930  0.1063 -0.0962
12995TIP3    H260477   6.193   4.182   3.348  0.3617 -0.5386  0.2130
12996TIP3   OH260478   6.113   2.750  13.959 -0.3855  0.4669  0.7926
12996TIP3    H160479   6.030   2.702  13.960  0.8449 -1.8178 -0.0843
12996TIP3    H260480   6.162   2.715  14.034  0.4656  0.4840  0.2568
12997TIP3   OH260481   3.119   3.827  10.212  0.5930 -0.4056 -0.2955
12997TIP3    H160482   3.196   3.871  10.174 -0.3963 -1.1492 -3.4694
12997TIP3    H260483   3.044   3.876  10.177 -0.4333 -0.4353  1.7637
12998TIP3   OH260484   2.063   5.530   2.832 -0.2493 -0.0421 -0.5998
12998TIP3    H160485   2.088   5.585   2.758 -0.0930  0.5100 -0.1377
12998TIP3    H260486   2.050   5.443   2.793  0.3113  0.1301 -1.1883
12999TIP3   OH260487   3.724   6.764  11.387  0.0983  0.6186  0.2892
12999TIP3    H160488   3.682   6.699  11.444 -0.7436 -0.0383 -1.0312
12999TIP3    H260489   3.660   6.836  11.383  0.3424  0.8515  0.4804
13000TIP3   OH260490   5.317   2.209  12.850 -0.8698 -0.1090  0.2431
13000TIP3    H160491   5.346   2.271  12.782  1.9642  0.3603  1.7520
13000TIP3    H260492   5.280   2.264  12.919 -0.5427 -0.2826  0.5604
13001TIP3   OH260493   2.790   5.890   0.341  0.0867 -0.1404 -0.3473
13001TIP3    H160494   2.793   5.795   0.334  1.1550 -0.3081  1.6525
13001TIP3    H260495   2.702   5.909   0.373  0.6770 -0.7131  1.7369
13002TIP3   OH260496   2.515   0.339  13.549 -0.3048  0.6887 -0.3831
13002TIP3    H160497   2.476   0.280  13.613 -0.8243  0.8915 -0.5106
13002TIP3    H260498   2.444   0.361  13.489 -0.0754  1.3203 -0.4313
13003TIP3   OH260499   4.665   4.834   0.352  0.2283 -0.0950 -0.0085
13003TIP3    H160500   4.637   4.774   0.283 -0.5394  1.7656 -1.4069
13003TIP3    H260501   4.731   4.889   0.310  0.1615  0.7065  0.9079
13004TIP3   OH260502   2.192   5.998  16.955 -0.7038 -0.1535  0.5144
13004TIP3    H160503   2.238   5.914  16.956 -2.1075 -1.0657 -2.1775
13004TIP3    H260504   2.115   5.984  17.010  0.5959  0.4525  2.6163
13005TIP3   OH260505   2.614   4.586   2.184 -0.5402 -0.2497  0.2182
13005TIP3    H160506   2.693   4.532   2.181 -0.5552 -0.3732  1.5443
13005TIP3    H260507   2.577   4.570   2.271 -0.9384  1.3291  0.3643
13006TIP3   OH260508   1.035   0.647   2.697  0.0014  0.3098 -0.6098
13006TIP3    H160509   1.072   0.716   2.642 -0.5976  0.4553 -0.8334
13006TIP3    H260510   0.972   0.691   2.753 -0.1156  0.0020 -0.4980
13007TIP3   OH260511   6.664   0.329   3.660 -0.3138 -0.1807  0.6526
13007TIP3    H160512   6.669   0.314   3.566 -1.1028 -2.5838  0.9291
13007TIP3    H260513   6.580   0.291   3.687  0.7596 -1.3594  2.5884
13008TIP3   OH260514   3.765   2.437   4.100 -0.2494 -0.1061  0.0532
13008TIP3    H160515   3.838   2.477   4.147  0.4345 -0.6215 -0.5600
13008TIP3    H260516   3.805   2.370   4.044 -0.9431  0.9010 -1.7457
13009TIP3   OH260517   2.693   4.009   1.332 -0.7413  0.2345 -0.3850
13009TIP3    H160518   2.616   4.023   1.386 -0.5204  0.8392 -0.2220
13009TIP3    H260519   2.691   3.916   1.311 -0.8074 -0.0163  0.6914
13010TIP3   OH260520   0.680   6.737   3.100 -0.1065  0.0424  0.5545
13010TIP3    H160521   0.669   6.810   3.160  0.2749  0.9138 -0.3988
13010TIP3    H260522   0.695   6.661   3.156 -1.3064  0.5446  1.5834
13011TIP3   OH260523   3.780   3.720  10.667  0.7819  0.0446  0.2414
13011TIP3    H160524   3.739   3.649  10.716  0.6054 -0.2065 -0.2659
13011TIP3    H260525   3.849   3.678  10.616  1.2228  0.3624  0.5675
13012TIP3   OH260526   3.837   2.532  15.671 -0.0613 -0.4794 -0.1186
13012TIP3    H160527   3.790   2.606  15.633 -1.3442 -0.0750  2.0773
13012TIP3    H260528   3.815   2.535  15.764  1.6903 -2.2945  0.4269
13013TIP3   OH260529   5.906   0.139   5.856 -0.1461  0.3526 -0.5176
13013TIP3    H160530   5.871   0.218   5.815 -1.6159  1.6730  2.8558
13013TIP3    H260531   6.001   0.153   5.857 -0.2437  1.2206 -1.5474
13014TIP3   OH260532   3.112   1.986   6.093 -0.6257 -0.4518 -0.4071
13014TIP3    H160533   3.205   1.976   6.111 -0.2339  1.4050 -1.0995
13014TIP3    H260534   3.068   1.957   6.173  0.4754 -2.2428 -0.4172
13015TIP3   OH260535   6.794   0.088  10.594 -0.7921 -0.4070  0.4160
13015TIP3    H160536   6.731   0.029  10.553 -2.5807  1.5926  0.1131
13015TIP3    H260537   6.746   0.128  10.666 -1.2440  3.7948 -1.8988
13016TIP3   OH260538   0.020   0.613   4.294 -0.6720 -0.3917 -0.2659
13016TIP3    H160539   0.032   0.656   4.210 -3.8109  1.8059  0.2646
13016TIP3    H260540  -0.040   0.540   4.276  0.2905 -1.2174 -0.2271
13017TIP3   OH260541   6.090   2.562  14.728 -0.5939 -0.0630  0.1354
13017TIP3    H160542   6.078   2.650  14.692 -0.5629  1.4161  3.3786
13017TIP3    H260543   6.128   2.576  14.815 -0.7160 -3.3004  0.8568
13018TIP3   OH260544   1.539   5.185  16.090 -0.2917  0.0912  0.3145
13018TIP3    H160545   1.578   5.108  16.131  0.8654  1.1538  1.2730
13018TIP3    H260546   1.453   5.155  16.061  0.5667 -1.8757 -0.3886
13019TIP3   OH260547   4.914   4.110  16.647  0.0034 -0.2209  0.1191
13019TIP3    H160548   4.899   4.199  16.680  0.8578 -0.1132  0.2238
13019TIP3    H260549   4.969   4.069  16.713  1.4126 -0.1283 -0.9645
13020TIP3   OH260550   3.345   2.934   0.786 -0.0049 -0.2779 -0.5620
13020TIP3    H160551   3.264   2.968   0.749 -0.4521 -0.5338  0.1537
13020TIP3    H260552   3.398   3.011   0.806 -1.4334  0.1457  2.0311
13021TIP3   OH260553   6.377   4.249   5.085 -0.1880 -0.3957  0.7843
13021TIP3    H160554   6.468   4.252   5.114  0.4666  0.5119 -1.2141
13021TIP3    H260555   6.327   4.285   5.159  1.2861  0.9608  1.1736
13022TIP3   OH260556   3.060   2.470   3.941 -0.0358  0.6506 -0.0425
13022TIP3    H160557   3.097   2.415   3.872  0.6721  0.5728  0.3856
13022TIP3    H260558   3.128   2.473   4.008  0.3495  2.7834 -0.4383
13023TIP3   OH260559   3.918   4.692   3.898 -0.0783  0.5294  0.2939
13023TIP3    H160560   3.920   4.747   3.820 -1.7226 -1.5750 -1.3637
13023TIP3    H260561   4.010   4.669   3.913  0.2062  0.2655 -1.5985
13024TIP3   OH260562   4.106   5.604   1.478  0.0733 -0.3606 -0.3259
13024TIP3    H160563   4.033   5.559   1.436 -1.5065  1.5068  0.2734
13024TIP3    H260564   4.127   5.677   1.419  1.3040 -0.7299 -0.3686
13025TIP3   OH260565   5.916   2.696  13.047  0.9046  0.4591  0.0217
13025TIP3    H160566   6.003   2.728  13.069  1.4883 -0.7439 -0.5025
13025TIP3    H260567   5.887   2.753  12.976  0.1349  2.5792  1.9085
13026TIP3   OH260568   0.372   5.184   1.152  0.2758 -0.1836  0.0732
13026TIP3    H160569   0.427   5.256   1.123  1.7841 -1.0347  0.7115
13026TIP3    H260570   0.387   5.179   1.246 -1.5195  0.0438  0.4028
13027TIP3   OH260571   5.839   1.021   3.042 -0.6858 -0.4662 -0.3013
13027TIP3    H160572   5.787   0.977   3.110  0.9497 -0.3974  1.0412
13027TIP3    H260573   5.923   0.976   3.043  0.6945  1.9609  0.3961
13028TIP3   OH260574   2.661   0.870  11.632  0.1637 -0.1342  0.0006
13028TIP3    H160575   2.633   0.795  11.579 -1.8765  0.5454  0.0128
13028TIP3    H260576   2.654   0.839  11.723  0.5226 -0.3006 -0.0266
13029TIP3   OH260577   2.689   5.239   1.975 -0.0270 -0.1340 -0.3731
13029TIP3    H160578   2.615   5.178   1.975  1.1866 -1.6867 -0.5587
13029TIP3    H260579   2.744   5.209   2.048  0.1280  1.3852  0.1624
13030TIP3   OH260580   1.042   5.173   1.360 -0.0021 -0.3333 -0.2326
13030TIP3    H160581   0.961   5.137   1.397 -0.4600  0.3366 -0.5497
13030TIP3    H260582   1.068   5.110   1.293 -0.1098 -0.6836  0.0460
13031TIP3   OH260583   3.646   0.120   0.251 -0.3081  0.3722  0.1098
13031TIP3    H160584   3.621   0.092   0.339 -0.4711  0.5288  0.1147
13031TIP3    H260585   3.607   0.056   0.192 -2.5096  1.7265 -0.0218
13032TIP3   OH260586   3.764   1.877  16.315 -0.5991 -0.3590  0.3105
13032TIP3    H160587   3.858   1.893  16.322 -0.7845  2.3219 -1.6921
13032TIP3    H260588   3.746   1.886  16.221 -2.7399 -1.7221  0.5344
13033TIP3   OH260589   4.548   5.226  13.854  0.2377  0.0465  0.7844
13033TIP3    H160590   4.542   5.254  13.762  1.6723 -1.3792  0.2042
13033TIP3    H260591   4.560   5.308  13.902  0.4709  0.7496 -0.4133
13034TIP3   OH260592   1.522   4.071  16.203 -0.6861 -0.2484  0.2476
13034TIP3    H160593   1.541   4.044  16.293  1.2164  2.0391  0.6447
13034TIP3    H260594   1.604   4.056  16.156 -0.1907  2.5891  0.0276
13035TIP3   OH260595   1.503   0.524   4.069  0.6957  0.2598 -0.2833
13035TIP3    H160596   1.452   0.583   4.125  0.4428  0.9531 -1.2070
13035TIP3    H260597   1.554   0.471   4.130 -2.8436 -2.2005  0.8742
13036TIP3   OH260598   3.542   4.849   2.052  0.1272 -0.4534 -0.5346
13036TIP3    H160599   3.591   4.853   1.970  1.0900 -0.4879  0.0196
13036TIP3    H260600   3.456   4.885   2.031  1.7049  3.8938 -0.5521
13037TIP3   OH260601   3.476   2.336  15.331 -0.0011 -0.4299  0.2141
13037TIP3    H160602   3.535   2.263  15.315  1.6142  0.2460  2.4659
13037TIP3    H260603   3.422   2.308  15.406 -0.2264  0.2109  0.3052
13038TIP3   OH260604   0.047   0.465   3.761 -0.1721 -0.3457  0.3440
13038TIP3    H160605   0.008   0.524   3.825 -0.3516  1.8490 -1.6723
13038TIP3    H260606  -0.026   0.411   3.730 -0.4440 -0.1603  0.6540
13039TIP3   OH260607   1.167   2.914   4.862 -0.5268 -0.3510 -0.3855
13039TIP3    H160608   1.171   3.005   4.831  0.0107 -0.7771 -1.6703
13039TIP3    H260609   1.152   2.921   4.956  0.0955  1.0774 -0.3622
13040TIP3   OH260610   1.145   3.916  14.928  1.2575 -0.0717 -0.0646
13040TIP3    H160611   1.147   3.836  14.980 -1.4768 -0.1532  0.0459
13040TIP3    H260612   1.152   3.886  14.837  0.1190 -0.4757 -0.0323
13041TIP3   OH260613   4.230   3.892   3.178 -0.3748  0.1618  0.2583
13041TIP3    H160614   4.214   3.798   3.191  0.1858 -0.1075 -0.8472
13041TIP3    H260615   4.169   3.917   3.109 -0.3100  0.5437  0.3406
13042TIP3   OH260616   3.664   0.820   1.879  0.3477  0.2474 -0.3030
13042TIP3    H160617   3.607   0.876   1.930  0.0119 -0.0464 -0.3517
13042TIP3    H260618   3.751   0.861   1.885  0.0071  1.0487 -0.7711
13043TIP3   OH260619   4.482   4.124  17.106 -0.2664  0.8558 -0.0029
13043TIP3    H160620   4.499   4.035  17.074 -2.0492  0.4660 -0.0200
13043TIP3    H260621   4.472   4.114  17.201 -1.7815  0.7659 -0.1459
13044TIP3   OH260622   2.414   0.135  11.849  0.0938 -0.7549  0.5356
13044TIP3    H160623   2.401   0.044  11.879  2.8057 -1.6430 -0.6495
13044TIP3    H260624   2.428   0.127  11.755  0.6121  0.8679  0.4551
13045TIP3   OH260625   5.647   0.068   2.293  0.2872  0.5362 -0.2070
13045TIP3    H160626   5.672   0.154   2.327  2.8698  0.7795 -2.4147
13045TIP3    H260627   5.712   0.008   2.329 -0.5152 -0.2138  0.0087
13046TIP3   OH260628   1.862   2.008  15.587 -0.2045 -0.9446 -0.0827
13046TIP3    H160629   1.773   1.978  15.570 -0.4895  0.4098 -1.1332
13046TIP3    H260630   1.917   1.957  15.527 -0.3247 -1.4077  0.1969
13047TIP3   OH260631   3.164   1.721   6.408 -0.3141 -0.1076  0.1464
13047TIP3    H160632   3.156   1.637   6.454 -1.9653  1.4182  2.8988
13047TIP3    H260633   3.254   1.748   6.423 -0.4918 -0.2031  1.5539
13048TIP3   OH260634   4.120   0.759   5.285 -0.4060 -0.4386  0.8395
13048TIP3    H160635   4.196   0.740   5.340 -1.3840 -0.9037  2.0747
13048TIP3    H260636   4.094   0.848   5.309  1.0593  0.6296 -1.2203
13049TIP3   OH260637   1.821   2.546  15.695  0.0756  0.1061  0.2140
13049TIP3    H160638   1.864   2.569  15.613  2.8210 -1.4167  1.1225
13049TIP3    H260639   1.892   2.526  15.755 -1.8583  0.6804  2.8584
13050TIP3   OH260640   4.793   6.044  10.669 -0.1352 -0.3087 -0.2742
13050TIP3    H160641   4.836   5.997  10.740  0.3787  0.6432  0.0587
13050TIP3    H260642   4.786   6.134  10.700  1.9435  0.6057 -2.1801
13051TIP3   OH260643   1.912   6.683  15.576 -0.2323 -0.4700  0.4520
13051TIP3    H160644   1.998   6.652  15.551 -0.0366 -0.3976  1.0223
13051TIP3    H260645   1.902   6.767  15.530 -0.1009 -0.5944  0.1967
13052TIP3   OH260646   2.018   0.137   4.244  0.4338 -0.3442  0.4899
13052TIP3    H160647   1.976   0.179   4.169  1.1509 -2.3627 -1.1474
13052TIP3    H260648   2.084   0.199   4.273  2.1677 -0.5881 -2.4787
13053TIP3   OH260649   1.759   0.771   0.363  0.1544 -0.0166  0.3991
13053TIP3    H160650   1.772   0.677   0.357 -1.5528 -0.2581  0.1001
13053TIP3    H260651   1.714   0.795   0.281  0.5080  1.0520  0.4954
13054TIP3   OH260652   5.606   4.271   1.919 -0.3231  0.6087  0.1677
13054TIP3    H160653   5.534   4.311   1.968 -1.0852 -0.8071  0.2574
13054TIP3    H260654   5.582   4.285   1.827 -0.8967 -0.1237  0.1934
13055TIP3   OH260655   0.830   4.393  15.520 -0.2323 -0.2251  0.3431
13055TIP3    H160656   0.893   4.368  15.587  0.3161 -0.8566 -0.3920
13055TIP3    H260657   0.826   4.489  15.525  1.1634 -0.1294  0.0769
13056TIP3   OH260658   5.038   0.319  13.972 -0.0574 -0.3293  1.0416
13056TIP3    H160659   5.013   0.289  14.059  3.6647  1.3774  2.9369
13056TIP3    H260660   5.113   0.265  13.948  1.3667  1.6605  0.7299
13057TIP3   OH260661   3.188   4.186  14.538 -0.4884  0.9328  0.0597
13057TIP3    H160662   3.188   4.131  14.460 -0.2674  0.4006  0.4276
13057TIP3    H260663   3.169   4.126  14.610 -0.0749  1.3120  0.4927
13058TIP3   OH260664   1.893   1.116   4.340  0.2131  0.1329 -0.0374
13058TIP3    H160665   1.807   1.083   4.316  0.1654  0.8429 -0.8842
13058TIP3    H260666   1.953   1.079   4.275  0.5848 -0.4940  0.6466
13059TIP3   OH260667   2.436   1.980  12.646 -0.9536 -0.2707 -0.0914
13059TIP3    H160668   2.442   2.072  12.671 -0.2346 -0.7531  1.6540
13059TIP3    H260669   2.518   1.941  12.676 -1.5932 -1.6424 -0.0362
13060TIP3   OH260670   6.525   1.492   1.040  0.1674 -0.1889 -0.4791
13060TIP3    H160671   6.482   1.414   1.074  0.4654 -0.1656 -0.0425
13060TIP3    H260672   6.484   1.506   0.955 -0.2216 -0.5465 -0.3573
13061TIP3   OH260673   3.861   2.171  12.298  0.1561  0.3905 -0.0372
13061TIP3    H160674   3.882   2.166  12.205 -1.6120  0.9910 -0.5200
13061TIP3    H260675   3.837   2.082  12.322  0.5765  0.2407 -0.1676
13062TIP3   OH260676   3.512   2.067  12.177 -0.1813 -0.2328  0.0816
13062TIP3    H160677   3.475   2.155  12.172  0.8564  0.3054  1.2871
13062TIP3    H260678   3.441   2.009  12.150 -1.4307  0.8537  0.9234
13063TIP3   OH260679   5.373   6.337   1.531 -0.2910 -0.1034 -0.2491
13063TIP3    H160680   5.286   6.376   1.528 -1.0068 -1.5451  0.6565
13063TIP3    H260681   5.399   6.343   1.623  1.6069  2.3732 -0.8345
13064TIP3   OH260682   1.870   4.676  15.968  0.4145  0.8204 -0.3516
13064TIP3    H160683   1.823   4.681  15.885 -2.3942  0.9081  1.1262
13064TIP3    H260684   1.962   4.682  15.943 -0.1737 -1.0187 -3.5978
13065TIP3   OH260685   3.653   3.416   5.315 -0.1607  0.4537 -0.2730
13065TIP3    H160686   3.728   3.462   5.277 -0.3917  0.3464 -0.8631
13065TIP3    H260687   3.624   3.473   5.387  0.3724  0.5843 -0.1589
13066TIP3   OH260688   0.895   2.527   4.021  0.1638  0.2182  0.1383
13066TIP3    H160689   0.907   2.442   3.978  0.2108  0.5269 -0.4821
13066TIP3    H260690   0.967   2.533   4.084  0.5712  0.0862 -0.3016
13067TIP3   OH260691   0.759   0.981  16.693 -0.1939  0.2853  0.2277
13067TIP3    H160692   0.749   0.943  16.606  0.6086 -0.1315  0.3141
13067TIP3    H260693   0.810   1.061  16.679 -0.1709  0.2832  0.3007
13068TIP3   OH260694   2.476   4.146   0.112 -0.6198  0.5003  0.2074
13068TIP3    H160695   2.435   4.077   0.060 -0.1869 -0.5135  1.1521
13068TIP3    H260696   2.547   4.178   0.057 -0.1057 -0.6247  0.1758
13069TIP3   OH260697   3.929   3.289  10.712 -0.4929  0.6830  0.0490
13069TIP3    H160698   3.840   3.323  10.725 -1.3350 -1.6246  0.7839
13069TIP3    H260699   3.923   3.235  10.633  0.0257 -0.1890  0.5938
13070TIP3   OH260700   1.681   4.338  15.954 -0.1245 -0.4071 -0.6529
13070TIP3    H160701   1.768   4.364  15.986 -1.3342  0.7705  1.9546
13070TIP3    H260702   1.691   4.335  15.859  2.0390  2.7189 -0.6912
13071TIP3   OH260703   1.251   6.769   0.430 -0.7234  0.8174  0.0653
13071TIP3    H160704   1.328   6.825   0.422 -0.8048  0.8043 -1.0080
13071TIP3    H260705   1.230   6.744   0.340 -0.3629 -1.3795  0.5226
13072TIP3   OH260706   1.887   3.789   3.487 -0.3675 -0.6857 -0.3869
13072TIP3    H160707   1.815   3.847   3.463 -0.5497 -0.9697 -0.5424
13072TIP3    H260708   1.961   3.847   3.500 -0.0111 -0.5679 -2.5618
13073TIP3   OH260709   2.169   3.357  10.938 -0.3222 -0.3232 -0.0435
13073TIP3    H160710   2.123   3.310  11.007  0.7983 -1.6556 -0.1582
13073TIP3    H260711   2.260   3.328  10.945  0.2778  1.2864 -0.6171
13074TIP3   OH260712   1.278   3.029   0.040  0.0306 -0.4858  0.1021
13074TIP3    H160713   1.268   3.008   0.133  1.3234  0.7393  0.5517
13074TIP3    H260714   1.191   3.058   0.013 -0.2255 -0.2897  1.0867
13075TIP3   OH260715   4.897   3.829  15.520 -0.2397  0.5275 -0.3838
13075TIP3    H160716   4.935   3.838  15.607 -0.8403 -0.3079 -0.0234
13075TIP3    H260717   4.880   3.735  15.511  1.8474  0.2462 -2.2646
13076TIP3   OH260718   2.462   6.413  14.395 -0.0249  0.1933 -0.4656
13076TIP3    H160719   2.414   6.479  14.345 -0.7880 -2.0580 -2.9832
13076TIP3    H260720   2.554   6.437  14.385 -0.2913  0.9977 -1.1136
13077TIP3   OH260721   3.017   4.310   1.036 -0.0921 -0.1988  0.3965
13077TIP3    H160722   3.008   4.239   1.099 -0.4540 -0.1296  0.4200
13077TIP3    H260723   2.983   4.388   1.080  1.4185  0.2621  0.8261
13078TIP3   OH260724   4.753   3.828   2.629 -0.2360 -0.0053  0.0836
13078TIP3    H160725   4.845   3.853   2.625 -0.1201 -0.5116 -0.5272
13078TIP3    H260726   4.747   3.747   2.578 -1.1744  0.4887 -0.6313
13079TIP3   OH260727   2.488   1.928  15.867 -0.3542  0.2523  0.1607
13079TIP3    H160728   2.402   1.964  15.885 -0.7763 -0.2844 -0.7123
13079TIP3    H260729   2.539   2.002  15.835 -0.3169  0.6880  1.2077
13080TIP3   OH260730   4.124   5.320  12.466 -0.4160  0.2405 -0.2873
13080TIP3    H160731   4.092   5.249  12.412 -0.8167  2.1195 -2.6762
13080TIP3    H260732   4.061   5.327  12.537 -1.9575  0.0137 -1.5908
13081TIP3   OH260733   6.519   2.110  13.171  0.2270  0.0009 -0.0577
13081TIP3    H160734   6.523   2.093  13.077  2.1040 -0.1008  0.0022
13081TIP3    H260735   6.582   2.049  13.209  1.8166  2.1271  0.9131
13082TIP3   OH260736   5.737   3.118  16.455  0.0317 -0.3943  0.2897
13082TIP3    H160737   5.745   3.182  16.525  2.0847 -0.1556 -0.1209
13082TIP3    H260738   5.782   3.040  16.487  0.8189 -0.3533 -0.6441
13083TIP3   OH260739   4.067   2.951   1.642  0.1291 -0.1666 -0.1405
13083TIP3    H160740   3.989   2.969   1.695  2.1808  3.6813  2.0338
13083TIP3    H260741   4.055   3.004   1.564  1.0265  1.5571  0.8285
13084TIP3   OH260742   6.710   4.406  14.954 -0.0466 -0.5647 -0.3045
13084TIP3    H160743   6.792   4.370  14.921 -0.3144  0.0503 -1.7076
13084TIP3    H260744   6.642   4.352  14.915 -0.4501  1.2695 -2.3328
13085TIP3   OH260745   4.792   5.903   5.456  0.0716  0.7450  0.0916
13085TIP3    H160746   4.732   5.844   5.501  0.8835 -0.1496  0.0359
13085TIP3    H260747   4.785   5.986   5.503 -1.1347  0.6367  0.1289
13086TIP3   OH260748   6.776   0.783  16.178 -0.8556  0.1805 -0.1010
13086TIP3    H160749   6.859   0.830  16.185 -0.3977 -0.6450  0.1338
13086TIP3    H260750   6.799   0.700  16.137 -1.4292 -0.3793  0.6728
13087TIP3   OH260751   0.816   1.375  16.323 -0.4018  0.1181 -0.5386
13087TIP3    H160752   0.866   1.419  16.392 -1.2694  2.6869 -1.4450
13087TIP3    H260753   0.878   1.364  16.251 -0.8035  2.3628 -1.2828
13088TIP3   OH260754   1.067   3.659  17.157  0.4274 -0.2538 -0.2049
13088TIP3    H160755   1.062   3.639  17.064  1.9910 -1.6423 -0.0400
13088TIP3    H260756   1.120   3.738  17.162  1.6370 -1.0111 -0.4664
13089TIP3   OH260757   3.397   0.804  10.989  0.2622 -0.7373 -0.2470
13089TIP3    H160758   3.334   0.741  11.022 -0.9249  0.6937  0.3393
13089TIP3    H260759   3.361   0.832  10.904  1.0460 -1.1965 -0.7506
13090TIP3   OH260760   6.693   5.033  10.749  0.1349  0.1720  0.7790
13090TIP3    H160761   6.598   5.043  10.754  0.3878  3.0677  1.4059
13090TIP3    H260762   6.727   5.120  10.769  2.9726 -1.0233  1.5439
13091TIP3   OH260763   0.879   5.437  16.756  0.6156 -0.0809 -0.6426
13091TIP3    H160764   0.844   5.352  16.782 -0.9531  0.1220 -1.9307
13091TIP3    H260765   0.822   5.500  16.801  0.9488  0.2792 -0.7242
13092TIP3   OH260766   4.373   4.108  16.252 -0.2783 -0.7492  0.2787
13092TIP3    H160767   4.393   4.034  16.309  0.0589 -0.7876  0.1130
13092TIP3    H260768   4.390   4.185  16.305 -1.0273 -0.7833  0.5888
13093TIP3   OH260769   2.233   1.888  15.639  0.1852  0.4641 -0.2195
13093TIP3    H160770   2.261   1.943  15.712  1.0876 -0.4162  0.1130
13093TIP3    H260771   2.304   1.895  15.575  0.7605 -1.0357  0.2250
13094TIP3   OH260772   1.074   1.202  12.279 -0.0227  0.5296  0.3168
13094TIP3    H160773   1.163   1.225  12.253 -0.0518  0.4201  0.1180
13094TIP3    H260774   1.018   1.249  12.217 -0.0628 -1.0442 -0.9077
13095TIP3   OH260775   1.767   6.822   1.480 -0.3951  0.1799 -0.2980
13095TIP3    H160776   1.679   6.811   1.516  0.0159  1.3019  1.1384
13095TIP3    H260777   1.752   6.846   1.389 -1.5374 -0.4003 -0.2925
13096TIP3   OH260778   2.350   4.570   3.581 -0.2574  0.4878 -0.1263
13096TIP3    H160779   2.315   4.482   3.592  2.0927 -0.5930 -0.6415
13096TIP3    H260780   2.377   4.574   3.490 -0.2082  1.6883 -0.0729
13097TIP3   OH260781   1.844   4.316   0.612 -0.4097  0.3825 -0.4881
13097TIP3    H160782   1.875   4.403   0.637 -2.3167  1.0770 -0.3562
13097TIP3    H260783   1.869   4.308   0.520  1.7406  0.1088  0.0657
13098TIP3   OH260784   6.069   2.885  11.613  0.0513 -0.4059  0.5450
13098TIP3    H160785   6.087   2.797  11.645 -2.1073 -1.0979  0.0204
13098TIP3    H260786   6.125   2.895  11.536 -0.3646 -1.6926  0.0630
13099TIP3   OH260787   2.281   5.194  14.791  0.1288 -0.2350 -0.2283
13099TIP3    H160788   2.208   5.225  14.845 -0.5777 -3.9612  1.2654
13099TIP3    H260789   2.247   5.196  14.701 -1.1055 -0.0316  0.2211
13100TIP3   OH260790   5.644   3.185   2.244 -0.3240  0.2700  0.5057
13100TIP3    H160791   5.713   3.118   2.248 -0.3050  0.0822 -1.5850
13100TIP3    H260792   5.656   3.236   2.324 -0.1127 -1.9720  1.9980
13101TIP3   OH260793   5.520   1.124   5.582  0.1969  0.1083  0.2673
13101TIP3    H160794   5.476   1.051   5.537  2.3225 -0.7807 -0.5191
13101TIP3    H260795   5.508   1.106   5.675 -2.5780  0.8983  0.1449
13102TIP3   OH260796   5.100   3.816  15.934  0.1885  0.1770  0.0186
13102TIP3    H160797   5.131   3.756  15.866 -1.7410  0.6057 -1.3219
13102TIP3    H260798   5.119   3.770  16.016 -0.9926 -2.1880 -0.9344
13103TIP3   OH260799   1.455   2.191   2.145  0.3866 -0.2429 -0.1598
13103TIP3    H160800   1.396   2.148   2.207 -0.0397  0.1469 -0.2909
13103TIP3    H260801   1.496   2.262   2.195  0.6964 -0.4707 -0.0872
13104TIP3   OH260802   5.677   4.985   4.745  0.5837 -0.0625  0.1747
13104TIP3    H160803   5.734   5.057   4.770  2.0190 -1.0022 -0.2533
13104TIP3    H260804   5.667   4.934   4.825  2.3720 -1.1972 -0.2549
13105TIP3   OH260805   5.974   1.983  15.835  0.0476 -0.5983 -0.2191
13105TIP3    H160806   5.965   1.942  15.749 -1.1980  0.0064 -0.3922
13105TIP3    H260807   6.068   2.001  15.842  0.3451 -1.7624 -0.9203
13106TIP3   OH260808   4.584   3.888   6.347 -0.1968 -0.1128  0.3227
13106TIP3    H160809   4.509   3.896   6.406  0.0121 -0.2737  0.6095
13106TIP3    H260810   4.606   3.795   6.348 -0.5981 -0.2279 -0.5141
13107TIP3   OH260811   1.265   6.643   1.507  0.3170  0.1286 -0.4534
13107TIP3    H160812   1.183   6.687   1.484 -0.3467 -1.0718 -0.4275
13107TIP3    H260813   1.294   6.602   1.425  0.5678  0.0366 -0.3182
13108TIP3   OH260814   3.244   4.143  11.679  0.4383  0.8222  0.5663
13108TIP3    H160815   3.286   4.190  11.607  0.1969  0.6782  0.3329
13108TIP3    H260816   3.302   4.159  11.754  0.2161  1.7049  0.5532
13109TIP3   OH260817   5.192   4.777  11.504  0.8744 -0.3445 -0.1787
13109TIP3    H160818   5.112   4.763  11.554  0.8967 -0.5073 -0.1898
13109TIP3    H260819   5.162   4.816  11.421  0.7607 -0.8777 -0.3906
13110TIP3   OH260820   6.618   0.002  16.099  0.0747 -0.1360  0.7239
13110TIP3    H160821   6.669   0.023  16.177  1.0393 -0.3940  0.1832
13110TIP3    H260822   6.533   0.041  16.115  0.2027 -0.3367  1.9743
13111TIP3   OH260823   5.350   6.157   4.612  0.2589  0.0016 -0.2558
13111TIP3    H160824   5.256   6.171   4.597  0.3027  0.7030  0.0968
13111TIP3    H260825   5.361   6.062   4.605 -0.4274 -0.0632 -0.5776
13112TIP3   OH260826   4.287   1.184  12.913 -0.5777 -0.2518  0.6319
13112TIP3    H160827   4.231   1.212  12.986 -0.2039  3.3417 -0.2624
13112TIP3    H260828   4.370   1.230  12.927 -0.0532 -0.4888 -1.3607
13113TIP3   OH260829   3.547   2.818   0.660 -0.3914  0.2053 -0.7032
13113TIP3    H160830   3.466   2.835   0.708 -1.0539 -2.2466 -0.8270
13113TIP3    H260831   3.615   2.859   0.714 -1.3764 -0.3809  1.0668
13114TIP3   OH260832   6.768   3.752   1.736  0.5709  0.1347  0.2098
13114TIP3    H160833   6.694   3.702   1.770  0.2399  0.1329 -0.4873
13114TIP3    H260834   6.770   3.833   1.788 -0.5536  0.5901 -0.4329
13115TIP3   OH260835   1.525   2.871   5.250  0.8764  0.2932 -0.1940
13115TIP3    H160836   1.617   2.870   5.226  0.7866 -0.5225 -0.5084
13115TIP3    H260837   1.525   2.901   5.342  1.2853  2.3921 -0.8148
13116TIP3   OH260838   5.391   5.466  17.082 -0.0158 -0.1940  0.3703
13116TIP3    H160839   5.406   5.554  17.047  0.0960 -0.5005 -0.3654
13116TIP3    H260840   5.478   5.437  17.109 -0.3679  0.8370  2.8842
13117TIP3   OH260841   3.780   0.617   5.178 -0.4735 -0.6472 -0.0589
13117TIP3    H160842   3.829   0.565   5.242  1.0727 -1.0793 -1.5210
13117TIP3    H260843   3.752   0.553   5.112 -0.8877 -0.0194 -0.5036
13118TIP3   OH260844   2.012   0.721   3.355  0.3094 -0.7204  0.1231
13118TIP3    H160845   1.975   0.766   3.431  1.3224  1.9419 -0.8611
13118TIP3    H260846   2.102   0.700   3.381 -0.5468 -3.7041  1.1055
13119TIP3   OH260847   5.771   3.630  12.326 -0.0546  0.0509 -0.2223
13119TIP3    H160848   5.694   3.585  12.363 -0.5894  1.2458  0.1629
13119TIP3    H260849   5.799   3.689  12.396  0.0219  1.0428 -1.0781
13120TIP3   OH260850   4.628   2.217   2.679 -0.1529 -0.2589 -0.1326
13120TIP3    H160851   4.674   2.201   2.597 -0.1717 -0.1901 -0.1568
13120TIP3    H260852   4.542   2.175   2.667  0.8154 -2.6820  0.8842
13121TIP3   OH260853   0.830   4.462   1.516  0.2686 -0.2465 -0.0696
13121TIP3    H160854   0.890   4.398   1.553 -1.4729 -0.6091  2.3932
13121TIP3    H260855   0.763   4.410   1.471  1.3963  0.1284 -2.3011
13122TIP3   OH260856   2.069   4.566   6.478 -0.2297  0.8974 -0.2886
13122TIP3    H160857   2.049   4.508   6.551 -0.6557  1.7646  0.3036
13122TIP3    H260858   2.034   4.651   6.505  0.3793  1.4302 -1.1323
13123TIP3   OH260859   0.846   5.330  12.724 -0.3210 -0.1736 -0.9379
13123TIP3    H160860   0.898   5.398  12.682  0.3719 -0.2400 -0.2195
13123TIP3    H260861   0.755   5.358  12.713 -0.0330  1.1294 -0.2178
13124TIP3   OH260862   4.735   1.960  12.276  0.0973 -0.0638 -0.5356
13124TIP3    H160863   4.672   1.904  12.321  1.7928 -1.5554  0.0925
13124TIP3    H260864   4.690   2.044  12.267 -1.7346 -0.8809  0.4160
13125TIP3   OH260865   1.455   5.751   3.003 -0.1212  0.2830 -0.3549
13125TIP3    H160866   1.425   5.664   3.030  0.6347  0.1115 -0.0412
13125TIP3    H260867   1.427   5.758   2.911  0.3797 -0.5562 -0.5859
13126TIP3   OH260868   0.597   1.940   0.815  0.1347 -0.0815 -0.2962
13126TIP3    H160869   0.531   1.981   0.872  0.4826 -2.6270  2.1444
13126TIP3    H260870   0.548   1.875   0.765  0.5498 -1.0393  0.5268
13127TIP3   OH260871   4.841   4.257   5.286  0.3248 -0.2159  0.4666
13127TIP3    H160872   4.768   4.305   5.326  1.2032  1.1194  0.5675
13127TIP3    H260873   4.829   4.269   5.192  1.0202  1.0154  0.5109
13128TIP3   OH260874   1.892   4.295   5.965  0.1681  0.0852  0.3451
13128TIP3    H160875   1.844   4.335   6.038 -1.0957  1.1716 -0.9964
13128TIP3    H260876   1.974   4.265   6.003 -0.0333  1.4949  2.0129
13129TIP3   OH260877   0.821   0.201   5.941 -0.1454  0.8704 -0.1281
13129TIP3    H160878   0.803   0.154   5.860  1.0963  1.9239 -1.0543
13129TIP3    H260879   0.795   0.292   5.923  0.4155  1.1808  0.5488
13130TIP3   OH260880   0.736   6.359  14.945 -0.0172  0.3899 -0.2645
13130TIP3    H160881   0.775   6.323  14.865 -0.2617 -0.7174  0.0866
13130TIP3    H260882   0.750   6.290  15.010  3.2966  2.5845  1.6414
13131TIP3   OH260883   2.027   3.236  11.143  0.0647 -0.7987  0.7654
13131TIP3    H160884   1.944   3.278  11.120  0.0472 -1.2374  0.0122
13131TIP3    H260885   2.011   3.143  11.135  0.3536 -0.9350  1.6002
13132TIP3   OH260886   5.201   1.956  13.139 -0.5286 -0.2121 -0.1633
13132TIP3    H160887   5.132   1.891  13.145  1.7794 -2.8346 -0.0008
13132TIP3    H260888   5.213   1.971  13.045 -1.9528  1.1040 -0.1781
13133TIP3   OH260889   5.311   4.249   3.555  0.2605 -0.2490  0.0341
13133TIP3    H160890   5.382   4.191   3.527 -0.8680 -1.0421 -1.3634
13133TIP3    H260891   5.285   4.295   3.475 -2.3134 -1.6985 -0.0973
13134TIP3   OH260892   0.468   3.891   5.858  0.3001 -0.1580 -0.3774
13134TIP3    H160893   0.488   3.799   5.841 -1.3934 -0.8280  1.0214
13134TIP3    H260894   0.489   3.904   5.950 -0.6688  0.5106 -0.2393
13135TIP3   OH260895   6.120   1.916  13.078  0.2704  0.2182 -0.2647
13135TIP3    H160896   6.142   1.824  13.091  2.0406  0.4728 -1.1769
13135TIP3    H260897   6.178   1.945  13.008  0.9717  2.4683  1.1417
13136TIP3   OH260898   4.720   4.596   4.814  0.4766 -0.3476  0.8414
13136TIP3    H160899   4.813   4.589   4.793  0.4490 -0.7513  0.8509
13136TIP3    H260900   4.675   4.572   4.733  0.3792  0.2743  0.7058
13137TIP3   OH260901   2.728   2.321  12.537 -0.7584 -0.1941 -0.4277
13137TIP3    H160902   2.684   2.385  12.481  2.0272  2.7713  0.4250
13137TIP3    H260903   2.763   2.256  12.476 -2.1724  0.0500 -1.5436
13138TIP3   OH260904   3.259   2.266  11.751 -0.1825 -0.1430 -0.1483
13138TIP3    H160905   3.189   2.326  11.723 -0.6345  0.6097  2.3519
13138TIP3    H260906   3.335   2.323  11.765 -0.8824  0.1852  3.2128
13139TIP3   OH260907   5.071   3.653   5.537  0.3811 -0.5362  0.5103
13139TIP3    H160908   5.114   3.694   5.462 -1.2225 -0.3321 -0.3554
13139TIP3    H260909   5.021   3.725   5.577  1.4670 -0.5762  1.9768
13140TIP3   OH260910   2.508   2.450  10.953 -0.4947 -0.1151  0.6622
13140TIP3    H160911   2.415   2.450  10.929 -0.8206 -1.9012  1.7303
13140TIP3    H260912   2.544   2.374  10.906  0.3554  0.3414  0.5593
13141TIP3   OH260913   5.471   3.285  14.990 -0.1686 -0.0659  0.3327
13141TIP3    H160914   5.562   3.295  14.965 -0.6500  1.8575 -0.8338
13141TIP3    H260915   5.427   3.260  14.908 -0.7937 -0.3063  0.7364
13142TIP3   OH260916   2.237   4.413  17.222  0.1261 -0.0160 -0.1345
13142TIP3    H160917   2.292   4.360  17.165  0.0606 -2.6622  2.0868
13142TIP3    H260918   2.171   4.353  17.255 -0.9317  1.8435  1.3605
13143TIP3   OH260919   3.632   4.132  11.048  0.4027  0.4211 -0.2873
13143TIP3    H160920   3.625   4.046  11.008  1.0188 -0.5407  1.5787
13143TIP3    H260921   3.642   4.192  10.974 -1.9716 -0.8308 -1.7488
13144TIP3   OH260922   5.772   4.846  16.197  0.2105  0.3035  0.3649
13144TIP3    H160923   5.799   4.862  16.107 -0.2382 -0.0124  0.1680
13144TIP3    H260924   5.740   4.755  16.197 -0.0188  0.3783  0.7814
13145TIP3   OH260925   1.935   5.301  12.829  0.7793 -0.3259  0.1292
13145TIP3    H160926   1.947   5.243  12.904 -0.3295 -0.1342  0.4707
13145TIP3    H260927   1.899   5.245  12.761 -0.7188 -0.0009  0.5988
13146TIP3   OH260928   2.799   6.212   3.346  0.5694 -0.1867 -0.0819
13146TIP3    H160929   2.766   6.144   3.404  1.9125  0.3135  1.3373
13146TIP3    H260930   2.720   6.258   3.315 -0.2367 -1.2449  0.3445
13147TIP3   OH260931   1.028   2.553   6.235  0.0551 -0.6388  0.2866
13147TIP3    H160932   1.081   2.628   6.207  1.4280 -0.4642  2.9874
13147TIP3    H260933   1.051   2.483   6.174  2.3098 -0.1269  0.4638
13148TIP3   OH260934   6.350   3.364  15.270 -0.8391  1.2480 -0.0321
13148TIP3    H160935   6.271   3.379  15.217 -1.2302  0.2142  0.2141
13148TIP3    H260936   6.347   3.431  15.338 -1.1934  1.5903 -0.3823
13149TIP3   OH260937   5.215   5.351   3.893  0.1652 -0.2089 -0.3379
13149TIP3    H160938   5.188   5.277   3.947  1.2130  0.7389  1.6013
13149TIP3    H260939   5.310   5.344   3.887  0.3256  1.1753  0.2156
13150TIP3   OH260940   2.635   6.341  16.171  0.2196 -0.0997  0.6289
13150TIP3    H160941   2.556   6.395  16.172  0.1417 -0.1507 -0.5972
13150TIP3    H260942   2.676   6.361  16.087 -0.1901 -2.4575 -0.2103
13151TIP3   OH260943   6.505   0.827  16.059 -0.3052  0.5787  0.8739
13151TIP3    H160944   6.515   0.833  15.964  1.7107 -0.7328  0.9319
13151TIP3    H260945   6.595   0.819  16.091 -1.0206 -0.1728  2.7916
13152TIP3   OH260946   4.750   6.490  14.409  0.8410  0.0791 -0.4761
13152TIP3    H160947   4.721   6.423  14.470 -1.5594  0.8348 -0.6612
13152TIP3    H260948   4.767   6.567  14.464 -1.4350  0.7957 -0.6438
13153TIP3   OH260949   3.046   6.292  12.849  0.6887  0.9225 -0.0832
13153TIP3    H160950   3.007   6.343  12.777 -0.1124  0.0702 -0.2790
13153TIP3    H260951   2.989   6.310  12.924  0.1433  0.0015 -0.2617
13154TIP3   OH260952   0.348   5.983  15.647  0.1910 -0.1163  0.7947
13154TIP3    H160953   0.310   5.992  15.560  0.3213 -0.6177  0.6866
13154TIP3    H260954   0.299   5.911  15.688  1.1690 -0.9231  0.5733
13155TIP3   OH260955   4.023   5.365   4.927  0.2366  0.1084  0.5520
13155TIP3    H160956   3.962   5.415   4.982 -0.3101 -0.8452  0.8323
13155TIP3    H260957   4.050   5.292   4.981 -0.2806 -0.8296 -0.4111
13156TIP3   OH260958   2.639   6.386  13.843 -0.0248 -0.1145  0.2872
13156TIP3    H160959   2.597   6.409  13.760 -0.2118 -0.3065  0.3291
13156TIP3    H260960   2.731   6.412  13.832  0.1182 -0.8362 -0.2534
13157TIP3   OH260961   0.679   0.118   1.517  0.2786  0.1837 -0.2893
13157TIP3    H160962   0.649   0.029   1.539  0.7248  0.6478  2.6901
13157TIP3    H260963   0.769   0.106   1.488 -0.0096 -0.4089 -0.9895
13158TIP3   OH260964   4.476   0.662   5.245 -0.2792  0.2726  0.2023
13158TIP3    H160965   4.502   0.662   5.337 -1.8265 -1.3016  0.7007
13158TIP3    H260966   4.459   0.569   5.225 -0.8737  0.6958 -1.3943
13159TIP3   OH260967   2.975   6.278  13.513 -0.2206  0.2218 -0.5151
13159TIP3    H160968   3.011   6.332  13.583  1.0106 -0.4342 -0.6088
13159TIP3    H260969   2.963   6.338  13.440  1.6540  0.3223 -0.7951
13160TIP3   OH260970   6.070   1.526  12.779  0.4645 -0.3900  0.1327
13160TIP3    H160971   6.164   1.546  12.777  0.1368  1.3723 -2.4481
13160TIP3    H260972   6.047   1.512  12.687 -1.4435 -2.9175  0.9073
13161TIP3   OH260973   2.246   5.515   3.145  0.4830 -0.4310  0.1854
13161TIP3    H160974   2.222   5.581   3.080  0.5965  0.2996  0.8714
13161TIP3    H260975   2.289   5.446   3.095 -0.3871 -0.3705 -0.6518
13162TIP3   OH260976   5.517   2.004  13.661  0.2573  0.3066  0.3853
13162TIP3    H160977   5.443   2.033  13.608  0.7532  0.1723 -0.3954
13162TIP3    H260978   5.567   1.946  13.604  0.5985 -0.1611  1.1296
13163TIP3   OH260979   5.407   5.972  17.205 -0.0438 -0.5137 -0.6156
13163TIP3    H160980   5.411   6.060  17.168  1.3145  0.3190  1.2966
13163TIP3    H260981   5.421   5.913  17.131  1.2237  0.9931 -1.6241
13164TIP3   OH260982   4.949   6.192  10.931  0.7559 -0.6983 -0.0611
13164TIP3    H160983   5.014   6.142  10.979  0.9182 -0.2119  0.2331
13164TIP3    H260984   4.995   6.222  10.852  1.3989  0.9764  0.8899
13165TIP3   OH260985   1.218   2.334   0.592  0.1398  0.0067  0.0123
13165TIP3    H160986   1.296   2.329   0.536  0.1086  0.2866 -0.0587
13165TIP3    H260987   1.193   2.427   0.589 -0.9502 -0.3126 -0.9777
13166TIP3   OH260988   3.540   3.375  14.967  0.1366  0.1516 -0.0132
13166TIP3    H160989   3.554   3.442  14.900 -0.5283  0.5380  0.2228
13166TIP3    H260990   3.457   3.399  15.009  1.1591  0.6853  1.8378
13167TIP3   OH260991   4.009   2.438  14.896  0.7145 -0.1913  0.3329
13167TIP3    H160992   3.930   2.421  14.946  0.9258 -0.6129  0.5248
13167TIP3    H260993   4.074   2.464  14.962  0.8455 -0.2230  0.2176
13168TIP3   OH260994   0.974   5.463   5.099  0.1092 -0.3789 -0.1597
13168TIP3    H160995   0.879   5.469   5.085  0.2904  0.2064 -1.2567
13168TIP3    H260996   0.985   5.386   5.154 -1.1485  0.5308  1.4571
13169TIP3   OH260997   4.288   2.869   1.181  0.0047 -0.2002  0.1459
13169TIP3    H160998   4.290   2.964   1.196  2.4479 -0.0611 -0.6091
13169TIP3    H260999   4.201   2.852   1.146 -0.4310  1.8057  0.1271
13170TIP3   OH261000   1.347   1.823   3.087  0.1482  0.1904  0.9047
13170TIP3    H161001   1.396   1.875   3.023  0.1280 -0.8378  0.0365
13170TIP3    H261002   1.372   1.860   3.172  1.5058  0.4529  0.4122
13171TIP3   OH261003   5.014   3.557  12.392  0.5376 -0.1861  0.9061
13171TIP3    H161004   4.927   3.585  12.422 -0.1019 -2.1296  0.9965
13171TIP3    H261005   5.069   3.634  12.403 -1.5799  1.7639 -0.9785
13172TIP3   OH261006   0.837   6.621  16.340 -0.5519 -0.1796  0.2059
13172TIP3    H161007   0.835   6.530  16.369  0.8470  0.3234  2.0893
13172TIP3    H261008   0.745   6.649  16.342 -0.9061 -1.3136  0.3753
13173TIP3   OH261009   3.543   6.497  11.931 -0.9748 -0.0017 -0.7605
13173TIP3    H161010   3.556   6.591  11.940  0.3630 -0.2948  0.9101
13173TIP3    H261011   3.482   6.474  12.002 -0.1250 -0.5940 -0.2057
13174TIP3   OH261012   2.826   3.384  11.103 -0.1360 -0.0328 -0.1369
13174TIP3    H161013   2.834   3.466  11.056  0.0385  1.9356  3.0464
13174TIP3    H261014   2.857   3.403  11.192  0.1320 -3.6083  0.7140
13175TIP3   OH261015   2.671   0.258   4.033 -0.2375 -0.2867 -0.1553
13175TIP3    H161016   2.750   0.300   3.998  0.7089 -0.4241  1.7229
13175TIP3    H261017   2.607   0.329   4.040  0.8741  0.5808  1.6103
13176TIP3   OH261018   0.925   6.524   5.284  0.2983  0.4405  0.8159
13176TIP3    H161019   0.890   6.499   5.198 -0.2297  1.1290  0.8149
13176TIP3    H261020   0.974   6.605   5.266  0.5774  0.3278  1.0807
13177TIP3   OH261021   4.184   0.213   2.499  0.2908 -0.2588  0.1722
13177TIP3    H161022   4.209   0.299   2.464 -2.1377  0.6359  0.3998
13177TIP3    H261023   4.200   0.153   2.427 -0.9238  0.9441 -1.1924
13178TIP3   OH261024   4.589   1.459   4.946 -0.4687 -0.1309  0.3772
13178TIP3    H161025   4.639   1.459   4.864 -0.4014 -0.1863  0.4176
13178TIP3    H261026   4.557   1.548   4.955  0.4170  0.1600  0.8274
13179TIP3   OH261027   1.142   2.323   2.480 -0.3183 -0.3500 -0.4034
13179TIP3    H161028   1.185   2.391   2.533  0.6129  1.1346 -2.8787
13179TIP3    H261029   1.054   2.317   2.517  0.5493 -0.1645  1.9111
13180TIP3   OH261030   1.418   0.484   0.251 -0.1715 -0.1215 -0.0468
13180TIP3    H161031   1.455   0.400   0.223 -0.4348 -0.1007 -0.4485
13180TIP3    H261032   1.325   0.477   0.231 -0.2254  0.1972  0.0950
13181TIP3   OH261033   1.211   6.666  15.633 -0.0254 -0.1508 -0.8559
13181TIP3    H161034   1.197   6.599  15.700  0.8203 -0.5550 -1.0831
13181TIP3    H261035   1.140   6.729  15.649  0.1270 -0.2582  0.3938
13182TIP3   OH261036   4.651   3.384  15.490 -0.1409  0.4162 -0.3811
13182TIP3    H161037   4.712   3.317  15.459 -0.0595  0.2721  0.0729
13182TIP3    H261038   4.639   3.363  15.583  1.5248  2.2730  0.3166
13183TIP3   OH261039   3.140   1.950   2.373  0.6295 -0.5284  0.3165
13183TIP3    H161040   3.236   1.959   2.369  0.4072  2.0685 -1.4818
13183TIP3    H261041   3.122   1.870   2.324  1.8061 -0.1865 -0.7295
13184TIP3   OH261042   6.369   5.447  13.518  0.2351 -0.2589  0.4422
13184TIP3    H161043   6.403   5.487  13.598  2.0550 -0.7991 -0.0099
13184TIP3    H261044   6.317   5.373  13.549  1.7467 -1.0746  1.1251
13185TIP3   OH261045   1.702   0.060   1.912  0.5870 -0.4003  0.1712
13185TIP3    H161046   1.700  -0.025   1.956 -1.6905  0.0424  1.0934
13185TIP3    H261047   1.647   0.047   1.835 -0.3766  0.3874  0.7022
13186TIP3   OH261048   3.440   0.396   3.018  1.0518  0.5366 -0.4144
13186TIP3    H161049   3.446   0.487   3.049  0.2200  0.7730 -0.9052
13186TIP3    H261050   3.394   0.403   2.934 -1.4519 -0.5455  0.7598
13187TIP3   OH261051   2.497   3.112   5.205 -0.2378  0.0381 -0.8960
13187TIP3    H161052   2.474   3.139   5.115 -1.5262 -0.0063 -0.6098
13187TIP3    H261053   2.414   3.080   5.241  0.1521  0.5292  0.4843
13188TIP3   OH261054   5.616   4.394   0.301 -0.2874 -0.4958 -0.5046
13188TIP3    H161055   5.680   4.374   0.233 -0.5900 -0.9735 -0.6544
13188TIP3    H261056   5.590   4.484   0.284  0.3338 -0.3054 -0.4509
13189TIP3   OH261057   0.568   3.005  15.252 -0.6137 -0.1276  0.0256
13189TIP3    H161058   0.587   3.097  15.235  2.8927 -0.6678  0.2447
13189TIP3    H261059   0.538   3.004  15.343  3.1149  0.5770  1.4430
13190TIP3   OH261060   0.992   1.051   2.190  0.6555 -0.2927 -0.1942
13190TIP3    H161061   1.022   1.089   2.272  1.6269  0.7552 -0.9918
13190TIP3    H261062   0.930   1.115   2.156  1.5953  0.1733 -1.1027
13191TIP3   OH261063   4.943   2.008  13.779  0.4821 -0.2360  0.0993
13191TIP3    H161064   5.035   2.033  13.773  0.6222 -0.4579  1.0631
13191TIP3    H261065   4.929   1.992  13.873 -0.1034 -1.8182 -0.2222
13192TIP3   OH261066   6.584   2.504  11.689 -0.2644  0.4272  0.0729
13192TIP3    H161067   6.675   2.481  11.709  0.1752  1.0704 -1.0835
13192TIP3    H261068   6.549   2.537  11.771  0.6263  0.4133  0.4705
13193TIP3   OH261069   4.971   6.635   2.104  0.5017 -0.0489  0.3688
13193TIP3    H161070   4.894   6.643   2.160 -0.6731  1.4153 -1.3332
13193TIP3    H261071   4.994   6.725   2.081 -1.1366 -0.4897 -4.0062
13194TIP3   OH261072   5.872   3.946  11.402  0.0224 -0.2646  0.2745
13194TIP3    H161073   5.916   4.021  11.442 -0.3185  0.4129 -0.5750
13194TIP3    H261074   5.809   3.917  11.468  0.5946 -0.2083  0.8584
13195TIP3   OH261075   5.575   4.170   0.452 -0.2183 -0.4813  0.3684
13195TIP3    H161076   5.517   4.116   0.398 -1.3057  0.3159  0.7045
13195TIP3    H261077   5.587   4.250   0.400 -0.8809  0.0898  1.0807
13196TIP3   OH261078   2.495   1.724  16.583 -0.3550 -0.4422  0.0675
13196TIP3    H161079   2.401   1.742  16.588  0.0463  2.6241 -0.7878
13196TIP3    H261080   2.512   1.709  16.490  0.1343  0.1038  0.0598
13197TIP3   OH261081   5.844   1.937  13.198  0.2832  0.3419  0.1563
13197TIP3    H161082   5.794   1.869  13.242 -0.1999  1.0146  0.6747
13197TIP3    H261083   5.934   1.925  13.228  0.2471 -0.2087  0.0547
13198TIP3   OH261084   2.393   1.185  13.817 -0.8736  0.7356 -0.1065
13198TIP3    H161085   2.445   1.185  13.897 -0.8713 -1.6497 -0.0312
13198TIP3    H261086   2.440   1.244  13.758  0.4093  0.7375  0.8676
13199TIP3   OH261087   0.367   2.353   1.945 -0.4916 -0.2887  0.2951
13199TIP3    H161088   0.379   2.415   2.017  1.6223 -0.9592  0.6114
13199TIP3    H261089   0.282   2.374   1.908  0.1940  2.9024  0.2690
13200TIP3   OH261090   4.901   6.350  11.995  0.1941  0.2968  0.4076
13200TIP3    H161091   4.891   6.415  12.065 -0.6891 -0.0471  0.6122
13200TIP3    H261092   4.915   6.267  12.042  2.1440  0.4251  0.1511
13201TIP3   OH261093   1.596   2.194   1.911  0.5841 -0.0186  0.1757
13201TIP3    H161094   1.562   2.106   1.893  0.4734 -0.2245  1.2978
13201TIP3    H261095   1.549   2.222   1.989  2.6902 -0.1915  1.6129
13202TIP3   OH261096   5.010   6.789  12.867 -0.6180 -0.2190 -0.4064
13202TIP3    H161097   4.921   6.762  12.888 -0.5972 -0.1280 -0.1944
13202TIP3    H261098   5.065   6.717  12.898 -0.4410  0.6792  1.5308
13203TIP3   OH261099   4.902   4.273  12.258  0.4216  0.4760 -1.1756
13203TIP3    H161100   4.819   4.251  12.216 -0.3578  2.0904 -0.5870
13203TIP3    H261101   4.941   4.189  12.281 -0.9700 -0.3204 -1.6150
13204TIP3   OH261102   2.920   6.205   4.280  0.0660 -0.1521 -0.4379
13204TIP3    H161103   2.990   6.139   4.272  1.6663  1.2750  1.0662
13204TIP3    H261104   2.840   6.153   4.286  1.1118 -1.9111 -0.8501
13205TIP3   OH261105   0.035   6.369   4.876  0.1394  0.5725  0.3444
13205TIP3    H161106  -0.012   6.316   4.940 -0.6100  1.4602  0.5486
13205TIP3    H261107   0.123   6.381   4.914 -0.2000  0.8238  1.0674
13206TIP3   OH261108   2.833   5.529  11.722  0.8629 -1.0523 -0.1409
13206TIP3    H161109   2.817   5.449  11.674 -1.6721 -1.6855  1.5076
13206TIP3    H261110   2.890   5.581  11.666  1.6611 -3.5074 -1.7482
13207TIP3   OH261111   6.547   3.851   5.867 -0.0377 -0.5165 -0.4986
13207TIP3    H161112   6.590   3.889   5.791 -0.6957  0.7355 -0.2680
13207TIP3    H261113   6.609   3.862   5.938  0.1993 -0.8502 -0.6490
13208TIP3   OH261114   3.167   3.680  17.221 -0.0118 -0.7153 -0.1503
13208TIP3    H161115   3.119   3.700  17.301  1.5375  0.8717  0.4593
13208TIP3    H261116   3.259   3.679  17.248  0.4578 -1.4672 -1.6683
13209TIP3   OH261117   5.450   0.007  14.672 -0.4707 -0.0845  0.5337
13209TIP3    H161118   5.360   0.021  14.644 -0.1047 -0.6786 -1.0437
13209TIP3    H261119   5.465  -0.087  14.658 -0.0083 -0.2699  2.0576
13210TIP3   OH261120   4.178   6.334  13.349 -0.0899 -0.1534 -0.0122
13210TIP3    H161121   4.207   6.390  13.420  0.3718  0.2003 -0.4709
13210TIP3    H261122   4.083   6.348  13.344 -0.4265 -1.5267  1.6774
13211TIP3   OH261123   5.584   3.500  10.849 -0.1257 -0.7150 -0.5014
13211TIP3    H161124   5.579   3.504  10.945  1.0242  0.0373 -0.4593
13211TIP3    H261125   5.497   3.527  10.820 -0.5684 -1.2059  0.3330
13212TIP3   OH261126   3.492   2.063   4.063 -0.5430 -0.2279  0.2417
13212TIP3    H161127   3.544   2.114   4.001 -0.4212  1.3760  1.5871
13212TIP3    H261128   3.535   2.077   4.147 -1.7003 -0.9276  0.9767
13213TIP3   OH261129   1.547   6.707   1.010  0.2044 -1.0145  0.0879
13213TIP3    H161130   1.462   6.750   1.017  0.7825  0.2553 -0.4158
13213TIP3    H261131   1.599   6.745   1.081  0.8021 -0.6676 -0.5271
13214TIP3   OH261132   3.058   4.533  13.111 -0.2359  0.3450  0.0010
13214TIP3    H161133   3.073   4.627  13.114  0.6337  0.2398 -0.7903
13214TIP3    H261134   2.963   4.524  13.106 -0.2992  1.1924 -0.4248
13215TIP3   OH261135   0.564   6.275  10.572  0.0461  0.1922 -0.2878
13215TIP3    H161136   0.643   6.239  10.611  0.1948 -0.1296 -0.8587
13215TIP3    H261137   0.507   6.297  10.646  0.5632  0.1813  0.1123
13216TIP3   OH261138   6.678   2.697  16.864  0.4871  0.3124  0.8051
13216TIP3    H161139   6.689   2.612  16.906 -0.9570 -1.5137 -2.1383
13216TIP3    H261140   6.765   2.719  16.830  1.1106  0.6365  2.5184
13217TIP3   OH261141   2.934   2.294  13.806  0.3966  0.3306 -0.6994
13217TIP3    H161142   2.868   2.304  13.873  1.4146  1.0468  0.2303
13217TIP3    H261143   2.932   2.376  13.757 -2.0574 -1.0643 -3.2511
13218TIP3   OH261144   0.091   5.874   3.726  0.1795 -0.4247  0.7315
13218TIP3    H161145   0.155   5.832   3.783  0.8655  1.7229  1.6420
13218TIP3    H261146   0.095   5.967   3.749 -1.7286  0.0873 -0.7064
13219TIP3   OH261147   0.622   4.849  11.046  0.1263  0.3064 -0.1021
13219TIP3    H161148   0.666   4.922  11.090 -1.7763  0.9982  0.7425
13219TIP3    H261149   0.644   4.772  11.099  1.7053  0.3110 -0.6969
13220TIP3   OH261150   2.791   4.565  10.914 -0.3463 -0.2236  0.5536
13220TIP3    H161151   2.794   4.514  10.995  2.9988 -1.0915  0.0486
13220TIP3    H261152   2.722   4.523  10.862 -1.4061 -0.7012  2.2751
13221TIP3   OH261153   4.228   1.688   1.592  0.3647  0.3671  0.2352
13221TIP3    H161154   4.269   1.766   1.628  2.6711  0.6413 -2.6005
13221TIP3    H261155   4.157   1.721   1.537 -0.8813  0.1587  1.6393
13222TIP3   OH261156   2.258   4.932  15.243  0.0007  0.1900  0.4124
13222TIP3    H161157   2.253   5.023  15.274 -0.3648  0.5204 -0.5851
13222TIP3    H261158   2.316   4.935  15.167  0.5150 -0.5319  0.7603
13223TIP3   OH261159   2.450   5.675   2.707  0.3518 -0.3153  0.3111
13223TIP3    H161160   2.434   5.713   2.794 -2.2380 -2.8934  1.1194
13223TIP3    H261161   2.438   5.748   2.647 -1.4123  0.8431  1.9313
13224TIP3   OH261162   3.193   2.157  17.187  0.2480  0.4504 -0.0189
13224TIP3    H161163   3.198   2.248  17.158  3.3032 -0.2180 -2.0046
13224TIP3    H261164   3.235   2.107  17.118 -1.1583 -2.5274  1.0983
13225TIP3   OH261165   5.157   3.857   4.631  0.3614 -0.2794 -0.4221
13225TIP3    H161166   5.190   3.907   4.556  0.8120 -0.5642 -0.4207
13225TIP3    H261167   5.100   3.790   4.592  1.0631 -0.8026 -0.5682
13226TIP3   OH261168   5.352   6.429  13.853  0.2044 -0.0257 -0.3129
13226TIP3    H161169   5.331   6.520  13.875 -0.4855  0.0294 -1.1449
13226TIP3    H261170   5.270   6.382  13.865  1.0046 -0.9563  2.0590
13227TIP3   OH261171   1.962   1.260  16.213 -0.1172 -0.0997  0.2950
13227TIP3    H161172   1.993   1.196  16.277  1.8749  0.1848 -0.3290
13227TIP3    H261173   1.872   1.233  16.195 -0.3308 -0.9132  2.2602
13228TIP3   OH261174   5.641   3.551   1.787  0.2410 -0.3620  0.3251
13228TIP3    H161175   5.597   3.468   1.805 -0.5675  0.2297  1.1509
13228TIP3    H261176   5.728   3.541   1.824 -0.0348 -0.6519  0.9029
13229TIP3   OH261177   3.987   3.746   1.725 -1.0980 -0.2110 -1.1433
13229TIP3    H161178   4.030   3.687   1.663  0.5234 -1.4731  1.0476
13229TIP3    H261179   3.906   3.702   1.750 -2.1440  0.6515 -2.8295
13230TIP3   OH261180   2.807   3.310  13.937  0.5215 -0.5470  0.3829
13230TIP3    H161181   2.835   3.331  14.026 -0.0191  0.6043  0.2974
13230TIP3    H261182   2.711   3.313  13.941  0.5010 -0.0538 -0.3383
13231TIP3   OH261183   1.101   6.044  17.224  0.2176 -0.4416  0.3203
13231TIP3    H161184   1.017   6.067  17.184  0.3122  0.3599  0.5748
13231TIP3    H261185   1.121   5.957  17.189  0.5960  0.4761 -1.8686
13232TIP3   OH261186   5.498   6.134  15.951  0.1412  1.0836 -0.5185
13232TIP3    H161187   5.477   6.227  15.958  0.3391  1.5699 -4.3134
13232TIP3    H261188   5.414   6.091  15.940  0.1861  1.1916 -1.3680
13233TIP3   OH261189   3.641   2.490  11.378 -0.2675  0.1112 -0.7346
13233TIP3    H161190   3.610   2.401  11.395 -1.1899  0.7225  1.0105
13233TIP3    H261191   3.728   2.494  11.416  0.6549 -0.5901 -2.6160
13234TIP3   OH261192   2.405   1.623  15.024  0.0838  0.1276  0.5359
13234TIP3    H161193   2.412   1.665  15.110  0.5019  2.9860 -0.7721
13234TIP3    H261194   2.494   1.597  15.002  0.1625  0.4308  0.4944
13235TIP3   OH261195   5.959   4.399   2.173  0.8364 -0.3394  0.4153
13235TIP3    H161196   5.981   4.306   2.175  3.5944  0.2272  0.6174
13235TIP3    H261197   5.947   4.423   2.264  1.2111 -0.2856  0.4522
13236TIP3   OH261198   3.706   4.317   5.113 -0.6263 -0.4137  0.2961
13236TIP3    H161199   3.677   4.229   5.137  0.0895 -0.1472  2.3594
13236TIP3    H261200   3.635   4.375   5.143 -1.1648 -0.2681 -1.1875
13237TIP3   OH261201   1.022   1.599  12.339  0.6119 -0.4753  0.0464
13237TIP3    H161202   0.985   1.687  12.339  0.2984 -0.6048  0.2495
13237TIP3    H261203   1.109   1.609  12.300 -0.6349 -0.6238 -3.0486
13238TIP3   OH261204   1.436   4.795  15.501 -0.1387  0.0319 -0.1382
13238TIP3    H161205   1.389   4.730  15.552 -2.6660  1.4731 -0.4622
13238TIP3    H261206   1.488   4.843  15.565  2.2248 -2.5368  0.0337
13239TIP3   OH261207   2.002   4.553   0.733  0.3258  0.1736  0.0018
13239TIP3    H161208   2.086   4.544   0.687  0.7687  0.5069  0.7271
13239TIP3    H261209   2.024   4.541   0.825 -0.0124  2.4774  0.4454
13240TIP3   OH261210   2.782   2.532  15.888 -0.0677 -0.1211 -0.3914
13240TIP3    H161211   2.742   2.519  15.974 -1.0210 -0.8491 -0.9248
13240TIP3    H261212   2.713   2.511  15.826  1.2384 -1.7901 -1.3645
13241TIP3   OH261213   2.915   0.352   3.531 -0.5466  0.4641  0.2966
13241TIP3    H161214   2.904   0.355   3.436 -0.7395  0.7932  0.3251
13241TIP3    H261215   2.894   0.262   3.556  1.7479 -0.2681 -0.2362
13242TIP3   OH261216   5.492   4.197  11.097 -0.2951  0.1767  0.1121
13242TIP3    H161217   5.485   4.203  11.002  1.3190  0.1684 -0.0299
13242TIP3    H261218   5.446   4.274  11.130  0.8055  1.2292 -0.7656
13243TIP3   OH261219   3.731   5.209   3.211 -0.2476  0.6041 -0.1494
13243TIP3    H161220   3.659   5.168   3.259 -1.8511  2.4505 -0.8334
13243TIP3    H261221   3.772   5.267   3.274  1.1448 -0.9368  0.4313
13244TIP3   OH261222   4.502   1.277   4.284  0.8864 -0.1346 -0.3055
13244TIP3    H161223   4.457   1.237   4.358  0.2455  1.8978  0.4664
13244TIP3    H261224   4.594   1.257   4.297  0.7378 -0.1292  0.8459
13245TIP3   OH261225   6.359   2.975  15.502 -0.2688 -0.0871 -0.3724
13245TIP3    H161226   6.293   2.937  15.559 -0.4148 -0.5643 -0.8463
13245TIP3    H261227   6.354   3.069  15.518  0.0001 -0.2460  0.7185
13246TIP3   OH261228   1.651   2.231   0.768 -0.1638 -0.5047  0.2575
13246TIP3    H161229   1.557   2.214   0.761 -0.4717  1.1452  0.1350
13246TIP3    H261230   1.658   2.304   0.829  1.1295 -1.2648  1.0833
13247TIP3   OH261231   3.049   5.851   0.951  0.0163  0.0347 -0.2821
13247TIP3    H161232   3.012   5.797   0.882  0.4941  0.5031 -0.9075
13247TIP3    H261233   2.999   5.933   0.947  1.1856  0.7239 -1.2201
13248TIP3   OH261234   6.767   2.697  11.478 -0.1620  0.3573 -0.2181
13248TIP3    H161235   6.833   2.630  11.465 -0.5724  0.0273 -0.6170
13248TIP3    H261236   6.705   2.659  11.540  1.0762  1.4240  1.7959
13249TIP3   OH261237   6.507   4.540   3.393 -0.2247 -0.3515  1.1675
13249TIP3    H161238   6.537   4.605   3.330 -1.0284 -0.2520  0.8693
13249TIP3    H261239   6.553   4.460   3.369 -1.4428 -0.6429 -0.3750
13250TIP3   OH261240   5.032   5.416  11.451 -0.3924  0.0199  0.3622
13250TIP3    H161241   5.002   5.503  11.477  1.6390  0.5705  1.0938
13250TIP3    H261242   5.086   5.387  11.524  1.3477 -0.5844 -1.0800
13251TIP3   OH261243   6.769   6.267  11.953 -0.2279  0.6084 -0.0211
13251TIP3    H161244   6.774   6.173  11.968  0.7915  0.8650  1.4942
13251TIP3    H261245   6.741   6.304  12.038  0.5383  1.7428 -0.2294
13252TIP3   OH261246   2.375   5.026  17.003  0.3564  0.5890 -0.0448
13252TIP3    H161247   2.296   4.973  16.995  0.2718  0.1266  2.8212
13252TIP3    H261248   2.447   4.966  16.981  0.2719 -0.9539  3.2679
13253TIP3   OH261249   1.954   5.506   1.834 -0.5605 -0.3679  0.0859
13253TIP3    H161250   1.928   5.423   1.794 -0.3081 -1.0640  1.3223
13253TIP3    H261251   2.030   5.484   1.888 -1.5663  0.2804  1.8614
13254TIP3   OH261252   2.635   4.650   3.592  0.2887 -0.5720  0.1661
13254TIP3    H161253   2.564   4.590   3.572  1.8581 -2.0181 -1.3527
13254TIP3    H261254   2.644   4.704   3.513 -0.8627  1.5499  1.3668
13255TIP3   OH261255   5.687   5.823   6.520  0.1064  0.0708  0.3227
13255TIP3    H161256   5.699   5.789   6.432  0.2821  0.2043  0.2959
13255TIP3    H261257   5.679   5.745   6.575  1.4164 -0.0293  0.3914
13256TIP3   OH261258   2.236   4.518  15.545  0.1314 -0.0097  0.0509
13256TIP3    H161259   2.210   4.585  15.609 -0.2486  0.4995 -0.6250
13256TIP3    H261260   2.277   4.568  15.474  0.0225 -0.5172 -0.3699
13257TIP3   OH261261   6.534   2.267   2.928 -0.0712  0.2851 -0.8715
13257TIP3    H161262   6.548   2.199   2.861  2.0046 -0.8849  0.6296
13257TIP3    H261263   6.598   2.247   2.996  0.5312  3.7094 -0.2531
13258TIP3   OH261264   5.265   5.089  12.184  0.1182 -0.4078  0.1315
13258TIP3    H161265   5.293   5.029  12.253 -0.4252 -0.5150  0.2618
13258TIP3    H261266   5.314   5.061  12.107  0.9985 -0.0560  0.5539
13259TIP3   OH261267   5.011   4.768   2.633  0.2429  0.1255 -0.4164
13259TIP3    H161268   4.979   4.857   2.642 -2.4488 -0.5204 -2.2301
13259TIP3    H261269   5.025   4.737   2.723 -0.8237  1.6872  0.3152
13260TIP3   OH261270   5.244   1.288   5.215  0.0266  0.1981 -0.2461
13260TIP3    H161271   5.266   1.284   5.308 -0.2364 -3.4041 -0.2162
13260TIP3    H261272   5.168   1.346   5.212 -1.7231 -1.7412  2.2593
13261TIP3   OH261273   2.089   2.632   1.040  0.0923  0.3795  0.1389
13261TIP3    H161274   2.114   2.568   1.106  2.5995  1.4241  0.2978
13261TIP3    H261275   2.123   2.598   0.958 -1.2886  0.0518 -0.3326
13262TIP3   OH261276   1.669   1.753   3.900  0.4124 -0.4211  0.0016
13262TIP3    H161277   1.760   1.723   3.897 -0.2090 -2.4514  0.0905
13262TIP3    H261278   1.623   1.698   3.837 -0.7006  0.8722 -0.3767
13263TIP3   OH261279   4.675   1.330   1.765 -0.0720 -0.1422  0.2335
13263TIP3    H161280   4.626   1.353   1.686  1.3340  1.7396 -0.1410
13263TIP3    H261281   4.756   1.291   1.733 -0.7035 -2.0609  0.8334
13264TIP3   OH261282   5.108   2.849  13.513 -0.2948 -0.0345  0.5555
13264TIP3    H161283   5.200   2.873  13.514 -0.2882  0.0352 -0.3696
13264TIP3    H261284   5.108   2.753  13.517 -0.1095 -0.1161 -0.8821
13265TIP3   OH261285   5.644   3.446  13.319 -0.4667  0.1465 -0.6866
13265TIP3    H161286   5.707   3.494  13.264 -0.8578  0.6302 -0.7220
13265TIP3    H261287   5.636   3.500  13.398  0.1144 -0.5583 -0.1253
13266TIP3   OH261288   1.931   0.800  10.324  0.3631 -0.1565  0.1347
13266TIP3    H161289   1.938   0.880  10.376  0.8677 -0.5925  0.7496
13266TIP3    H261290   1.895   0.734  10.384  0.0623 -0.4306 -0.3304
13267TIP3   OH261291   0.467   6.559  15.246  0.6367  0.0605 -0.3884
13267TIP3    H161292   0.375   6.532  15.245  0.9694 -1.2539  1.0509
13267TIP3    H261293   0.473   6.624  15.176 -1.1723 -0.5167 -1.1563
13268TIP3   OH261294   5.014   3.842  15.264  0.1313 -0.0210 -0.0111
13268TIP3    H161295   4.985   3.858  15.354  1.7563 -1.5213  0.8402
13268TIP3    H261296   5.073   3.915  15.245  0.3162 -0.0558  0.4067
13269TIP3   OH261297   1.136   3.971   2.766  0.3069  0.1228  0.7508
13269TIP3    H161298   1.184   3.896   2.729 -0.0475 -0.2904  1.1153
13269TIP3    H261299   1.044   3.944   2.764 -0.2892  1.8554 -2.2618
13270TIP3   OH261300   3.974   0.535   2.135  0.0437  0.4379 -0.2066
13270TIP3    H161301   3.954   0.621   2.098 -0.8406  0.1832 -0.3524
13270TIP3    H261302   4.049   0.504   2.085  0.9842  1.5101  0.4724
13271TIP3   OH261303   5.445   1.522  13.783 -0.4881  0.1800  0.0829
13271TIP3    H161304   5.401   1.555  13.704 -0.9711 -0.5189  0.0584
13271TIP3    H261305   5.492   1.444  13.753  0.6232  0.8028  0.1552
13272TIP3   OH261306   3.291   2.238   2.734  0.0654  0.5977  0.1124
13272TIP3    H161307   3.234   2.243   2.811 -0.6476  0.0967 -0.3656
13272TIP3    H261308   3.367   2.188   2.763 -1.2318 -1.6177 -0.0724
13273TIP3   OH261309   3.906   1.460   0.208 -0.4194 -0.1079 -0.3276
13273TIP3    H161310   3.865   1.427   0.129 -1.1899  0.0360  0.0067
13273TIP3    H261311   3.848   1.530   0.239 -1.1915 -1.4587  1.4574
13274TIP3   OH261312   6.142   0.203   5.188 -0.8254 -0.2916  0.4847
13274TIP3    H161313   6.175   0.293   5.196 -1.5193  0.0601 -0.3833
13274TIP3    H261314   6.200   0.151   5.244  1.1538  0.2889 -0.9151
13275TIP3   OH261315   2.138   3.876  16.358 -0.5862  0.2705  0.4878
13275TIP3    H161316   2.053   3.919  16.368 -0.5059  1.1590 -2.0622
13275TIP3    H261317   2.190   3.937  16.306  0.4692 -1.7091 -0.8975
13276TIP3   OH261318   5.408   0.441  10.787 -0.4307  0.1512  0.2131
13276TIP3    H161319   5.377   0.377  10.723 -0.3854 -0.5760  0.9123
13276TIP3    H261320   5.501   0.419  10.799 -0.4017  0.3853  0.4143
13277TIP3   OH261321   2.329   2.356   0.244 -0.1760  0.1444 -0.0692
13277TIP3    H161322   2.252   2.387   0.291 -0.4557 -0.9110  0.1973
13277TIP3    H261323   2.295   2.320   0.162  0.2201  1.1912 -0.7209
13278TIP3   OH261324   1.138   5.020   5.682  0.2436  0.8261  0.2295
13278TIP3    H161325   1.062   4.989   5.632 -1.5072  2.9455  1.4094
13278TIP3    H261326   1.211   5.014   5.621 -0.6740 -1.9004 -0.7573
13279TIP3   OH261327   3.432   2.339  15.753  0.1795 -0.0777 -0.2035
13279TIP3    H161328   3.490   2.264  15.769 -0.3510 -0.4173  0.1369
13279TIP3    H261329   3.344   2.307  15.772 -0.1789  0.3159 -1.1072
13280TIP3   OH261330   2.579   6.469  13.579 -0.1071 -0.5678  0.1935
13280TIP3    H161331   2.626   6.422  13.511  0.7308  1.2017 -0.5172
13280TIP3    H261332   2.500   6.502  13.536  1.2614  2.0503 -0.5286
13281TIP3   OH261333   6.405   6.707  14.912 -0.4904  0.1050 -0.0206
13281TIP3    H161334   6.464   6.632  14.897 -0.4368  0.8444 -5.0689
13281TIP3    H261335   6.461   6.784  14.902 -1.5202  0.8112 -0.5180
13282TIP3   OH261336   4.616   4.037   5.067  0.1857 -0.1247  0.1866
13282TIP3    H161337   4.687   3.995   5.116  0.8107  0.3872 -0.2672
13282TIP3    H261338   4.643   4.032   4.976  0.0861  0.9148  0.0909
13283TIP3   OH261339   4.717   2.879   5.904 -0.3174 -0.0779  0.3493
13283TIP3    H161340   4.698   2.823   5.979 -0.5245 -0.0400  0.3257
13283TIP3    H261341   4.632   2.897   5.865 -0.0875 -1.7795 -1.1084
13284TIP3   OH261342   0.143   4.540   2.504 -0.4009 -0.4635  0.6001
13284TIP3    H161343   0.054   4.520   2.475 -0.0664  0.1658 -0.9655
13284TIP3    H261344   0.180   4.454   2.526 -0.7256 -0.9765 -0.7526
13285TIP3   OH261345   1.367   3.912   1.071 -0.3868 -0.2339  0.2281
13285TIP3    H161346   1.272   3.920   1.073 -0.4799 -1.3135  1.2905
13285TIP3    H261347   1.397   3.964   1.145  0.0410  1.8008 -1.2851
13286TIP3   OH261348   5.693   0.106   1.979 -0.4343  0.0027 -0.4074
13286TIP3    H161349   5.647   0.184   2.010  0.5545  0.7979 -0.8570
13286TIP3    H261350   5.634   0.067   1.914  0.1474  1.9064 -2.1840
13287TIP3   OH261351   2.553   0.861  11.886 -0.2989  0.6724 -0.1542
13287TIP3    H161352   2.586   0.951  11.883 -2.0683  1.3432 -1.2376
13287TIP3    H261353   2.518   0.851  11.974 -1.3091  1.5563 -0.4274
13288TIP3   OH261354   3.744   2.979   0.787  0.3657  0.8757 -0.1797
13288TIP3    H161355   3.819   3.017   0.741  1.1312 -0.1543  0.1741
13288TIP3    H261356   3.780   2.904   0.834 -0.1160  2.4980  3.0658
13289TIP3   OH261357   3.053   5.485  11.514  0.1741  0.2329  0.2306
13289TIP3    H161358   3.082   5.575  11.495 -0.5455  0.4547  0.1337
13289TIP3    H261359   3.125   5.447  11.563  1.3645  0.2170 -1.4183
13290TIP3   OH261360   4.245   6.039   2.336  0.5095 -1.0546 -0.5176
13290TIP3    H161361   4.246   6.089   2.418 -0.5064 -2.6983  0.5454
13290TIP3    H261362   4.310   6.082   2.281  0.1533  1.0295  0.5751
13291TIP3   OH261363   6.485   1.695   6.358  0.6110 -0.2188 -0.5944
13291TIP3    H161364   6.415   1.751   6.391  0.7935  0.5455 -1.4810
13291TIP3    H261365   6.483   1.619   6.416 -0.6455 -0.0032 -0.3086
13292TIP3   OH261366   3.800   2.562  16.484  0.5929  0.1033  0.0692
13292TIP3    H161367   3.872   2.603  16.534  0.5620 -1.3995  1.4169
13292TIP3    H261368   3.741   2.635  16.465  0.4770  0.7266  2.4874
13293TIP3   OH261369   0.346   4.111  15.575 -0.4207 -0.0722 -0.2661
13293TIP3    H161370   0.330   4.020  15.551  1.1952 -1.0857  2.1605
13293TIP3    H261371   0.261   4.142  15.608 -0.2837 -1.8151  1.9832
13294TIP3   OH261372   1.319   4.839  16.117 -0.1022  0.9533 -0.1225
13294TIP3    H161373   1.396   4.862  16.170 -0.4541 -0.9704  1.3361
13294TIP3    H261374   1.336   4.879  16.032  1.1335  3.0413  1.0140
13295TIP3   OH261375   4.691   0.727  14.441  0.3000  0.0741 -0.3514
13295TIP3    H161376   4.755   0.776  14.389  0.5532 -1.8734 -1.9885
13295TIP3    H261377   4.646   0.671  14.378 -1.0334 -0.6951  1.2075
13296TIP3   OH261378   1.421   0.532  15.806 -0.6697 -0.1996 -0.0328
13296TIP3    H161379   1.491   0.554  15.867  0.6486  0.3962 -1.6891
13296TIP3    H261380   1.364   0.609  15.805 -2.2700 -1.2434  2.4329
13297TIP3   OH261381   3.315   6.395   4.179  0.0932  0.0927 -0.4949
13297TIP3    H161382   3.384   6.330   4.192  1.3240  1.7750  2.4207
13297TIP3    H261383   3.289   6.385   4.088  2.3563 -2.3629 -0.9967
13298TIP3   OH261384   3.046   0.450   6.628 -0.6999 -0.0059 -0.4097
13298TIP3    H161385   3.099   0.385   6.582 -1.3678  0.5581 -2.0522
13298TIP3    H261386   2.976   0.472   6.567 -0.0077  2.9215 -0.2942
13299TIP3   OH261387   4.462   5.553   0.937  0.2076 -0.6226 -0.2462
13299TIP3    H161388   4.467   5.459   0.952  4.2578 -0.3726  1.1037
13299TIP3    H261389   4.551   5.579   0.911 -0.8632  2.7642 -1.1046
13300TIP3   OH261390   2.991   6.105   1.784 -0.0934 -0.0276  0.0704
13300TIP3    H161391   3.055   6.082   1.852  0.3700  0.4054 -0.2213
13300TIP3    H261392   3.006   6.041   1.715  1.0451  0.9784 -0.6445
13301TIP3   OH261393   6.188   2.836  16.281  0.4408  0.4573  0.2412
13301TIP3    H161394   6.138   2.850  16.361  1.1640 -0.6452  0.9200
13301TIP3    H261395   6.173   2.744  16.259 -0.0017  0.8219 -1.0882
13302TIP3   OH261396   1.123   0.232   6.458 -0.3628  0.1492  0.3267
13302TIP3    H161397   1.105   0.166   6.525 -2.2497 -1.4092 -1.5809
13302TIP3    H261398   1.185   0.190   6.399  0.9476  1.3454  0.7880
13303TIP3   OH261399   1.298   2.202   3.474 -0.5738  0.2112 -0.2509
13303TIP3    H161400   1.351   2.126   3.451  1.0522  1.5222 -1.1233
13303TIP3    H261401   1.223   2.199   3.415  1.3430  1.1918 -2.9074
13304TIP3   OH261402   6.627   0.661  15.170 -0.3465 -0.8103 -0.3051
13304TIP3    H161403   6.547   0.626  15.132 -1.5315  0.5515  0.8004
13304TIP3    H261404   6.604   0.681  15.261  1.3072 -0.5637  0.0969
13305TIP3   OH261405   1.792   6.398   1.988  0.2444 -0.2520 -0.2002
13305TIP3    H161406   1.835   6.482   1.979  0.4539 -0.5805 -3.6868
13305TIP3    H261407   1.698   6.417   1.982 -0.1046  0.0623  3.6430
13306TIP3   OH261408   1.099   4.048  12.532 -0.2969 -0.2382  0.2146
13306TIP3    H161409   1.044   4.118  12.565 -0.1376 -0.6437  1.3618
13306TIP3    H261410   1.186   4.086  12.525  0.3185 -0.9221  3.1149
13307TIP3   OH261411   0.924   1.821  13.113  0.0445  0.4449 -0.2868
13307TIP3    H161412   0.953   1.827  13.022 -0.5524 -0.7812 -0.5889
13307TIP3    H261413   0.952   1.903  13.153  1.2017  0.5833 -1.3148
13308TIP3   OH261414   6.491   2.270  14.453 -0.3003 -0.0455  0.3643
13308TIP3    H161415   6.425   2.224  14.402 -0.0857  0.2545 -0.1995
13308TIP3    H261416   6.449   2.352  14.479 -0.0111  0.3605 -0.3982
13309TIP3   OH261417   0.701   0.744  14.462  0.3427 -0.2591 -0.2964
13309TIP3    H161418   0.724   0.655  14.436  1.4316 -0.3122  0.7157
13309TIP3    H261419   0.614   0.736  14.502  0.8387 -1.0691  0.6752
13310TIP3   OH261420   1.186   0.412   2.368 -1.1788  0.0927 -0.5950
13310TIP3    H161421   1.095   0.438   2.379 -1.0723  0.3153 -0.1964
13310TIP3    H261422   1.182   0.322   2.334 -1.5664 -0.6130  1.1623
13311TIP3   OH261423   2.174   2.653  16.848  0.4722 -0.1137 -0.2440
13311TIP3    H161424   2.146   2.561  16.840  0.3958  0.0128 -1.5717
13311TIP3    H261425   2.135   2.682  16.931  0.7983 -1.3735  0.3789
13312TIP3   OH261426   2.664   1.575   6.030  0.4804 -0.5668 -0.4081
13312TIP3    H161427   2.693   1.555   6.119  1.8189  0.5566 -0.5658
13312TIP3    H261428   2.730   1.534   5.974 -0.1483 -0.9440 -0.8831
13313TIP3   OH261429   6.490   6.476  15.413  0.5240 -0.3429  0.5908
13313TIP3    H161430   6.577   6.452  15.382  0.0878  0.2300 -1.1816
13313TIP3    H261431   6.442   6.393  15.416  1.0053 -0.6097  1.2306
13314TIP3   OH261432   4.845   1.300   3.335 -0.1343  0.4018  0.2361
13314TIP3    H161433   4.775   1.313   3.399  0.3702  0.7176  0.7254
13314TIP3    H261434   4.845   1.205   3.319 -2.1289  0.6105 -1.4299
13315TIP3   OH261435   2.773   5.335  12.876 -0.3425  0.0946  0.5434
13315TIP3    H161436   2.703   5.370  12.820 -0.2616  2.3562  1.7465
13315TIP3    H261437   2.854   5.367  12.837 -0.2522  1.1360  1.5259
13316TIP3   OH261438   4.692   0.387  17.072  0.4541  0.2558  0.1815
13316TIP3    H161439   4.613   0.390  17.019  1.0771  1.4813 -0.7503
13316TIP3    H261440   4.737   0.469  17.052  1.6226 -0.0926  1.2195
13317TIP3   OH261441   2.742   3.014   4.321 -0.0790 -0.1017 -0.1849
13317TIP3    H161442   2.666   2.997   4.376 -1.0995  1.7445 -0.9331
13317TIP3    H261443   2.706   3.037   4.236  1.3813 -0.4372 -0.9372
13318TIP3   OH261444   4.159   5.669  13.499  0.1710 -0.4605 -0.2735
13318TIP3    H161445   4.166   5.618  13.418  0.4212 -1.1252  0.1559
13318TIP3    H261446   4.229   5.634  13.555  1.8793  1.8837 -0.7784
13319TIP3   OH261447   4.143   4.907  16.344  0.0255  0.7483 -0.1378
13319TIP3    H161448   4.158   4.998  16.316  0.3810  0.1658 -1.9550
13319TIP3    H261449   4.184   4.902  16.430  1.7576  1.8065 -0.8388
13320TIP3   OH261450   5.788   2.991  14.836  0.3588  0.5435 -0.3317
13320TIP3    H161451   5.788   3.069  14.780 -0.4611  1.3689  0.7712
13320TIP3    H261452   5.822   3.021  14.920  0.7932 -0.4811 -0.1255
13321TIP3   OH261453   5.178   4.442  14.965 -0.2898 -0.1219 -0.2990
13321TIP3    H161454   5.248   4.465  15.026  0.4090 -2.4566 -0.1326
13321TIP3    H261455   5.099   4.438  15.019  0.3735 -2.4868  0.6346
13322TIP3   OH261456   0.408   5.610   1.851  0.0509  0.2893  0.1904
13322TIP3    H161457   0.315   5.593   1.838  0.1013 -1.2146  1.4975
13322TIP3    H261458   0.429   5.568   1.934  2.6613 -2.5274 -1.6879
13323TIP3   OH261459   3.329   5.273   3.715 -0.1482  0.2806  0.1018
13323TIP3    H161460   3.235   5.257   3.714  0.2081 -2.5006  1.9638
13323TIP3    H261461   3.364   5.214   3.649  0.3496  0.8758 -0.1727
13324TIP3   OH261462   2.990   0.716   2.176 -0.6329  0.2578  0.5297
13324TIP3    H161463   2.983   0.810   2.157 -0.5182 -0.0705 -1.3345
13324TIP3    H261464   2.906   0.680   2.149 -0.9591 -0.1036  1.9407
13325TIP3   OH261465   1.795   3.134  14.450  0.2161  0.1907  0.0016
13325TIP3    H161466   1.756   3.221  14.448 -0.2112 -0.0097 -0.2976
13325TIP3    H261467   1.875   3.142  14.398  0.2824  0.4560  0.1452
13326TIP3   OH261468   2.293   2.298  11.683  0.2197  0.0917 -0.5400
13326TIP3    H161469   2.369   2.330  11.635  1.4660  0.3573  1.4949
13326TIP3    H261470   2.276   2.365  11.749 -2.2151  0.3510 -1.3231
13327TIP3   OH261471   1.397   5.533  14.506 -0.3855 -0.5210 -0.3619
13327TIP3    H161472   1.388   5.601  14.439  0.6326  1.3773  1.3139
13327TIP3    H261473   1.485   5.497  14.492 -1.5795 -2.9021 -2.3992
13328TIP3   OH261474   1.029   5.786  11.607  0.1330  0.5993 -0.0908
13328TIP3    H161475   1.122   5.802  11.623  0.3927 -1.8069  1.3610
13328TIP3    H261476   1.004   5.725  11.677 -2.6846  1.6140 -0.1215
13329TIP3   OH261477   1.670   2.681  12.336 -0.0872 -0.1201  0.1351
13329TIP3    H161478   1.615   2.758  12.341  1.7199  1.1927  0.8908
13329TIP3    H261479   1.727   2.687  12.412  1.6294 -0.9907 -1.0071
13330TIP3   OH261480   5.709   5.876   2.704 -0.0993  0.7220  0.0266
13330TIP3    H161481   5.695   5.822   2.627 -2.6390  3.2903 -1.5112
13330TIP3    H261482   5.762   5.949   2.672 -0.4757  1.3938  0.9065
13331TIP3   OH261483   3.344   1.461  12.974  0.1220 -0.4180  0.2981
13331TIP3    H161484   3.403   1.519  13.021  1.4271 -2.3233  1.1319
13331TIP3    H261485   3.281   1.520  12.931  0.9459  1.5348  1.6341
13332TIP3   OH261486   2.870   2.066  14.467 -0.5235 -0.5312  0.1461
13332TIP3    H161487   2.831   2.069  14.555 -0.1136  0.2300  0.3080
13332TIP3    H261488   2.943   2.004  14.477  1.3545  1.6726  1.1433
13333TIP3   OH261489   6.810   3.650   6.136  0.0821  0.1260 -0.0081
13333TIP3    H161490   6.804   3.725   6.078  2.7780  0.4956  0.0655
13333TIP3    H261491   6.820   3.688   6.224 -3.6256 -0.4207  0.8041
13334TIP3   OH261492   3.192   2.223  10.579 -0.1722 -0.0584 -0.5306
13334TIP3    H161493   3.244   2.196  10.504  0.3228 -1.8227  0.4101
13334TIP3    H261494   3.227   2.309  10.603 -0.7543  0.8315 -2.6509
13335TIP3   OH261495   3.404   4.347  16.044 -0.2095 -0.5790  0.3637
13335TIP3    H161496   3.309   4.342  16.058 -0.2958 -1.4839 -0.4390
13335TIP3    H261497   3.439   4.271  16.090  0.0575 -0.6153  0.1031
13336TIP3   OH261498   6.733   4.885  11.575 -0.0021  0.3746 -0.6421
13336TIP3    H161499   6.728   4.938  11.655 -1.5569 -0.3657 -0.2082
13336TIP3    H261500   6.808   4.828  11.589  0.7759  1.4032 -0.4643
13337TIP3   OH261501   0.036   6.035  14.816  0.0860 -0.0161  0.3307
13337TIP3    H161502   0.010   5.980  14.889  0.9648  0.5186  1.0531
13337TIP3    H261503   0.123   6.067  14.838  0.0924  0.7002 -0.6314
13338TIP3   OH261504   3.369   3.309   3.374  0.5094 -0.0190 -0.6601
13338TIP3    H161505   3.421   3.252   3.432 -0.9784 -2.3627 -1.5077
13338TIP3    H261506   3.280   3.301   3.407 -0.4964 -1.9234 -3.5407
13339TIP3   OH261507   4.838   2.792   4.421 -0.8120 -0.2872  0.3089
13339TIP3    H161508   4.779   2.849   4.470  0.5623  0.2471  1.4245
13339TIP3    H261509   4.875   2.733   4.488 -0.5312 -1.0003 -0.4579
13340TIP3   OH261510   3.459   5.178  12.842  0.0876 -0.1640  0.1084
13340TIP3    H161511   3.507   5.123  12.904  1.2805  0.9724  0.2452
13340TIP3    H261512   3.509   5.169  12.760 -1.1831 -1.2572 -0.5828
13341TIP3   OH261513   3.088   6.467   0.844 -0.3777  0.1570 -0.5668
13341TIP3    H161514   3.147   6.399   0.812 -0.0823  0.3188 -0.3666
13341TIP3    H261515   3.135   6.507   0.917 -1.1270 -0.3362  0.2072
13342TIP3   OH261516   6.574   1.797  16.383 -0.6480 -0.0376 -0.1570
13342TIP3    H161517   6.584   1.720  16.327 -2.6257 -1.0425  0.7601
13342TIP3    H261518   6.525   1.859  16.330 -0.3028  0.0217 -0.4086
13343TIP3   OH261519   1.280   2.056  12.955 -0.7833  0.1725 -0.0803
13343TIP3    H161520   1.347   2.094  13.012  0.2729 -0.0103 -1.1727
13343TIP3    H261521   1.197   2.078  12.998 -0.0632  0.9968  0.9322
13344TIP3   OH261522   2.819   2.076  14.736  0.0888  0.2494  0.5169
13344TIP3    H161523   2.851   2.166  14.739 -1.0064  0.6344  2.5924
13344TIP3    H261524   2.851   2.036  14.817  0.5253 -1.2522 -0.3494
13345TIP3   OH261525   1.536   5.103  10.514  0.0847 -0.2128 -0.1561
13345TIP3    H161526   1.473   5.062  10.573 -2.4705 -0.0467 -2.5629
13345TIP3    H261527   1.503   5.192  10.502  1.2602  0.1566 -0.8194
13346TIP3   OH261528   1.537   3.658   1.552 -0.3851 -0.1567  0.3587
13346TIP3    H161529   1.534   3.607   1.633 -0.7866 -0.7422 -0.0168
13346TIP3    H261530   1.489   3.738   1.573 -0.6398 -0.3803  0.6495
13347TIP3   OH261531   5.577   6.555   1.381 -0.0768  0.4333  0.2321
13347TIP3    H161532   5.621   6.489   1.434  1.5245  1.4802  0.2816
13347TIP3    H261533   5.485   6.529   1.381  0.3348 -1.1231  1.2102
13348TIP3   OH261534   4.016   2.312   5.661 -0.5112 -0.8317 -0.1179
13348TIP3    H161535   3.951   2.279   5.723 -0.4776  0.0486  0.3901
13348TIP3    H261536   4.089   2.340   5.715 -0.8454  0.8048 -0.4560
13349TIP3   OH261537   4.423   2.323  10.926  0.6173  0.2100  0.5273
13349TIP3    H161538   4.515   2.324  10.952  0.0826 -2.9166  3.1115
13349TIP3    H261539   4.421   2.270  10.846  1.0093 -0.2416  0.8101
13350TIP3   OH261540   6.328   3.989   3.090  0.1723 -0.0025 -0.3790
13350TIP3    H161541   6.366   4.009   3.004  2.5484  1.3101  0.8759
13350TIP3    H261542   6.305   4.075   3.126  0.5384 -0.4010  0.8399
13351TIP3   OH261543   2.079   4.820   5.847  0.0131 -0.0127  0.6607
13351TIP3    H161544   2.108   4.807   5.937 -1.1679 -0.3888  1.0067
13351TIP3    H261545   2.107   4.741   5.801 -0.1703 -0.2241  0.9109
13352TIP3   OH261546   0.055   6.058  16.484  0.3814  0.2820  0.4294
13352TIP3    H161547   0.104   6.002  16.543  0.5705  1.7171  1.7186
13352TIP3    H261548   0.023   6.000  16.415  4.4508 -0.6494 -0.9379
13353TIP3   OH261549   0.594   1.989   5.923  0.7014 -0.4801  0.0496
13353TIP3    H161550   0.508   2.031   5.931  2.1692  3.4246 -1.8430
13353TIP3    H261551   0.595   1.955   5.833  0.8738 -1.2188  0.3277
13354TIP3   OH261552   4.746   1.077  14.965  0.2588 -1.0206 -0.5076
13354TIP3    H161553   4.795   1.027  15.031 -0.2987 -1.1678 -0.1999
13354TIP3    H261554   4.682   1.126  15.016 -0.3069 -1.2822 -0.9572
13355TIP3   OH261555   2.366   1.452  16.488  0.0234 -0.0711 -0.4247
13355TIP3    H161556   2.304   1.525  16.493  0.3402  0.1808 -0.1585
13355TIP3    H261557   2.442   1.489  16.442  0.2774 -0.1689 -0.0839
13356TIP3   OH261558   4.304   0.863   5.535 -0.0298  0.1351  0.3913
13356TIP3    H161559   4.378   0.898   5.585 -0.3246  0.7634  0.3879
13356TIP3    H261560   4.290   0.925   5.464  0.5980 -0.9237 -0.6993
13357TIP3   OH261561   0.782   1.570   5.941 -0.1649 -0.1283  0.4398
13357TIP3    H161562   0.726   1.582   6.018  0.6934  1.2954  0.8735
13357TIP3    H261563   0.723   1.584   5.866 -0.1067  3.4213  0.8848
13358TIP3   OH261564   1.069   5.718  11.336  0.4714  0.3163  0.0500
13358TIP3    H161565   1.070   5.623  11.348  0.6430  0.2836 -0.2308
13358TIP3    H261566   1.061   5.753  11.425  3.5672  0.1258  0.5057
13359TIP3   OH261567   5.725   0.309   2.401  0.9150 -0.0224  0.2823
13359TIP3    H161568   5.689   0.287   2.487 -1.2389 -1.1517 -0.8197
13359TIP3    H261569   5.717   0.404   2.396 -1.0058 -0.1216  0.5423
13360TIP3   OH261570   0.343   1.941  10.980  0.6389 -0.2050  0.2593
13360TIP3    H161571   0.268   1.910  10.930  0.1804  1.1410  0.0778
13360TIP3    H261572   0.412   1.954  10.915  0.3526  0.6032  0.1143
13361TIP3   OH261573   0.858   5.301  11.542 -0.2139 -0.4334 -0.1958
13361TIP3    H161574   0.874   5.306  11.636 -0.8031  1.7507 -0.1618
13361TIP3    H261575   0.911   5.226  11.513 -0.1254 -1.2444  1.8654
13362TIP3   OH261576   2.601   1.920  17.124 -1.0062  0.2745  0.5326
13362TIP3    H161577   2.616   1.828  17.101 -1.9581  0.1571  0.3250
13362TIP3    H261578   2.684   1.963  17.106 -0.5480 -0.5509  0.6388
13363TIP3   OH261579   3.229   5.220   4.625  0.3653 -0.5688  0.7317
13363TIP3    H161580   3.210   5.186   4.538  1.8879  3.4042 -1.4307
13363TIP3    H261581   3.144   5.227   4.668 -0.6346 -1.1671 -1.0657
13364TIP3   OH261582   4.719   1.254  14.024  0.3664 -0.2449 -0.0923
13364TIP3    H161583   4.656   1.287  13.961 -1.1161  0.1395  1.5210
13364TIP3    H261584   4.804   1.287  13.993 -0.4392  0.7555 -1.3106
13365TIP3   OH261585   4.890   0.615  13.907 -0.2323  0.5018 -0.2434
13365TIP3    H161586   4.886   0.547  13.839 -3.4459  1.1351 -0.8831
13365TIP3    H261587   4.898   0.566  13.989 -0.4227 -0.5339 -0.8239
13366TIP3   OH261588   2.662   2.014  16.488  0.5445  0.1324 -0.1913
13366TIP3    H161589   2.706   1.929  16.488 -1.1903 -0.7873 -0.8910
13366TIP3    H261590   2.570   1.994  16.477 -0.4040  1.8825  3.1822
13367TIP3   OH261591   0.102   4.074  13.210  0.3230 -0.4625  0.5948
13367TIP3    H161592   0.083   4.035  13.125  0.2325 -0.8253  0.7824
13367TIP3    H261593   0.185   4.121  13.197  0.9477 -1.5244  0.6251
13368TIP3   OH261594   0.822   1.538   0.922  0.1171  0.3721 -0.3914
13368TIP3    H161595   0.787   1.464   0.971  1.2261  0.0161 -0.1275
13368TIP3    H261596   0.817   1.612   0.982 -1.0507  0.5500 -0.6764
13369TIP3   OH261597   0.437   2.428  16.396  0.0317 -0.0193  0.2012
13369TIP3    H161598   0.516   2.482  16.392  0.9704 -1.3598 -0.2479
13369TIP3    H261599   0.372   2.476  16.345  0.6452  0.9709  0.3320
13370TIP3   OH261600   0.530   2.301  13.632  0.5995 -0.0469 -0.4510
13370TIP3    H161601   0.466   2.358  13.677  2.5313  0.7318  1.4889
13370TIP3    H261602   0.569   2.358  13.566 -1.0955 -0.7237 -2.1287
13371TIP3   OH261603   5.563   6.319  12.989 -0.1048 -0.1295 -0.4717
13371TIP3    H161604   5.533   6.354  13.072  1.2770  2.4243 -0.9275
13371TIP3    H261605   5.487   6.273  12.953 -1.4516  0.7492  1.1124
13372TIP3   OH261606   1.729   6.277   1.645  0.0249 -0.3284  0.9746
13372TIP3    H161607   1.793   6.305   1.709  1.3527  1.1302 -0.8879
13372TIP3    H261608   1.758   6.189   1.619  1.1813  0.2359  0.2966
13373TIP3   OH261609   4.690   3.476   3.876 -0.1302 -0.0969 -0.2400
13373TIP3    H161610   4.734   3.440   3.953 -0.9345 -0.6398 -0.0181
13373TIP3    H261611   4.745   3.449   3.803  0.6111  0.3704  0.1352
13374TIP3   OH261612   1.813   4.387   4.274 -0.6045  0.2513  0.5180
13374TIP3    H161613   1.845   4.302   4.245  0.2344 -0.7315  3.9027
13374TIP3    H261614   1.885   4.447   4.257 -1.4155  0.5580 -2.4491
13375TIP3   OH261615   3.545   5.606  14.708  0.0916  0.4511 -0.1475
13375TIP3    H161616   3.451   5.588  14.715 -0.1775  1.1562 -1.6825
13375TIP3    H261617   3.551   5.684  14.654  1.6241 -0.4595 -1.3806
13376TIP3   OH261618   1.261   4.668  14.278 -0.4196 -0.0345  0.2234
13376TIP3    H161619   1.347   4.627  14.268 -0.5264 -0.2774  0.3000
13376TIP3    H261620   1.267   4.748  14.226 -0.4195 -0.4693 -0.4735
13377TIP3   OH261621   3.378   5.976   4.802  0.2668 -0.0809  0.3680
13377TIP3    H161622   3.358   5.925   4.880  0.5713  0.5879  0.8879
13377TIP3    H261623   3.390   6.065   4.833  0.0114  0.2728 -0.4951
13378TIP3   OH261624   2.841   6.202   1.179  0.9625 -0.1464  0.1301
13378TIP3    H161625   2.835   6.298   1.173  2.8979  0.2941  3.2216
13378TIP3    H261626   2.934   6.184   1.191  0.4667 -2.2861  1.2323
13379TIP3   OH261627   1.186   0.153   1.389  0.3061 -0.4883 -0.1706
13379TIP3    H161628   1.144   0.139   1.304  0.9863 -1.7181 -0.3295
13379TIP3    H261629   1.247   0.226   1.374 -1.3532  0.9748 -0.0628
13380TIP3   OH261630   3.343   4.497  11.838  0.1046  0.0214  0.1403
13380TIP3    H161631   3.342   4.510  11.743 -1.2649 -0.2232  0.1064
13380TIP3    H261632   3.393   4.571  11.872  0.9713 -0.1119 -0.7913
13381TIP3   OH261633   6.716   2.812  16.041 -0.5222 -0.2318 -0.6292
13381TIP3    H161634   6.740   2.896  16.081 -2.7113 -1.0107  2.7448
13381TIP3    H261635   6.621   2.805  16.054 -0.4867 -3.0228 -1.2443
13382TIP3   OH261636   0.273   6.428  12.942  0.3182  0.2267 -0.2497
13382TIP3    H161637   0.187   6.406  12.906  0.0480  0.8184  0.0216
13382TIP3    H261638   0.329   6.437  12.865 -0.4546  2.3317 -0.6339
13383TIP3   OH261639   2.329   4.804   0.629  0.1016  0.3576  0.1480
13383TIP3    H161640   2.344   4.801   0.534  2.1829  0.7461  0.4304
13383TIP3    H261641   2.369   4.885   0.658 -0.9376  0.4892  1.3348
13384TIP3   OH261642   6.450   3.584   0.650 -0.0470  0.3280  0.0049
13384TIP3    H161643   6.524   3.577   0.711 -1.2051 -2.0348  1.2896
13384TIP3    H261644   6.383   3.632   0.698  0.0352  0.9494 -0.4953
13385TIP3   OH261645   5.698   1.748  13.603  0.0123  0.4194  0.0264
13385TIP3    H161646   5.603   1.737  13.591  0.1830  0.4885 -1.5082
13385TIP3    H261647   5.734   1.745  13.515  1.4999  0.0076  0.6211
13386TIP3   OH261648   6.309   3.379   4.761  0.3077 -1.0628  0.6359
13386TIP3    H161649   6.266   3.400   4.679  0.6470 -3.3401 -0.2170
13386TIP3    H261650   6.282   3.289   4.780  0.2082 -0.6051  3.0594
13387TIP3   OH261651   4.096   3.146   4.697 -0.1488  0.2125  0.1806
13387TIP3    H161652   4.185   3.124   4.668  0.0814 -1.8461  2.1816
13387TIP3    H261653   4.042   3.134   4.619  0.7887 -2.6116 -0.1569
13388TIP3   OH261654   0.394   6.312   2.088 -0.0835  0.8434  0.1712
13388TIP3    H161655   0.307   6.330   2.051 -0.1468  3.5266  1.3612
13388TIP3    H261656   0.377   6.292   2.180  0.4783  0.2508  0.1464
13389TIP3   OH261657   3.394   3.768   5.494 -0.4660  0.4412 -0.0839
13389TIP3    H161658   3.304   3.739   5.480  0.3563 -1.6012 -1.7752
13389TIP3    H261659   3.412   3.827   5.421 -1.2137  3.1704  1.7796
13390TIP3   OH261660   4.611   6.252  11.263  0.1933 -0.1312 -0.3758
13390TIP3    H161661   4.612   6.300  11.345 -0.1238 -2.4016  1.0612
13390TIP3    H261662   4.652   6.310  11.200  3.3871  0.5366  2.0687
13391TIP3   OH261663   4.787   3.064   2.352 -0.8337  0.1848  0.5956
13391TIP3    H161664   4.847   3.024   2.414 -0.0240  0.3673 -0.0480
13391TIP3    H261665   4.709   3.009   2.354 -0.0346 -0.9781  0.2965
13392TIP3   OH261666   1.716   6.633   1.706 -0.8418 -0.0750 -0.2579
13392TIP3    H161667   1.656   6.680   1.649 -0.0628  0.0847 -0.9760
13392TIP3    H261668   1.677   6.546   1.716 -0.6803 -0.3210 -1.5842
13393TIP3   OH261669   4.808   3.570  13.898  0.1324  0.2722 -0.4472
13393TIP3    H161670   4.736   3.507  13.888 -0.8506  1.2362  0.2562
13393TIP3    H261671   4.840   3.585  13.809 -0.2966 -0.4370 -0.7307
13394TIP3   OH261672   3.701   4.635   4.507 -0.3306 -0.1354 -0.2925
13394TIP3    H161673   3.606   4.643   4.498 -0.3398 -0.3842 -0.4223
13394TIP3    H261674   3.714   4.582   4.585 -0.2472  2.1129  1.3367
13395TIP3   OH261675   2.970   6.309  11.130 -0.5901  1.0270  0.2211
13395TIP3    H161676   3.061   6.331  11.107 -0.0209  0.1889  1.5110
13395TIP3    H261677   2.922   6.391  11.118  0.8323  2.1966  1.8905
13396TIP3   OH261678   2.671   6.791   5.037 -0.5096 -0.6991  0.3998
13396TIP3    H161679   2.740   6.851   5.007 -0.0274 -0.3581  2.0692
13396TIP3    H261680   2.647   6.825   5.123 -1.6827 -1.7373  0.4928
13397TIP3   OH261681   1.339   6.391   4.927  0.4901  0.3010 -0.3378
13397TIP3    H161682   1.293   6.359   5.004  0.1768  0.1042 -0.6032
13397TIP3    H261683   1.400   6.457   4.961 -0.6410  1.2484 -0.0766
13398TIP3   OH261684   4.264   2.425   1.458 -0.1585  0.1989  0.6492
13398TIP3    H161685   4.286   2.502   1.406 -0.1322  0.2667  0.7600
13398TIP3    H261686   4.342   2.369   1.453 -0.5214 -0.2581 -0.2156
13399TIP3   OH261687   6.389   5.172  11.885  0.5396 -0.4539  0.0785
13399TIP3    H161688   6.303   5.194  11.849  0.6888 -0.0597 -0.0434
13399TIP3    H261689   6.377   5.175  11.980  0.6365  0.4800  0.0636
13400TIP3   OH261690   1.662   5.529   1.821  0.3341 -0.0479  0.0722
13400TIP3    H161691   1.661   5.519   1.917 -0.8694  2.6850  0.4367
13400TIP3    H261692   1.751   5.507   1.795  0.4918 -1.5585  1.7094
13401TIP3   OH261693   6.567   1.345  14.068  0.1508 -0.1337  0.2578
13401TIP3    H161694   6.549   1.336  14.162 -0.7378 -2.1241 -0.0460
13401TIP3    H261695   6.597   1.258  14.042 -0.8789  0.0080 -1.5555
13402TIP3   OH261696   6.179   4.749  15.551 -0.0885 -0.4319 -0.3715
13402TIP3    H161697   6.227   4.671  15.579 -0.4156 -0.2025  0.9164
13402TIP3    H261698   6.190   4.752  15.456  1.2863 -1.1361 -0.2544
13403TIP3   OH261699   0.150   0.265  15.438  0.0123  0.0543 -0.0089
13403TIP3    H161700   0.056   0.278  15.430  0.2996  2.4015 -0.4833
13403TIP3    H261701   0.163   0.233  15.527 -1.2319 -0.2570  0.0691
13404TIP3   OH261702   4.610   2.120   1.779  0.2494  0.1009 -0.0542
13404TIP3    H161703   4.618   2.049   1.843 -1.2871  0.7162  0.8563
13404TIP3    H261704   4.613   2.075   1.694  3.0642 -0.6565  0.3273
13405TIP3   OH261705   2.349   2.721  13.032 -0.0126 -0.2934  0.1587
13405TIP3    H161706   2.423   2.778  13.054 -0.5672 -0.2429  2.0584
13405TIP3    H261707   2.287   2.779  12.988 -0.3717  0.5229  1.6543
13406TIP3   OH261708   0.257   4.480  12.269 -0.3609 -0.3869  0.4532
13406TIP3    H161709   0.205   4.531  12.332 -1.4800 -1.4100  0.3937
13406TIP3    H261710   0.234   4.389  12.288  0.8493 -0.8247 -0.1035
13407TIP3   OH261711   3.282   4.882   3.145  0.2763  0.0313  0.2831
13407TIP3    H161712   3.269   4.824   3.220 -1.7073 -2.6742 -1.9852
13407TIP3    H261713   3.377   4.880   3.130  0.6705  0.2651  2.3149
13408TIP3   OH261714   2.099   2.948  12.409 -0.1678  0.1372 -0.0458
13408TIP3    H161715   2.169   2.989  12.461  0.2604  1.4771 -1.5762
13408TIP3    H261716   2.145   2.888  12.351 -0.2014  1.2318 -1.2568
13409TIP3   OH261717   2.851   1.923  15.907  0.0879  0.3888 -0.5811
13409TIP3    H161718   2.801   1.999  15.938 -1.2175 -0.7859  0.3180
13409TIP3    H261719   2.806   1.847  15.945  2.0132 -0.7951 -0.5205
13410TIP3   OH261720   3.488   1.176   2.829 -0.6324 -0.2297  0.2277
13410TIP3    H161721   3.442   1.233   2.890  0.5567 -0.6379  1.5631
13410TIP3    H261722   3.479   1.220   2.744 -2.9547 -0.0297  0.5116
13411TIP3   OH261723   3.471   1.630  13.967  0.0586  0.4781 -0.9384
13411TIP3    H161724   3.493   1.717  13.934 -0.0827  1.3528  1.1349
13411TIP3    H261725   3.383   1.640  14.004  0.6232 -0.1269  0.6570
13412TIP3   OH261726   5.700   6.559  12.484  0.0429  0.0370  0.6221
13412TIP3    H161727   5.629   6.613  12.448  1.6797  1.5520 -0.4964
13412TIP3    H261728   5.660   6.516  12.559 -2.6229 -0.7605 -1.0991
13413TIP3   OH261729   1.116   2.673   2.251  0.2616  0.1418 -0.5189
13413TIP3    H161730   1.070   2.594   2.220  1.6737 -0.3750 -1.3842
13413TIP3    H261731   1.091   2.680   2.343 -0.4537 -0.9109 -0.6128
13414TIP3   OH261732   6.759   0.837  14.302 -0.4126 -0.1403 -0.5369
13414TIP3    H161733   6.771   0.833  14.397 -1.6925 -2.4790 -0.4012
13414TIP3    H261734   6.843   0.807  14.266  0.5150  1.9183 -0.2575
13415TIP3   OH261735   1.673   6.052   1.197  0.2479 -0.6242 -0.8388
13415TIP3    H161736   1.718   6.055   1.282  1.8125 -1.9826 -1.5505
13415TIP3    H261737   1.636   5.964   1.193 -0.3806 -0.3399 -1.3034
13416TIP3   OH261738   2.821   0.168   2.111 -0.1035  0.4571 -0.2033
13416TIP3    H161739   2.780   0.205   2.033  0.4989  0.9951 -0.2767
13416TIP3    H261740   2.907   0.138   2.081  0.5976  1.6810  0.4491
13417TIP3   OH261741   2.532   6.265   3.406 -0.0658 -0.0513 -0.4829
13417TIP3    H161742   2.535   6.272   3.502 -0.1355  0.0143 -0.4846
13417TIP3    H261743   2.505   6.174   3.390 -0.1954 -0.0223 -0.4371
13418TIP3   OH261744   2.378   1.503  11.132  0.1594  0.0155 -0.2260
13418TIP3    H161745   2.290   1.528  11.160  0.5802  1.1759  0.1050
13418TIP3    H261746   2.402   1.432  11.192 -0.5277 -0.2802 -0.2886
13419TIP3   OH261747   2.040   3.548  13.292 -0.0770 -0.1349  0.6398
13419TIP3    H161748   2.049   3.637  13.327 -2.2556  0.1307  0.7038
13419TIP3    H261749   1.965   3.554  13.232  0.3897 -1.7192 -0.1455
13420TIP3   OH261750   2.254   5.862   4.810  0.2419  0.1935 -0.0266
13420TIP3    H161751   2.207   5.781   4.791 -0.0974  0.8600 -2.3714
13420TIP3    H261752   2.346   5.842   4.790  0.4545 -0.0984  1.1599
13421TIP3   OH261753   3.630   0.775   3.809 -0.0433  0.2685  0.0520
13421TIP3    H161754   3.712   0.728   3.799  0.8453  1.6826  0.3035
13421TIP3    H261755   3.586   0.732   3.882  1.0823  0.2945  0.7686
13422TIP3   OH261756   3.240   0.520   0.347 -0.3022 -0.1873 -0.2523
13422TIP3    H161757   3.270   0.594   0.293  2.1062 -1.1403 -0.3368
13422TIP3    H261758   3.320   0.471   0.367 -1.6563 -2.0207  0.9629
13423TIP3   OH261759   0.402   3.972   6.185 -0.3061  0.1333 -0.3329
13423TIP3    H161760   0.496   3.979   6.202 -0.4369  1.2527  0.0605
13423TIP3    H261761   0.370   3.905   6.245 -0.4132  2.5487  2.5466
13424TIP3   OH261762   1.274   3.404   2.961  0.1342  0.2789  0.2808
13424TIP3    H161763   1.221   3.477   2.931 -0.6993 -0.3599  0.1611
13424TIP3    H261764   1.211   3.334   2.979  0.9206 -0.4687  0.2128
13425TIP3   OH261765   4.879   3.124  14.358  0.2481 -0.2627 -0.0675
13425TIP3    H161766   4.895   3.168  14.441 -0.0342 -2.2139  1.0625
13425TIP3    H261767   4.784   3.115  14.352 -0.1490  3.3096 -2.5387
13426TIP3   OH261768   4.132   3.374   3.982 -0.2830 -0.2686  0.2416
13426TIP3    H161769   4.071   3.440   3.947 -0.0198  0.6143  1.3683
13426TIP3    H261770   4.212   3.424   4.001  0.1224 -1.0324  0.5639
13427TIP3   OH261771   1.579   5.330   3.505  0.0149 -0.3361  0.2497
13427TIP3    H161772   1.504   5.388   3.515  0.0468 -0.2100 -0.2147
13427TIP3    H261773   1.588   5.319   3.411  0.9402  0.1296  0.2745
13428TIP3   OH261774   4.007   4.268  12.217  0.6952  0.0620 -0.7157
13428TIP3    H161775   4.076   4.324  12.252 -0.5525  2.6644 -2.0691
13428TIP3    H261776   3.944   4.261  12.289  0.8067  0.5398 -0.5621
13429TIP3   OH261777   1.992   4.261   5.473  0.2223  0.0334  0.1343
13429TIP3    H161778   1.940   4.328   5.518  1.3432  1.1142 -0.1441
13429TIP3    H261779   1.977   4.278   5.380 -1.6217 -1.8317  0.0115
13430TIP3   OH261780   0.916   3.482   5.432 -0.2366  0.1212 -0.0133
13430TIP3    H161781   0.986   3.484   5.366 -0.1806  0.6255  0.0568
13430TIP3    H261782   0.922   3.395   5.471 -0.1512 -0.1144 -0.5478
13431TIP3   OH261783   2.561   6.012   5.179  0.1939  0.2215  0.2412
13431TIP3    H161784   2.545   5.988   5.270 -1.9459  0.6653  0.0348
13431TIP3    H261785   2.492   5.968   5.130  0.3082  1.3013 -0.9524
13432TIP3   OH261786   5.940   3.164   5.366  0.4148  0.1592  0.0680
13432TIP3    H161787   6.022   3.115   5.375  0.6280 -0.0417 -2.3004
13432TIP3    H261788   5.880   3.120   5.427  1.5517 -0.8287  0.5330
13433TIP3   OH261789   2.361   6.555   0.773  0.4035  0.2878 -0.3924
13433TIP3    H161790   2.340   6.465   0.799  0.0346  0.2015 -0.9740
13433TIP3    H261791   2.367   6.551   0.678  2.8278  0.3402 -0.3058
13434TIP3   OH261792   0.480   0.881   4.147  0.1028  0.2452 -0.1087
13434TIP3    H161793   0.510   0.864   4.057  1.2017 -0.1750  0.3157
13434TIP3    H261794   0.415   0.950   4.138  1.1832  1.1670 -1.0973
13435TIP3   OH261795   1.875   5.864   2.520 -0.1581 -0.0433  0.0062
13435TIP3    H161796   1.785   5.833   2.504 -0.4412  1.0202 -0.5468
13435TIP3    H261797   1.867   5.925   2.592  0.1551 -0.0723  0.0657
13436TIP3   OH261798   0.383   6.621   6.247  0.3033  0.4650  0.7129
13436TIP3    H161799   0.419   6.533   6.233 -0.9443  0.2376 -1.7339
13436TIP3    H261800   0.288   6.608   6.240  0.1574  2.2334 -1.7092
13437TIP3   OH261801   2.198   5.110  14.030  0.5409  0.0331 -0.5245
13437TIP3    H161802   2.259   5.043  14.062  1.2581  0.1109 -1.6660
13437TIP3    H261803   2.247   5.192  14.037 -0.8990  0.7748  2.4283
13438TIP3   OH261804   6.556   3.419   4.240 -0.5222 -0.2947  0.2743
13438TIP3    H161805   6.635   3.380   4.203 -0.4558 -0.1301  0.2431
13438TIP3    H261806   6.585   3.504   4.275 -0.7816 -0.0202 -0.1719
13439TIP3   OH261807   4.301   1.806   5.336 -0.0387 -0.2425  0.6764
13439TIP3    H161808   4.332   1.891   5.367  1.6213 -1.0225  1.2574
13439TIP3    H261809   4.317   1.746   5.409 -1.6640 -0.9967  0.4763
13440TIP3   OH261810   6.077   6.383   5.285 -0.0071 -0.0504  0.1535
13440TIP3    H161811   6.163   6.418   5.264 -0.7225  1.4580 -0.4609
13440TIP3    H261812   6.036   6.451   5.340 -0.7306 -0.8244  0.5973
13441TIP3   OH261813   1.172   6.201   0.571 -0.3621 -0.2228  0.3260
13441TIP3    H161814   1.228   6.278   0.581  0.3029 -0.9229  2.6639
13441TIP3    H261815   1.229   6.135   0.532 -0.9786  0.4483 -1.8377
13442TIP3   OH261816   1.909   6.337   4.895  0.2543 -0.2121  0.7231
13442TIP3    H161817   1.902   6.376   4.982  0.1734 -1.1963  1.1688
13442TIP3    H261818   1.939   6.409   4.839  0.0331  0.5038  1.5025
13443TIP3   OH261819   2.717   0.832   0.826 -0.2684  0.0992  0.4163
13443TIP3    H161820   2.648   0.854   0.889 -0.0682  1.8795  0.0587
13443TIP3    H261821   2.691   0.745   0.793 -1.6530  0.1719  1.2073
13444TIP3   OH261822   0.081   4.714  14.004 -0.3893  0.3443 -0.0085
13444TIP3    H161823  -0.013   4.696  14.011 -0.6424  1.3730 -0.4540
13444TIP3    H261824   0.122   4.658  14.069 -1.6474  2.3339  2.7016
13445TIP3   OH261825   4.556   4.231   0.537  0.5902  0.2265 -0.3545
13445TIP3    H161826   4.621   4.283   0.491 -0.0766  1.8528  0.4764
13445TIP3    H261827   4.472   4.256   0.499  0.0141  1.6716  1.7041
13446TIP3   OH261828   4.943   2.261   5.323  0.3890  0.0988  0.0251
13446TIP3    H161829   4.984   2.289   5.241 -0.0067 -0.6289 -0.4306
13446TIP3    H261830   4.850   2.280   5.312  0.5204  1.3853  0.9066
13447TIP3   OH261831   1.435   3.134  11.760 -0.8520 -0.2171  0.2796
13447TIP3    H161832   1.381   3.191  11.815  1.9785 -0.8792  4.1834
13447TIP3    H261833   1.412   3.045  11.786  0.3585 -0.5770  0.1813
13448TIP3   OH261834   4.206   2.913   5.568 -0.6543  0.2222  0.1649
13448TIP3    H161835   4.239   2.896   5.480 -0.2828 -0.6114  0.4520
13448TIP3    H261836   4.114   2.888   5.565 -0.2484 -1.4450  0.4328
13449TIP3   OH261837   5.976   1.157   1.779  0.2763  0.8613 -0.1849
13449TIP3    H161838   5.957   1.065   1.764  1.5968  0.2206  1.6395
13449TIP3    H261839   6.057   1.156   1.830 -1.0209  2.8877  2.1470
13450TIP3   OH261840   4.366   1.059   0.484  0.0342  1.1254  0.1657
13450TIP3    H161841   4.339   1.145   0.451  1.4046  1.2344 -0.7243
13450TIP3    H261842   4.360   1.001   0.407 -1.1609  0.3225  0.8186
13451TIP3   OH261843   4.828   0.057   3.045  0.1041 -0.4646 -0.1741
13451TIP3    H161844   4.828   0.144   3.005  0.8394  0.7056  2.1717
13451TIP3    H261845   4.736   0.041   3.066  0.1295  0.4439  0.7096
13452TIP3   OH261846   2.987   5.213   3.955 -0.0248 -0.3177 -0.0709
13452TIP3    H161847   2.949   5.300   3.971  1.2636  0.4082 -0.7969
13452TIP3    H261848   2.916   5.152   3.975 -1.0964  0.9181  0.0363
13453TIP3   OH261849   6.351   2.953  11.760  0.0666 -0.5660  0.6743
13453TIP3    H161850   6.330   2.965  11.667 -2.0743  0.2501  1.1985
13453TIP3    H261851   6.406   2.875  11.761  2.0698  0.6940 -1.4664
13454TIP3   OH261852   2.872   0.447   3.952  0.5107 -0.3144 -0.0562
13454TIP3    H161853   2.840   0.514   4.014  1.8161  0.9006 -0.6297
13454TIP3    H261854   2.966   0.445   3.967  0.3986 -2.8576  0.6821
13455TIP3   OH261855   6.716   5.457   1.713  0.4560  0.2442  0.5616
13455TIP3    H161856   6.626   5.468   1.682  0.9787 -0.1804 -1.2805
13455TIP3    H261857   6.715   5.490   1.802 -1.3553  0.9715  0.3241
13456TIP3   OH261858   2.285   3.563  13.160  0.1136  0.4532  0.3673
13456TIP3    H161859   2.322   3.651  13.161  0.8057  0.1710  0.0551
13456TIP3    H261860   2.226   3.561  13.235 -0.3389  1.3665  0.0447
13457TIP3   OH261861   5.408   1.650   0.085 -0.2478 -0.3923  0.2560
13457TIP3    H161862   5.323   1.635   0.044 -0.0401 -2.3004  0.4324
13457TIP3    H261863   5.391   1.641   0.179  0.1798 -1.1134  0.2754
13458TIP3   OH261864   2.782   5.017  16.360 -0.5299 -1.0920  0.0829
13458TIP3    H161865   2.696   5.047  16.391 -1.0352 -1.0324 -1.3062
13458TIP3    H261866   2.775   4.921  16.358  0.2075 -1.2159  2.0659
13459TIP3   OH261867   0.119   3.943  17.041 -0.1302  0.0684 -0.4635
13459TIP3    H161868   0.194   3.980  16.995 -1.1406  1.3153 -1.1605
13459TIP3    H261869   0.048   3.946  16.978 -0.1516 -3.9314 -0.9325
13460TIP3   OH261870   5.260   0.062   3.661  0.4353  0.3075 -0.1646
13460TIP3    H161871   5.241  -0.000   3.732  0.1632 -0.6311 -1.0382
13460TIP3    H261872   5.273   0.007   3.584 -2.1428  1.4077 -1.5168
13461TIP3   OH261873   0.724   1.030  16.057  0.0158 -0.5759  0.4826
13461TIP3    H161874   0.809   1.044  16.014 -0.2200  0.0029  0.1924
13461TIP3    H261875   0.734   1.071  16.143 -0.0232 -0.3758  0.3910
13462TIP3   OH261876   6.438   1.568  11.421 -0.2247  0.5304  0.6856
13462TIP3    H161877   6.386   1.572  11.341 -1.3069 -0.1283  1.3244
13462TIP3    H261878   6.388   1.617  11.485  0.2466  0.3956  1.1649
13463TIP3   OH261879   0.324   1.122  11.234  0.5148  0.1465 -0.4452
13463TIP3    H161880   0.321   1.133  11.329  1.6072 -1.1439 -0.2338
13463TIP3    H261881   0.232   1.114  11.208  0.1644  1.1357  0.4006
13464TIP3   OH261882   3.307   0.430  14.645 -0.1455  0.0528  0.1042
13464TIP3    H161883   3.251   0.353  14.637 -1.1268  0.5746  1.5589
13464TIP3    H261884   3.246   0.504  14.642  0.3673  0.6196  2.0660
13465TIP3   OH261885   0.834   1.869  12.657 -0.2746  0.0072 -0.6183
13465TIP3    H161886   0.902   1.839  12.717  0.3724 -2.4217 -2.4374
13465TIP3    H261887   0.782   1.931  12.709  2.1183  0.4560  1.4167
13466TIP3   OH261888   3.488   0.548  11.773  0.0727  0.0992 -0.4072
13466TIP3    H161889   3.409   0.583  11.814 -0.1252 -1.7602  0.8965
13466TIP3    H261890   3.458   0.470  11.727  1.0198 -0.1708 -0.5807
13467TIP3   OH261891   1.514   3.851   0.478  0.2872 -0.2769  0.4399
13467TIP3    H161892   1.599   3.889   0.458 -0.0780 -0.1053 -0.8482
13467TIP3    H261893   1.509   3.851   0.574  1.8108 -0.4846  0.5335
13468TIP3   OH261894   4.262   0.708  15.779  0.1029 -0.5199  0.1034
13468TIP3    H161895   4.260   0.612  15.777 -2.8854 -0.5548 -0.9639
13468TIP3    H261896   4.220   0.731  15.862 -0.4337 -0.1870 -0.2522
13469TIP3   OH261897   4.421   4.726   4.165  0.0330 -0.0598 -0.4970
13469TIP3    H161898   4.336   4.753   4.198  0.4325  1.0830 -0.3671
13469TIP3    H261899   4.474   4.806   4.165  0.7789 -0.5277 -1.6059
13470TIP3   OH261900   1.447   1.841   0.818 -0.3314 -0.2279  0.8274
13470TIP3    H161901   1.356   1.809   0.816 -0.1333 -0.8596  1.5613
13470TIP3    H261902   1.445   1.916   0.877 -0.3036 -0.5003  1.1801
13471TIP3   OH261903   5.366   2.801  16.712 -0.7845 -0.3597 -0.3310
13471TIP3    H161904   5.289   2.744  16.709 -0.6793 -0.4786 -1.1718
13471TIP3    H261905   5.439   2.743  16.689  0.1955 -1.1718  4.0098
13472TIP3   OH261906   2.571   3.259   2.331  0.4288  0.3219 -0.5696
13472TIP3    H161907   2.592   3.166   2.321  0.3478 -0.1434  2.5646
13472TIP3    H261908   2.655   3.303   2.325  1.2487 -0.5538  2.5471
13473TIP3   OH261909   1.616   2.852   4.970 -0.2782 -0.1289  0.0057
13473TIP3    H161910   1.680   2.780   4.977 -1.1612 -1.1757 -1.8872
13473TIP3    H261911   1.531   2.808   4.969 -1.0359  1.1860  1.6085
13474TIP3   OH261912   1.695   1.511  13.516  0.4682 -0.0448  0.0026
13474TIP3    H161913   1.746   1.503  13.596 -0.4211  2.3571  0.9056
13474TIP3    H261914   1.664   1.601  13.516  1.4852  0.5077 -3.7085
13475TIP3   OH261915   5.702   0.834   1.042 -0.0096  0.1035  0.6298
13475TIP3    H161916   5.630   0.873   0.992  1.5606  0.0461 -1.8362
13475TIP3    H261917   5.776   0.892   1.026  1.2423 -1.4325  0.6194
13476TIP3   OH261918   0.433   6.504  14.177  0.3297 -0.2125  0.4283
13476TIP3    H161919   0.518   6.475  14.209  0.3399  0.6601  1.2402
13476TIP3    H261920   0.411   6.581  14.231 -0.1096  0.7251 -1.0043
13477TIP3   OH261921   0.148   6.019  15.124  0.2719 -0.4165 -0.5229
13477TIP3    H161922   0.207   6.054  15.058  1.0969 -0.2579  0.2932
13477TIP3    H261923   0.202   5.961  15.177 -0.7986 -2.0355 -1.1129
13478TIP3   OH261924   5.002   1.910   2.313  0.5434  0.5967  0.0138
13478TIP3    H161925   5.034   1.940   2.228  1.6192  1.6717  0.7604
13478TIP3    H261926   5.006   1.814   2.309  0.8298  0.6487 -1.0471
13479TIP3   OH261927   1.437   2.562  12.697 -0.7793  0.0733  0.3474
13479TIP3    H161928   1.397   2.475  12.705 -2.0213  0.4549 -1.1865
13479TIP3    H261929   1.487   2.572  12.778  1.2392 -2.9384 -0.3593
13480TIP3   OH261930   5.399   0.316   0.748 -0.5426  0.0724 -0.4284
13480TIP3    H161931   5.404   0.403   0.710 -0.0772  0.1041 -0.3011
13480TIP3    H261932   5.446   0.323   0.831  1.3648 -0.7985 -1.3610
13481TIP3   OH261933   4.337   3.189   1.225  0.3665  0.3998 -0.3591
13481TIP3    H161934   4.321   3.216   1.315  0.9683 -0.0793 -0.1008
13481TIP3    H261935   4.296   3.257   1.172  0.0665  0.7223  0.2741
13482TIP3   OH261936   0.107   5.140   4.336 -0.6384  0.2664  0.6915
13482TIP3    H161937   0.043   5.144   4.407 -0.3574  0.9882  0.9179
13482TIP3    H261938   0.064   5.090   4.267 -0.9563 -0.3358  1.3271
13483TIP3   OH261939   3.769   4.072  11.306 -0.3863 -0.3290  0.4582
13483TIP3    H161940   3.833   4.015  11.265 -0.9343 -1.7058  1.4587
13483TIP3    H261941   3.719   4.109  11.233  1.7023  1.0369 -0.3556
13484TIP3   OH261942   1.176   4.088   5.387  0.8070  0.0371  0.3271
13484TIP3    H161943   1.123   4.157   5.347  1.9907 -0.2925 -2.0227
13484TIP3    H261944   1.127   4.062   5.465 -3.2937 -1.1091 -2.2570
13485TIP3   OH261945   0.317   1.367  11.931 -0.2859  0.0367  0.3895
13485TIP3    H161946   0.332   1.292  11.874  0.3835  1.5020 -1.4576
13485TIP3    H261947   0.278   1.329  12.011 -0.8461 -2.1376 -0.8326
13486TIP3   OH261948   4.038   3.894   2.619  0.5869  0.4469  0.1735
13486TIP3    H161949   3.989   3.864   2.696  0.0120 -0.6915 -0.6163
13486TIP3    H261950   4.075   3.814   2.581  2.1424  1.1638  0.1135
13487TIP3   OH261951   0.089   2.476   2.132 -0.2497  0.0311 -1.0044
13487TIP3    H161952   0.115   2.477   2.040 -0.0602  0.0231 -0.9510
13487TIP3    H261953   0.029   2.401   2.139 -1.0065  0.5879 -1.3247
13488TIP3   OH261954   4.564   2.333   3.716 -0.1484 -0.2384 -0.6213
13488TIP3    H161955   4.573   2.422   3.751 -1.8604  0.2624 -1.2971
13488TIP3    H261956   4.538   2.347   3.625  1.6449 -1.4804 -1.3742
13489TIP3   OH261957   5.519   0.371  15.625  0.1537  0.1817  0.0314
13489TIP3    H161958   5.437   0.357  15.577  0.0337  0.7681  0.0556
13489TIP3    H261959   5.562   0.442  15.579 -1.1400  2.5229  2.1979
13490TIP3   OH261960   5.420   4.404  13.568  0.9292 -0.2563 -0.0766
13490TIP3    H161961   5.333   4.366  13.579  0.2469  1.0576 -0.7476
13490TIP3    H261962   5.429   4.414  13.473  1.3218  0.7238  0.0615
13491TIP3   OH261963   6.420   4.639   5.443  0.0680  0.0209  0.6671
13491TIP3    H161964   6.340   4.645   5.496  0.2702  0.3083  0.9444
13491TIP3    H261965   6.418   4.551   5.406 -1.6843  0.8477 -1.4209
13492TIP3   OH261966   4.683   6.753  15.515 -0.3134  0.7406  0.0401
13492TIP3    H161967   4.731   6.672  15.502 -0.3014  0.9700 -1.5121
13492TIP3    H261968   4.607   6.728  15.568  0.0529 -0.1449  0.1527
13493TIP3   OH261969   5.482   6.628  16.773  0.3521 -0.5410  0.0916
13493TIP3    H161970   5.498   6.591  16.860  1.8151 -1.1396 -0.3899
13493TIP3    H261971   5.428   6.562  16.729 -1.4111  0.3157  0.9155
13494TIP3   OH261972   0.866   1.425  12.878  0.0444 -0.3525 -0.1254
13494TIP3    H161973   0.940   1.415  12.819  1.3812  0.0907  1.3804
13494TIP3    H261974   0.879   1.357  12.944 -0.2556  0.4145  0.7525
13495TIP3   OH261975   4.639   1.183  13.310 -0.4776 -0.5019  0.4967
13495TIP3    H161976   4.622   1.276  13.293  0.1950 -0.4523  0.0776
13495TIP3    H261977   4.616   1.139  13.228 -1.1536 -0.7616  0.8138
13496TIP3   OH261978   3.143   1.457   3.600  0.3175  0.1035 -0.1651
13496TIP3    H161979   3.236   1.445   3.579  0.1688 -1.1242 -0.1980
13496TIP3    H261980   3.139   1.543   3.643  1.4213  0.2946 -0.4182
13497TIP3   OH261981   6.083   3.913  10.314  0.0127  0.3808  0.1779
13497TIP3    H161982   6.111   4.001  10.289 -0.0940 -0.2603 -2.5053
13497TIP3    H261983   6.162   3.872  10.350  0.0459  1.5342  1.5388
13498TIP3   OH261984   4.192   4.095   0.923 -0.1035 -0.1838 -0.6448
13498TIP3    H161985   4.119   4.133   0.972 -0.0047  1.5705 -1.7665
13498TIP3    H261986   4.270   4.125   0.969 -0.0470 -1.3622  0.0633
13499TIP3   OH261987   6.068   0.279  15.090  0.3528 -0.9053  0.1522
13499TIP3    H161988   6.117   0.226  15.028  0.1957 -0.9328  0.0514
13499TIP3    H261989   5.991   0.309  15.041  0.2875 -0.8321  0.2972
13500TIP3   OH261990   0.113   2.115  14.427  0.3805 -0.3773 -0.1920
13500TIP3    H161991   0.020   2.095  14.441  0.4660 -1.1389 -0.6611
13500TIP3    H261992   0.136   2.069  14.346  1.3530 -0.8242  0.3126
13501TIP3   OH261993   6.349   1.163   4.280 -0.2602 -0.2309 -0.0124
13501TIP3    H161994   6.444   1.174   4.283 -0.2328 -0.0571 -1.3320
13501TIP3    H261995   6.335   1.069   4.292  0.2176 -0.6020 -2.0939
13502TIP3   OH261996   2.319   5.564  15.939 -0.0139 -0.1575  0.0613
13502TIP3    H161997   2.250   5.518  15.890 -0.3027  1.7139 -1.3930
13502TIP3    H261998   2.272   5.618  16.003 -0.1650  2.6126 -2.2031
13503TIP3   OH261999   0.378   0.484   0.988  0.1491  0.1842  0.3864
13503TIP3    H162000   0.343   0.459   1.074 -0.8512 -1.1154 -0.3514
13503TIP3    H262001   0.306   0.468   0.927  1.5173 -1.0873 -0.9973
13504TIP3   OH262002   4.054   5.280   0.804  0.7277  0.0107  0.3798
13504TIP3    H162003   4.065   5.372   0.829 -0.1035 -0.2768  1.9606
13504TIP3    H262004   4.034   5.235   0.886  0.5307 -1.4991 -0.4504
13505TIP3   OH262005   3.668   2.539  15.319 -0.4357 -0.2677  0.5157
13505TIP3    H162006   3.592   2.481  15.330 -0.9850  0.2978 -0.1876
13505TIP3    H262007   3.741   2.490  15.355 -0.5193 -2.2045 -1.7195
13506TIP3   OH262008   0.362   1.576   4.999 -0.3352  0.0064  0.3511
13506TIP3    H162009   0.404   1.546   5.080 -0.3435 -0.5975  0.1427
13506TIP3    H262010   0.295   1.510   4.981 -0.1869  0.0176 -0.2607
13507TIP3   OH262011   0.185   0.450   5.331 -0.5977  0.1385 -0.1964
13507TIP3    H162012   0.175   0.519   5.397  0.6354 -0.2848  0.4596
13507TIP3    H262013   0.096   0.417   5.318 -0.9271  0.5401  0.9269
13508TIP3   OH262014   6.369   6.280  10.757 -0.2840 -0.1407  0.0797
13508TIP3    H162015   6.367   6.233  10.673 -2.8373 -0.7033  0.3760
13508TIP3    H262016   6.277   6.299  10.776  0.4444  2.9378  1.1596
13509TIP3   OH262017   1.038   1.458   2.529  0.2420  0.5079 -0.3393
13509TIP3    H162018   1.086   1.418   2.602 -1.3183  0.4821  0.7275
13509TIP3    H262019   1.079   1.544   2.518  0.9951  0.2084  0.0468
13510TIP3   OH262020   4.172   4.789   3.494 -0.4054 -0.3703  0.0453
13510TIP3    H162021   4.162   4.834   3.410  0.7302 -2.7225 -1.4365
13510TIP3    H262022   4.255   4.743   3.487  1.5549  2.0436  3.8737
13511TIP3   OH262023   1.244   4.488   0.448  0.1725 -0.6676  0.5242
13511TIP3    H162024   1.150   4.480   0.434 -0.2670 -0.7163  3.0027
13511TIP3    H262025   1.252   4.546   0.524  2.1889 -0.1871  0.0207
13512TIP3   OH262026   4.195   6.131  11.132  0.0217  0.1199 -0.1384
13512TIP3    H162027   4.155   6.104  11.214  1.3432  0.9533  0.8200
13512TIP3    H262028   4.235   6.051  11.097 -1.1861 -0.3938 -0.3620
13513TIP3   OH262029   1.259   3.580  14.566  0.2876  0.5512  0.4435
13513TIP3    H162030   1.320   3.648  14.538 -1.0584  2.1748  1.2892
13513TIP3    H262031   1.289   3.556  14.654  1.0451 -0.3355 -0.0385
13514TIP3   OH262032   0.926   5.548  12.227 -0.1897  0.2684 -0.0581
13514TIP3    H162033   0.970   5.620  12.181  0.3307 -1.7076 -2.9636
13514TIP3    H262034   0.989   5.521  12.294 -0.5140  2.5992  1.2772
13515TIP3   OH262035   4.824   2.432   3.917 -0.4071 -0.6766 -0.5786
13515TIP3    H162036   4.882   2.473   3.981 -0.4546 -1.3074 -0.1265
13515TIP3    H262037   4.736   2.462   3.942 -0.2845  0.4511 -1.3914
13516TIP3   OH262038   2.285   0.977  15.159 -0.6359  0.0345 -0.0860
13516TIP3    H162039   2.331   1.059  15.178 -0.5107  0.2497 -1.2253
13516TIP3    H262040   2.213   1.004  15.101 -0.5403 -0.6667 -0.5382
13517TIP3   OH262041   2.847   4.649  16.968  0.4180 -0.4301 -0.5529
13517TIP3    H162042   2.812   4.594  17.039 -1.3430  0.7883 -0.4132
13517TIP3    H262043   2.797   4.624  16.891  0.3766  0.2106 -0.7370
13518TIP3   OH262044   3.117   5.894   2.769 -0.1081  0.4333  0.2508
13518TIP3    H162045   3.164   5.834   2.711  0.1307  1.6946 -0.9149
13518TIP3    H262046   3.045   5.842   2.805 -0.5775 -0.2738 -1.5971
13519TIP3   OH262047   0.872   4.136   4.734  0.5107  0.1176  0.4931
13519TIP3    H162048   0.783   4.101   4.742  0.1387  0.1980 -2.3181
13519TIP3    H262049   0.929   4.060   4.750 -0.2520 -1.4099 -3.0032
13520TIP3   OH262050   0.828   6.353  16.378  0.3571  0.1299 -0.1958
13520TIP3    H162051   0.905   6.301  16.353 -0.3015 -0.9784  0.0007
13520TIP3    H262052   0.765   6.288  16.409 -1.2416  0.8444 -1.7758
13521TIP3   OH262053   4.925   5.275   3.467  0.5785  0.2337 -0.0640
13521TIP3    H162054   4.853   5.236   3.517  0.4296  0.6871  0.0850
13521TIP3    H262055   4.976   5.201   3.435  0.9171 -0.0634  1.1144
13522TIP3   OH262056   2.067   4.150  16.232  0.3258 -0.5713  0.0360
13522TIP3    H162057   2.136   4.155  16.166  1.5761  1.0184  1.3962
13522TIP3    H262058   2.001   4.212  16.202  1.0007  0.3284  0.3555
13523TIP3   OH262059   0.634   3.179   5.511 -0.1208 -0.8084 -0.1037
13523TIP3    H162060   0.603   3.089   5.519 -0.9433 -0.3829  2.4787
13523TIP3    H262061   0.709   3.183   5.571  0.0601  0.1779 -0.3819
13524TIP3   OH262062   0.986   3.161   3.627  0.2035 -0.5503 -0.1968
13524TIP3    H162063   0.968   3.254   3.643  2.0549  0.1042 -1.6698
13524TIP3    H262064   0.931   3.138   3.552 -1.0548 -0.9846  0.8108
13525TIP3   OH262065   3.226   4.757   3.403  0.5133 -0.0866  0.2293
13525TIP3    H162066   3.134   4.731   3.396  0.6090 -0.8130  1.4937
13525TIP3    H262067   3.229   4.818   3.476  0.9774  0.2711 -0.0786
13526TIP3   OH262068   0.098   1.156  16.568  0.1326 -0.0291  0.0101
13526TIP3    H162069   0.131   1.237  16.608  0.9796 -0.2068 -0.3078
13526TIP3    H262070   0.156   1.141  16.494 -0.2207 -0.7639 -0.1234
13527TIP3   OH262071   5.675   2.662   0.761 -0.7973  0.2361 -0.1932
13527TIP3    H162072   5.666   2.746   0.717  0.5201 -0.5772 -2.1630
13527TIP3    H262073   5.704   2.684   0.850 -0.7681  1.8584 -0.5850
13528TIP3   OH262074   4.711   1.492   2.399  0.4342 -0.2078  0.3072
13528TIP3    H162075   4.788   1.549   2.411  1.0966 -0.1399 -3.0559
13528TIP3    H262076   4.642   1.534   2.450  1.0786  3.3460 -1.3951
13529TIP3   OH262077   4.212   3.872  13.738 -0.4454  0.3823  0.2745
13529TIP3    H162078   4.219   3.951  13.685 -0.9064  0.8395  0.8836
13529TIP3    H262079   4.163   3.899  13.815  1.0930 -0.0259  1.4377
13530TIP3   OH262080   4.321   6.767  16.815 -0.1562 -0.2807 -0.4322
13530TIP3    H162081   4.230   6.782  16.787 -0.5463 -2.1569 -0.3309
13530TIP3    H262082   4.335   6.830  16.885 -1.1098  0.5828 -0.9823
13531TIP3   OH262083   4.457   3.625  15.799  0.0174 -0.1859 -0.5588
13531TIP3    H162084   4.409   3.545  15.779 -1.2496  0.3786  0.1039
13531TIP3    H262085   4.450   3.635  15.894 -1.4779  1.6668 -0.8086
13532TIP3   OH262086   0.192   0.533  15.208 -0.5620  0.0764 -0.2039
13532TIP3    H162087   0.268   0.476  15.220  0.7862  2.1661  2.1594
13532TIP3    H262088   0.119   0.482  15.241  0.5689 -0.4101  1.7059
13533TIP3   OH262089   5.679   3.087   0.080 -0.0854  0.3174 -0.0488
13533TIP3    H162090   5.707   3.179   0.079  2.0571 -0.2618  0.7350
13533TIP3    H262091   5.691   3.057  -0.009  1.3576  0.2486  0.1433
13534TIP3   OH262092   5.091   3.186  14.910  0.4904  0.0669  0.2916
13534TIP3    H162093   5.014   3.131  14.923 -0.9479  1.9215  0.0607
13534TIP3    H262094   5.060   3.259  14.856  2.3295  1.0836  0.5091
13535TIP3   OH262095   4.428   2.427   5.403  0.5371 -0.1929 -0.4522
13535TIP3    H162096   4.397   2.408   5.314 -1.3869 -0.2955  0.2074
13535TIP3    H262097   4.411   2.520   5.415 -2.2624 -0.7870  0.8903
13536TIP3   OH262098   3.944   1.411  14.536 -0.6286  0.0580 -0.4618
13536TIP3    H162099   3.988   1.487  14.498 -0.5705  0.1010 -0.3060
13536TIP3    H262100   3.955   1.342  14.470  0.1129 -0.0764 -0.2002
13537TIP3   OH262101   6.336   2.679  11.223 -0.3406 -0.2935 -0.4531
13537TIP3    H162102   6.354   2.619  11.150 -0.6553 -0.1410 -0.6561
13537TIP3    H262103   6.397   2.651  11.292 -1.7225 -2.0284  0.1388
13538TIP3   OH262104   0.592   4.673  11.908 -0.1684  0.0678 -0.1697
13538TIP3    H162105   0.531   4.613  11.867 -0.7861 -0.8863  1.9830
13538TIP3    H262106   0.579   4.756  11.861 -2.6112 -0.2853 -0.2734
13539TIP3   OH262107   5.027   3.044  13.724 -0.4787 -0.7078 -0.5911
13539TIP3    H162108   5.046   2.952  13.740 -1.2580 -1.0160 -1.3356
13539TIP3    H262109   4.997   3.047  13.633  2.7011  0.7676 -1.7461
13540TIP3   OH262110   6.785   5.725   1.287  0.7375  0.0462  0.1346
13540TIP3    H162111   6.699   5.682   1.287 -0.0253  1.5323 -0.0574
13540TIP3    H262112   6.803   5.742   1.380 -0.5796  2.3786  0.0291
13541TIP3   OH262113   3.967   1.226  13.315 -0.2105  0.2008  0.0157
13541TIP3    H162114   3.918   1.168  13.257 -0.4593  0.2434  0.1877
13541TIP3    H262115   3.920   1.225  13.398 -0.2740  0.7274 -0.0084
13542TIP3   OH262116   3.964   4.337  11.364 -0.0956 -0.3082  0.2835
13542TIP3    H162117   3.961   4.262  11.304  1.0512 -0.5741  0.5289
13542TIP3    H262118   3.934   4.411  11.312  1.2492 -0.4614 -0.7493
13543TIP3   OH262119   5.488   4.131  15.282  0.1310  0.2528  0.5031
13543TIP3    H162120   5.557   4.143  15.347 -0.3157 -0.2151  1.0763
13543TIP3    H262121   5.457   4.042  15.295 -0.4959  0.4113  0.1719
13544TIP3   OH262122   1.347   4.015   2.534 -0.0772  0.2366 -0.1060
13544TIP3    H162123   1.422   3.986   2.482  0.4705  0.4870  0.5232
13544TIP3    H262124   1.384   4.037   2.619 -0.8290  0.6090  0.1380
13545TIP3   OH262125   2.996   5.446  12.793 -0.0013  0.4161  0.0213
13545TIP3    H162126   3.018   5.533  12.826  0.2709  0.4011 -0.1202
13545TIP3    H262127   3.056   5.432  12.720 -1.4333  1.0076 -1.3376
13546TIP3   OH262128   4.629   3.043  14.441  0.1338 -0.4646  0.1181
13546TIP3    H162129   4.580   3.014  14.365  0.5725  1.0729 -0.7986
13546TIP3    H262130   4.611   2.977  14.508 -0.6910 -1.5652 -1.1335
13547TIP3   OH262131   1.180   6.526  14.329  0.0811  0.2401 -0.3142
13547TIP3    H162132   1.196   6.487  14.243 -0.6488  0.4997 -0.5696
13547TIP3    H262133   1.124   6.463  14.375 -0.7853  0.7966 -0.5885
13548TIP3   OH262134   0.063   6.230   0.431 -0.1812  0.1297 -0.3468
13548TIP3    H162135  -0.012   6.244   0.373  0.1393 -1.5042 -1.2446
13548TIP3    H262136   0.025   6.196   0.512 -0.4737  0.1568 -0.4733
13549TIP3   OH262137   1.185   0.865   2.952  0.4816  0.1125  0.2816
13549TIP3    H162138   1.214   0.882   2.862  3.8987 -2.4904  0.6777
13549TIP3    H262139   1.253   0.904   3.007  1.1696 -2.5335  1.4618
13550TIP3   OH262140   5.847   2.850   2.716  0.4497  0.1028  0.1502
13550TIP3    H162141   5.829   2.863   2.622 -0.0248 -1.4558  0.0074
13550TIP3    H262142   5.770   2.803   2.749  0.9130  0.0432  1.1880
13551TIP3   OH262143   4.447   4.605   5.846  0.4918  0.0820 -0.8500
13551TIP3    H162144   4.529   4.588   5.893  0.6007 -1.5159 -1.5579
13551TIP3    H262145   4.418   4.691   5.878  1.9444  0.2434  0.1115
13552TIP3   OH262146   4.514   0.219   1.113 -0.0490  0.1512 -0.5804
13552TIP3    H162147   4.596   0.183   1.146 -0.6120 -0.8612 -0.2125
13552TIP3    H262148   4.476   0.264   1.188  0.1296  0.5472 -0.7271
13553TIP3   OH262149   1.575   1.890  14.295 -0.0756  0.2990  0.1827
13553TIP3    H162150   1.670   1.891  14.298 -0.0881  2.2838  1.5063
13553TIP3    H262151   1.554   1.885  14.201  1.3237  0.6787 -0.1783
13554TIP3   OH262152   2.029   4.781   3.785  0.2978  0.3478 -0.4391
13554TIP3    H162153   2.081   4.861   3.791 -0.1553  0.5643  0.8861
13554TIP3    H262154   2.082   4.714   3.828 -0.6715  0.6707  1.3368
13555TIP3   OH262155   6.526   0.263  11.972 -0.0221  0.0861 -0.5993
13555TIP3    H162156   6.561   0.249  12.060  0.5043  1.8773 -0.4975
13555TIP3    H262157   6.431   0.269  11.985  0.0840  0.7059 -0.0984
13556TIP3   OH262158   6.498   5.043  12.689  0.5733  0.0876  0.1322
13556TIP3    H162159   6.587   5.060  12.718  0.0054 -0.7347  2.6133
13556TIP3    H262160   6.444   5.102  12.743 -0.5077 -1.0091  0.2856
13557TIP3   OH262161   5.354   6.690  12.974  0.0870 -0.0692  0.1577
13557TIP3    H162162   5.367   6.728  13.061 -2.0095  1.1257  0.0185
13557TIP3    H262163   5.298   6.614  12.989  0.3649 -0.3282 -0.0944
13558TIP3   OH262164   3.713   0.524  12.816  0.4501 -0.3125 -0.1258
13558TIP3    H162165   3.647   0.569  12.764 -1.3054  1.2086  3.0868
13558TIP3    H262166   3.783   0.504  12.754 -1.6911  0.7197 -3.1090
13559TIP3   OH262167   5.644   0.874   3.170  0.3212 -0.1649  0.1177
13559TIP3    H162168   5.597   0.951   3.205 -0.0610 -0.2992 -0.0940
13559TIP3    H262169   5.669   0.825   3.248  0.6061  0.1965  0.2586
13560TIP3   OH262170   4.236   3.299   5.298  0.2075  0.0482 -0.6299
13560TIP3    H162171   4.203   3.283   5.387  1.5162  0.0694 -0.1252
13560TIP3    H262172   4.328   3.324   5.310  0.6094 -0.6411 -2.0478
13561TIP3   OH262173   3.678   4.529   2.948 -0.0286  0.2033 -0.0597
13561TIP3    H162174   3.701   4.446   2.991 -3.6530 -3.1256 -3.5868
13561TIP3    H262175   3.724   4.526   2.864 -1.5006  0.7907 -0.9365
13562TIP3   OH262176   4.605   2.870   6.524  0.0652  0.4060  0.5070
13562TIP3    H162177   4.523   2.821   6.515 -0.2482  0.8969  0.6348
13562TIP3    H262178   4.673   2.802   6.534 -0.0969 -0.0632 -1.2193
13563TIP3   OH262179   4.123   2.438   5.446 -0.0365  0.6497  0.8702
13563TIP3    H162180   4.085   2.377   5.509  1.1860  0.9027  1.8950
13563TIP3    H262181   4.216   2.440   5.467  0.1197  2.0949  0.2047
13564TIP3   OH262182   3.243   1.516  14.639 -0.5861 -0.0790 -0.1753
13564TIP3    H162183   3.241   1.606  14.672 -0.4834 -0.0323 -0.2981
13564TIP3    H262184   3.171   1.472  14.684 -1.7329  0.5069 -1.3876
13565TIP3   OH262185   1.967   0.820  15.287 -0.0126 -0.1648 -0.0186
13565TIP3    H162186   1.908   0.894  15.300 -0.3937 -0.2995 -0.8657
13565TIP3    H262187   2.002   0.801  15.374 -1.1946 -0.0564  0.4997
13566TIP3   OH262188   0.201   1.810   1.499 -0.1885  0.3784  0.0796
13566TIP3    H162189   0.220   1.736   1.557 -3.4718 -0.1616  0.6295
13566TIP3    H262190   0.206   1.773   1.411  0.3169  0.0821  0.2232
13567TIP3   OH262191   6.375   3.394  13.976 -0.2833  0.3151 -0.7059
13567TIP3    H162192   6.435   3.466  13.992 -0.1807  0.4519 -1.6115
13567TIP3    H262193   6.315   3.394  14.050 -0.9123  1.9709 -1.1664
13568TIP3   OH262194   3.468   6.640   5.994  0.2201  0.3070  0.3045
13568TIP3    H162195   3.461   6.570   6.059  0.4909  0.5751  0.6259
13568TIP3    H262196   3.396   6.700   6.016  1.6777  1.5886  1.8166
13569TIP3   OH262197   0.205   3.069  15.887  0.2495 -0.2311  0.2643
13569TIP3    H162198   0.197   3.084  15.793 -0.4797 -2.3330 -0.0489
13569TIP3    H262199   0.147   3.134  15.926  0.6485  0.7448 -0.7082
13570TIP3   OH262200   3.053   6.084   3.212  0.0881  0.4132 -0.0940
13570TIP3    H162201   3.012   6.019   3.269 -1.0465  0.3103 -0.9811
13570TIP3    H262202   3.143   6.090   3.242  0.2546 -1.6738 -0.0882
13571TIP3   OH262203   5.854   5.244  12.521 -0.8887  0.3733 -0.2826
13571TIP3    H162204   5.909   5.171  12.493 -0.6585  0.1717  0.6678
13571TIP3    H262205   5.775   5.236  12.466 -0.8012 -0.4943 -0.3017
13572TIP3   OH262206   1.090   2.326  13.040 -0.1609 -0.3302 -0.4486
13572TIP3    H162207   1.028   2.389  13.003 -0.9056 -0.9154 -0.2114
13572TIP3    H262208   1.176   2.361  13.016 -0.4489  1.8774  1.3562
13573TIP3   OH262209   2.412   6.465  16.168 -0.1552 -0.1332  0.0961
13573TIP3    H162210   2.346   6.410  16.126  0.1145 -1.4470  1.3150
13573TIP3    H262211   2.374   6.553  16.168 -2.9020 -1.1813  2.6255
13574TIP3   OH262212   6.356   5.576  10.654  0.5611 -0.1881  0.0480
13574TIP3    H162213   6.360   5.480  10.655  1.8411 -0.1844  1.7538
13574TIP3    H262214   6.408   5.602  10.731 -2.3751  1.7973  1.5287
13575TIP3   OH262215   4.236   0.513   3.667  0.7151  0.0798  0.1966
13575TIP3    H162216   4.141   0.499   3.665  0.7882 -0.3244 -0.5253
13575TIP3    H262217   4.273   0.426   3.653  1.1982  0.2125  0.6242
13576TIP3   OH262218   3.461   2.241   5.108  0.3246  0.1442 -0.5411
13576TIP3    H162219   3.479   2.333   5.128  1.1570 -0.0833 -0.1992
13576TIP3    H262220   3.393   2.215   5.171 -0.0964  0.5869 -0.8070
13577TIP3   OH262221   4.097   5.152  15.927  0.2227  0.2211 -0.0659
13577TIP3    H162222   4.167   5.125  15.868  1.3768 -0.9524  1.7096
13577TIP3    H262223   4.058   5.069  15.957 -1.8513  0.8495 -0.8780
13578TIP3   OH262224   5.854   1.503   5.911  0.2010  0.1382  0.7315
13578TIP3    H162225   5.820   1.492   5.822  2.2500 -2.7142  0.1556
13578TIP3    H262226   5.790   1.459   5.966  0.4802 -0.9357  0.2335
13579TIP3   OH262227   2.548   2.503  11.299 -0.2426 -0.1772  0.3152
13579TIP3    H162228   2.514   2.441  11.363 -1.8031 -0.0809 -0.3772
13579TIP3    H262229   2.583   2.447  11.229  0.5855 -0.2700  0.7854
13580TIP3   OH262230   2.241   0.629   2.440 -0.5255  0.4586  0.1283
13580TIP3    H162231   2.274   0.676   2.516 -0.5977  0.2965  0.2591
13580TIP3    H262232   2.282   0.674   2.365  0.2077  0.0995  0.2985
13581TIP3   OH262233   2.982   1.349  11.539 -0.1995  0.0129 -0.4131
13581TIP3    H162234   3.048   1.394  11.592  0.3081  0.3844 -1.3450
13581TIP3    H262235   3.017   1.260  11.528 -0.9366 -0.4820  0.9551
13582TIP3   OH262236   2.276   0.449  16.589 -0.2991  0.3343  0.4057
13582TIP3    H162237   2.278   0.530  16.639  1.9778  0.2927  0.5114
13582TIP3    H262238   2.328   0.387  16.640  0.2407 -0.3719 -0.9304
13583TIP3   OH262239   3.448   3.799  15.661  0.0919  0.9645 -0.0621
13583TIP3    H162240   3.452   3.709  15.691  0.6033  1.0357  0.0921
13583TIP3    H262241   3.464   3.852  15.739 -2.2347  1.2698  0.2873
13584TIP3   OH262242   6.696   0.870  13.018 -0.2485  0.4411  0.1544
13584TIP3    H162243   6.693   0.775  13.029  0.0235  0.2447 -1.2380
13584TIP3    H262244   6.719   0.903  13.104  1.3180 -0.8710  0.2900
13585TIP3   OH262245   2.612   4.810   4.614  0.2818  0.5295  0.2191
13585TIP3    H162246   2.577   4.753   4.683  1.4509 -1.1288 -0.5184
13585TIP3    H262247   2.539   4.822   4.554  0.1181 -0.4737  0.2085
13586TIP3   OH262248   2.083   3.809  11.517  0.1691  0.5018  0.0529
13586TIP3    H162249   2.170   3.826  11.553  0.2535  0.4295 -0.1131
13586TIP3    H262250   2.037   3.893  11.527  0.0887  0.3908  0.6039
13587TIP3   OH262251   6.266   4.232   1.361 -0.1034 -0.5385 -0.0753
13587TIP3    H162252   6.288   4.296   1.429 -1.5630  0.4426 -0.4865
13587TIP3    H262253   6.296   4.272   1.279 -2.4215  0.4241 -0.5369
13588TIP3   OH262254   5.057   5.476   1.972 -0.1432 -0.2387 -0.4545
13588TIP3    H162255   4.994   5.545   1.992  1.9411  1.8849 -0.7426
13588TIP3    H262256   5.134   5.523   1.939  1.5485 -2.6849 -0.2430
13589TIP3   OH262257   3.892   0.778   4.255  0.8102  0.4561 -0.2640
13589TIP3    H162258   3.946   0.699   4.261  0.0404 -0.1548 -1.0882
13589TIP3    H262259   3.908   0.812   4.167 -0.0068  0.3476 -0.4679
13590TIP3   OH262260   1.361   4.377  12.614 -0.9177  0.1859  0.4653
13590TIP3    H162261   1.269   4.402  12.604 -0.3260  1.8641 -1.6265
13590TIP3    H262262   1.395   4.376  12.524  1.0318 -0.7511  1.1569
13591TIP3   OH262263   0.068   5.515  13.931 -0.6958  0.3954 -0.3161
13591TIP3    H162264   0.026   5.429  13.932  1.0361 -0.5358 -1.4003
13591TIP3    H262265   0.065   5.544  14.022  1.6102 -2.3788  0.8228
13592TIP3   OH262266   6.027   2.125  13.540 -0.2725 -0.1394  0.3762
13592TIP3    H162267   5.950   2.138  13.484 -0.4309 -0.6493  0.4758
13592TIP3    H262268   6.098   2.108  13.478 -0.3485 -0.2151  0.3101
13593TIP3   OH262269   0.961   3.992   0.595 -0.3402 -0.0351  0.3283
13593TIP3    H162270   1.047   3.950   0.594 -0.0437  0.5246  1.2933
13593TIP3    H262271   0.973   4.071   0.543 -0.9000 -1.0880 -1.4944
13594TIP3   OH262272   5.419   3.356  14.607  0.7142  0.4693 -0.2106
13594TIP3    H162273   5.390   3.313  14.687  1.2247  0.4252 -0.0470
13594TIP3    H262274   5.452   3.441  14.636  1.0022  0.4091 -0.3575
13595TIP3   OH262275   2.579   2.095   4.354  0.0857  0.3368  0.2449
13595TIP3    H162276   2.670   2.093   4.323  0.8835  0.5299  2.4130
13595TIP3    H262277   2.561   2.005   4.381  0.0907  0.5648  1.0208
13596TIP3   OH262278   3.839   4.788  11.784 -0.0520 -0.4086 -0.1349
13596TIP3    H162279   3.823   4.734  11.706 -1.8231 -0.6666  0.3683
13596TIP3    H262280   3.825   4.729  11.858  1.2091 -0.0604  0.4012
13597TIP3   OH262281   0.788   5.178  14.297  0.0006 -0.8819 -0.0286
13597TIP3    H162282   0.808   5.214  14.211 -1.5639 -0.5609 -0.2860
13597TIP3    H262283   0.845   5.226  14.357  0.2489 -0.2640 -0.7380
13598TIP3   OH262284   5.968   2.323  12.745 -0.2011 -0.0936 -0.2561
13598TIP3    H162285   6.000   2.276  12.822  0.2198  1.4655  0.5552
13598TIP3    H262286   5.879   2.291  12.733  0.3971 -1.8202 -0.3519
13599TIP3   OH262287   1.195   6.115   3.816  0.0922  0.2173  0.1422
13599TIP3    H162288   1.129   6.050   3.791 -0.4906  0.9635 -0.2947
13599TIP3    H262289   1.274   6.063   3.833 -0.4097 -0.6223 -0.0086
13600TIP3   OH262290   0.022   0.459   0.583  0.2758  0.2793  0.4517
13600TIP3    H162291  -0.047   0.400   0.613 -0.0299 -0.3292 -1.3186
13600TIP3    H262292   0.078   0.471   0.659 -0.3221 -1.3383  1.1939
13601TIP3   OH262293   6.204   2.325  14.608  0.3206  0.4560 -0.2687
13601TIP3    H162294   6.293   2.360  14.599  0.2531  0.9010  0.6656
13601TIP3    H262295   6.154   2.397  14.646  0.0431 -0.4573  1.1749
13602TIP3   OH262296   2.304   0.345   3.743  0.2300  0.1236  0.0179
13602TIP3    H162297   2.265   0.261   3.770  1.1839 -0.9007 -1.6221
13602TIP3    H262298   2.398   0.329   3.744  0.3792  0.2062 -3.0166
13603TIP3   OH262299   3.893   6.402  13.309 -0.1787  0.4967  0.1922
13603TIP3    H162300   3.892   6.355  13.226  0.1598  1.0390 -0.1211
13603TIP3    H262301   3.822   6.363  13.359 -0.4564  0.2450 -0.3908
13604TIP3   OH262302   4.587   1.908  16.227 -0.2718  0.2159 -0.1545
13604TIP3    H162303   4.667   1.954  16.203 -0.1840  0.2967  0.2900
13604TIP3    H262304   4.562   1.860  16.148  0.5327 -0.2700 -0.1260
13605TIP3   OH262305   5.460   3.925  13.744  0.0767 -0.2658 -0.0404
13605TIP3    H162306   5.539   3.872  13.757 -0.6193 -1.0071  1.2409
13605TIP3    H262307   5.416   3.883  13.670  1.0930  0.4520 -1.1076
13606TIP3   OH262308   5.300   4.952   6.465 -0.1672  0.1216  0.0919
13606TIP3    H162309   5.262   4.865   6.460 -0.3102 -0.0756  2.8516
13606TIP3    H262310   5.361   4.956   6.392 -1.7605 -1.4237 -1.4253
13607TIP3   OH262311   6.567   4.625  13.804 -0.2829 -0.2129  0.0882
13607TIP3    H162312   6.616   4.597  13.882 -2.5613 -0.6696  1.4309
13607TIP3    H262313   6.555   4.719  13.816 -1.8135 -0.4990  1.0469
13608TIP3   OH262314   4.636   6.242  16.162 -0.2237  0.4448  0.4013
13608TIP3    H162315   4.614   6.334  16.149 -0.3446  0.1231 -2.1070
13608TIP3    H262316   4.630   6.203  16.075 -0.0994 -1.9378  1.3788
13609TIP3   OH262317   5.827   6.252   2.453 -0.1390 -0.1164 -0.2297
13609TIP3    H162318   5.864   6.192   2.517 -0.4822  1.0992  1.1489
13609TIP3    H262319   5.885   6.327   2.454 -0.1300 -0.0832 -1.4001
13610TIP3   OH262320   1.142   6.169  12.761 -0.2128 -0.4402  0.2911
13610TIP3    H162321   1.220   6.199  12.715 -0.5729  0.9996  0.5668
13610TIP3    H262322   1.073   6.173  12.695  0.1344 -2.9699 -0.3274
13611TIP3   OH262323   6.818   0.498   1.274 -0.2412  0.6744  0.7212
13611TIP3    H162324   6.849   0.438   1.207 -0.8262  0.4920  0.6112
13611TIP3    H262325   6.829   0.585   1.236  0.3582  0.6272  0.7785
13612TIP3   OH262326   2.649   3.410   0.213 -0.0422  0.1138  0.4488
13612TIP3    H162327   2.562   3.451   0.206  0.4197  1.1694  0.5853
13612TIP3    H262328   2.700   3.452   0.143  0.8275  0.7965  1.4540
13613TIP3   OH262329   0.450   3.024  16.035  0.5137  0.1119 -0.3045
13613TIP3    H162330   0.512   3.065  15.975 -0.1712 -2.1460 -2.7455
13613TIP3    H262331   0.367   3.021  15.987 -0.4511 -0.5821  1.2979
13614TIP3   OH262332   6.699   4.563  11.175 -0.4609 -0.0010  0.5288
13614TIP3    H162333   6.705   4.519  11.260 -0.9481  0.6692  0.9307
13614TIP3    H262334   6.733   4.651  11.192 -0.1251 -0.0089 -0.0896
13615TIP3   OH262335   5.651   0.742   2.729 -0.3242 -0.5897 -0.3253
13615TIP3    H162336   5.652   0.685   2.806  2.4116 -0.1128  0.1341
13615TIP3    H262337   5.617   0.825   2.762  0.0379 -0.6361  0.1886
13616TIP3   OH262338   4.815   1.204  15.738  0.2963 -0.3214 -0.2649
13616TIP3    H162339   4.839   1.254  15.659 -1.5364 -0.9337 -1.2569
13616TIP3    H262340   4.867   1.124  15.732  1.4704  0.3779  0.0988
13617TIP3   OH262341   5.382   4.203   3.815  0.2616  0.3679  0.5119
13617TIP3    H162342   5.453   4.139   3.809 -0.2602 -0.2502  0.7345
13617TIP3    H262343   5.337   4.196   3.731 -0.1226  0.0367  0.7383
13618TIP3   OH262344   1.635   4.922   0.487 -0.0107  0.2604 -0.1123
13618TIP3    H162345   1.658   5.014   0.475  0.5172 -0.1411 -3.0739
13618TIP3    H262346   1.716   4.880   0.515 -0.0112  0.5601  0.3378
13619TIP3   OH262347   0.007   1.083  15.732 -0.2280  0.4118  0.0242
13619TIP3    H162348  -0.043   1.164  15.746 -1.6192 -0.4738  0.3843
13619TIP3    H262349  -0.049   1.014  15.767  1.2337 -0.6489  0.3536
13620TIP3   OH262350   5.929   2.865  12.837 -0.2587 -0.3940 -0.2824
13620TIP3    H162351   6.008   2.837  12.789  1.8895  2.8831  1.0044
13620TIP3    H262352   5.868   2.890  12.768  1.3975  0.8208 -1.3938
13621TIP3   OH262353   2.199   1.280   3.476  0.3544 -0.3728 -0.2289
13621TIP3    H162354   2.191   1.186   3.466 -0.5114 -0.2730 -0.5706
13621TIP3    H262355   2.259   1.292   3.550  0.4428 -1.1844 -0.1660
13622TIP3   OH262356   3.188   2.857  15.616 -0.0015 -0.1372  0.2025
13622TIP3    H162357   3.114   2.798  15.601  0.6955 -0.5529 -1.8527
13622TIP3    H262358   3.152   2.945  15.610 -0.4704 -0.3397  0.0475
13623TIP3   OH262359   3.045   0.390   0.190  0.7301  0.1416 -0.7862
13623TIP3    H162360   3.113   0.386   0.257 -0.0589  0.2135  0.0409
13623TIP3    H262361   2.992   0.311   0.205  0.6101  0.1062 -1.3906
13624TIP3   OH262362   6.467   5.638   0.244  0.3335 -0.8396  0.1816
13624TIP3    H162363   6.400   5.633   0.312 -1.6447 -1.9071 -1.7260
13624TIP3    H262364   6.419   5.623   0.162  2.7262 -0.3667 -1.3998
13625TIP3   OH262365   2.268   5.975   4.128 -0.1490 -0.1459 -0.1710
13625TIP3    H162366   2.198   6.040   4.134 -1.8258 -1.8169 -0.8021
13625TIP3    H262367   2.285   5.950   4.219  0.8015  1.4105  0.1139
13626TIP3   OH262368   0.363   0.375  11.513 -0.0467  0.4311 -0.4025
13626TIP3    H162369   0.362   0.289  11.471 -1.5578 -0.1512  0.6944
13626TIP3    H262370   0.389   0.436  11.445  1.5380 -0.9399 -1.0868
13627TIP3   OH262371   0.707   5.855  13.359  0.1446 -0.3930  0.0120
13627TIP3    H162372   0.690   5.773  13.407  1.6532  0.9898  3.2556
13627TIP3    H262373   0.800   5.872  13.375 -0.1461  1.9988 -0.5010
13628TIP3   OH262374   4.531   0.215   2.359  0.3299 -0.0119  0.2993
13628TIP3    H162375   4.590   0.279   2.318 -0.4269 -0.1726 -1.0982
13628TIP3    H262376   4.470   0.191   2.290 -1.7770  0.5969  1.8349
13629TIP3   OH262377   0.757   4.458   5.158  0.1777  0.2189 -0.4639
13629TIP3    H162378   0.749   4.539   5.209  1.4337 -0.5156  1.0110
13629TIP3    H262379   0.803   4.484   5.078 -0.2073  1.1018 -0.4035
13630TIP3   OH262380   6.710   5.147  16.571 -0.0030  0.0466  0.4225
13630TIP3    H162381   6.774   5.192  16.516  0.4668 -1.3073 -0.1625
13630TIP3    H262382   6.642   5.213  16.587  0.4283  0.8149 -0.7969
13631TIP3   OH262383   2.817   6.536  16.771  0.3251  0.5024 -0.4863
13631TIP3    H162384   2.761   6.604  16.809 -0.1392 -0.5053  0.7063
13631TIP3    H262385   2.826   6.470  16.840  1.8241 -0.0523 -1.1536
13632TIP3   OH262386   1.074   5.778   2.018  0.6732  0.4557 -0.4272
13632TIP3    H162387   1.025   5.775   2.100 -1.0892 -0.4163 -1.4611
13632TIP3    H262388   1.125   5.698   2.017  1.2143  0.7865  0.1013
13633TIP3   OH262389   5.839   5.895   2.434 -0.1927  0.7704  0.2093
13633TIP3    H162390   5.789   5.821   2.471  0.5047 -0.8535 -1.9027
13633TIP3    H262391   5.808   5.902   2.344  1.2856  1.6688 -0.2574
13634TIP3   OH262392   3.834   3.139   2.647 -0.1297  0.4056  0.2403
13634TIP3    H162393   3.782   3.104   2.574  0.5515  1.4617 -0.7943
13634TIP3    H262394   3.909   3.079   2.653 -1.1620 -0.8108  1.3850
13635TIP3   OH262395   3.212   5.026   4.020  0.6495 -0.2703  0.3576
13635TIP3    H162396   3.171   5.094   3.967  1.0821  0.7168  1.2653
13635TIP3    H262397   3.248   4.964   3.956  0.2342  0.3367 -0.4756
13636TIP3   OH262398   6.754   4.027   3.808  0.1749 -0.1872 -0.4774
13636TIP3    H162399   6.718   3.954   3.858  2.2063 -0.3136  0.9393
13636TIP3    H262400   6.682   4.090   3.801 -0.8962 -1.2660  0.4332
13637TIP3   OH262401   1.548   2.086   4.604  0.7320 -0.9140 -0.5993
13637TIP3    H162402   1.614   2.029   4.564 -0.5281 -2.4718 -0.5924
13637TIP3    H262403   1.537   2.051   4.692 -0.0551 -0.6587 -0.5886
13638TIP3   OH262404   2.351   1.158   1.433 -0.4714 -0.2599  0.7233
13638TIP3    H162405   2.259   1.184   1.433 -0.3709  0.4038 -1.7246
13638TIP3    H262406   2.371   1.143   1.340  1.6564 -1.2605  1.2837
13639TIP3   OH262407   4.167   2.270  14.560  0.6156  0.4791  0.2245
13639TIP3    H162408   4.073   2.272  14.540  0.6564  2.8857 -0.0529
13639TIP3    H262409   4.191   2.362  14.572  3.1845  0.0363 -0.8390
13640TIP3   OH262410   3.934   2.190   2.949  0.4463 -0.5008  0.0357
13640TIP3    H162411   3.945   2.278   2.986  0.5607 -0.3235 -0.4099
13640TIP3    H262412   3.900   2.138   3.021 -0.8703  0.2106 -0.0489
13641TIP3   OH262413   5.332   5.031  15.327 -0.1670  0.0367 -0.4472
13641TIP3    H162414   5.265   5.024  15.395  0.8857  0.4762  0.6745
13641TIP3    H262415   5.289   5.080  15.257 -1.0433  0.2537  0.2158
13642TIP3   OH262416   6.458   2.088   4.585  0.9713  0.8197 -0.2101
13642TIP3    H162417   6.425   2.042   4.663  1.1104  0.5975 -0.2797
13642TIP3    H262418   6.553   2.077   4.590  1.1533  2.4332  0.6109
13643TIP3   OH262419   0.328   2.989  13.818 -0.8410  0.3553 -0.1188
13643TIP3    H162420   0.317   2.939  13.899  2.4786  1.3471  1.1212
13643TIP3    H262421   0.339   3.080  13.847 -0.7949  0.9229 -1.7990
13644TIP3   OH262422   5.069   6.545   4.427  0.1355 -0.6086 -0.0805
13644TIP3    H162423   5.150   6.585   4.455 -1.0683  1.7218  0.2895
13644TIP3    H262424   5.072   6.548   4.332  0.8434 -1.3977 -0.0993
13645TIP3   OH262425   2.285   1.872  13.540 -0.3144 -1.0637  0.3464
13645TIP3    H162426   2.264   1.941  13.477 -0.7308 -2.6913 -1.3669
13645TIP3    H262427   2.374   1.894  13.569 -0.6494  0.5044  0.3107
13646TIP3   OH262428   6.571   6.260   2.840 -0.3568  0.4727  0.1911
13646TIP3    H162429   6.658   6.282   2.806  0.3854  0.7179  2.1039
13646TIP3    H262430   6.510   6.299   2.778  0.9171  2.4184  0.0891
13647TIP3   OH262431   2.639   2.807   0.438 -0.4408 -0.4155 -0.3353
13647TIP3    H162432   2.733   2.802   0.417 -0.3622 -0.8071  0.0940
13647TIP3    H262433   2.604   2.721   0.413 -0.8980  0.0719 -1.4524
13648TIP3   OH262434   4.893   6.090  14.022  0.0246  0.4168  0.5101
13648TIP3    H162435   4.845   6.030  13.965  2.3211 -1.2777  0.2607
13648TIP3    H262436   4.912   6.166  13.966  0.6129 -0.4005 -0.4159
13649TIP3   OH262437   1.243   2.619   0.642 -0.4727 -0.6635  0.0381
13649TIP3    H162438   1.160   2.633   0.687  0.7238  2.1302  1.6978
13649TIP3    H262439   1.309   2.621   0.712  1.1252 -1.0783 -1.3740
13650TIP3   OH262440   2.398   2.627  11.759  0.2709 -0.1098  0.6332
13650TIP3    H162441   2.384   2.623  11.665  1.8538  1.0191  0.3151
13650TIP3    H262442   2.320   2.587  11.797 -3.3326  4.6276 -0.9240
13651TIP3   OH262443   4.444   6.294  14.391  0.4570 -0.1350  0.8150
13651TIP3    H162444   4.392   6.374  14.400  1.3343  0.7138 -1.1427
13651TIP3    H262445   4.470   6.273  14.481  0.0915  1.7226  1.4135
13652TIP3   OH262446   5.096   3.063   6.095 -0.4467 -0.0911  0.0046
13652TIP3    H162447   5.182   3.076   6.055 -0.4118 -0.8865 -0.2061
13652TIP3    H262448   5.114   3.046   6.187 -0.4420  0.5273  0.1242
13653TIP3   OH262449   2.008   6.031   5.447  0.5072 -0.2575  0.6730
13653TIP3    H162450   2.003   6.037   5.542 -0.0313 -1.2352  0.7252
13653TIP3    H262451   2.091   5.986   5.430 -0.0385 -1.3467  0.7699
13654TIP3   OH262452   1.905   6.550   0.507 -0.2616  0.0743 -0.1514
13654TIP3    H162453   1.972   6.565   0.440  1.0137 -2.8081  0.3150
13654TIP3    H262454   1.851   6.480   0.472  0.1007 -1.1207  1.5411
13655TIP3   OH262455   5.732   6.321  11.911 -0.0896 -0.1200 -0.0699
13655TIP3    H162456   5.688   6.255  11.857 -0.2061 -0.3488  0.2986
13655TIP3    H262457   5.803   6.273  11.954  0.0267  0.0678 -0.0504
13656TIP3   OH262458   0.681   5.593   1.075 -0.4666  0.6412 -0.5041
13656TIP3    H162459   0.765   5.561   1.109 -1.7135 -1.8130  0.5597
13656TIP3    H262460   0.704   5.669   1.022  2.2561  0.9387  0.9116
13657TIP3   OH262461   5.791   6.686   1.695  0.7805  0.5391  0.3207
13657TIP3    H162462   5.837   6.610   1.731 -0.0448 -0.4906 -0.7412
13657TIP3    H262463   5.703   6.679   1.730  0.2697  0.1263 -0.9777
13658TIP3   OH262464   3.409   2.067  11.797 -0.1898  0.6429  0.6815
13658TIP3    H162465   3.369   2.007  11.734 -1.0226  1.2737  0.5784
13658TIP3    H262466   3.358   2.148  11.788 -0.7599  0.5607  2.6031
13659TIP3   OH262467   4.337   6.100  11.725  0.0472  0.5971  0.6615
13659TIP3    H162468   4.343   6.052  11.642  0.7739  0.5570  0.7280
13659TIP3    H262469   4.312   6.034  11.789 -0.6866  0.6618  0.4513
13660TIP3   OH262470   4.537   2.147  11.774  0.4141  0.0392  0.5684
13660TIP3    H162471   4.535   2.077  11.710 -2.5073  0.3319  0.1969
13660TIP3    H262472   4.455   2.137  11.823  0.8133  2.0444  1.7511
13661TIP3   OH262473   5.519   4.379  11.362  0.7284 -0.5165  0.2290
13661TIP3    H162474   5.437   4.419  11.332  1.3514  0.6135 -0.0139
13661TIP3    H262475   5.573   4.372  11.283 -0.0626 -3.7722 -0.1760
13662TIP3   OH262476   4.869   2.469  13.959 -0.4766 -0.2736  0.1876
13662TIP3    H162477   4.824   2.551  13.939 -0.4133 -0.7251 -2.0170
13662TIP3    H262478   4.845   2.451  14.050 -3.0755  0.5521 -0.2466
13663TIP3   OH262479   1.511   6.811   1.592 -0.5056 -0.6316  0.1838
13663TIP3    H162480   1.456   6.776   1.521  0.7027 -0.2384 -0.9918
13663TIP3    H262481   1.452   6.864   1.645 -1.1109  0.5404 -1.5767
13664TIP3   OH262482   0.071   3.141   5.486 -0.0928  0.0686  0.1586
13664TIP3    H162483   0.090   3.191   5.407  0.8339 -0.8806 -0.2355
13664TIP3    H262484   0.040   3.207   5.549  0.4760  1.0387 -0.5507
13665TIP3   OH262485   0.651   5.499   4.637 -0.3417  0.2303 -0.1948
13665TIP3    H162486   0.699   5.524   4.558 -0.2001 -0.9624 -0.5163
13665TIP3    H262487   0.715   5.454   4.691 -1.2360 -2.3445 -1.0916
13666TIP3   OH262488   6.398   4.971  16.014  0.1206  0.2542  0.0946
13666TIP3    H162489   6.426   5.032  15.947 -2.6109 -0.1210 -1.5398
13666TIP3    H262490   6.344   5.024  16.073 -1.9733 -0.3977 -1.1379
13667TIP3   OH262491   4.317   5.287  16.908 -0.1337  0.0751 -0.4167
13667TIP3    H162492   4.344   5.220  16.970 -1.7597 -1.2231 -1.0339
13667TIP3    H262493   4.380   5.358  16.920  0.2545 -0.5852  1.9230
13668TIP3   OH262494   6.532   1.802  12.022 -0.5316 -0.3350  0.4543
13668TIP3    H162495   6.437   1.796  12.009 -0.4032 -0.3723 -0.5640
13668TIP3    H262496   6.554   1.891  11.997 -0.3677 -0.1629  1.2027
13669TIP3   OH262497   0.549   1.831   1.377 -0.1765  0.7889 -0.2833
13669TIP3    H162498   0.596   1.750   1.356 -0.9024  0.0102  0.9999
13669TIP3    H262499   0.495   1.809   1.453 -2.4610  1.6886 -1.5255
13670TIP3   OH262500   3.595   2.327  17.027  0.0622 -0.1891 -0.0853
13670TIP3    H162501   3.661   2.391  17.053  1.3459 -1.5600  0.2134
13670TIP3    H262502   3.514   2.377  17.018  0.9836  1.4256  0.2591
13671TIP3   OH262503   5.755   2.566   3.739 -0.0586 -0.7955  0.2579
13671TIP3    H162504   5.793   2.652   3.755 -0.5650 -0.4772 -0.2472
13671TIP3    H262505   5.820   2.522   3.684  1.0007 -1.3698  1.8918
13672TIP3   OH262506   4.218   1.085   2.472 -0.2494 -0.0200 -0.4826
13672TIP3    H162507   4.275   1.064   2.546  0.3998 -1.9146 -1.4567
13672TIP3    H262508   4.241   1.175   2.448  0.3871  0.1814  0.8370
13673TIP3   OH262509   3.865   0.641   1.882  0.1378 -0.4810 -0.2297
13673TIP3    H162510   3.907   0.715   1.839 -0.3366 -0.3891 -0.5367
13673TIP3    H262511   3.773   0.667   1.892 -0.2122 -1.3284 -1.0490
13674TIP3   OH262512   4.244   5.827  13.127 -0.2079  0.1725 -0.1646
13674TIP3    H162513   4.212   5.877  13.201  0.2073 -0.1732  0.2528
13674TIP3    H262514   4.168   5.778  13.096 -0.9422  1.9858 -1.3716
13675TIP3   OH262515   5.075   2.622   3.593  0.2353 -0.3978  0.0947
13675TIP3    H162516   5.074   2.657   3.682 -1.0203  0.1470 -0.1055
13675TIP3    H262517   5.099   2.697   3.539 -1.3698 -0.0784 -0.2307
13676TIP3   OH262518   6.449   6.783  16.810  0.3736  0.0819 -0.4104
13676TIP3    H162519   6.361   6.808  16.839  0.3431 -1.3805  0.8614
13676TIP3    H262520   6.489   6.866  16.783 -0.8240  1.0258  0.5623
13677TIP3   OH262521   5.025   4.919   4.450  0.2430  0.2124  0.1065
13677TIP3    H162522   5.117   4.902   4.427 -0.2963 -0.9388 -1.4392
13677TIP3    H262523   5.010   4.867   4.529  0.5961 -0.6636 -0.3851
13678TIP3   OH262524   6.611   4.280   2.725 -0.1187  0.0517  0.5842
13678TIP3    H162525   6.687   4.239   2.683  0.1547  1.1859 -0.0704
13678TIP3    H262526   6.637   4.288   2.817 -0.3549 -1.5950  0.8382
13679TIP3   OH262527   0.984   0.780   6.423 -0.7268  0.3776  0.5480
13679TIP3    H162528   1.071   0.807   6.394 -0.5038 -0.4463  0.4389
13679TIP3    H262529   0.993   0.770   6.518 -0.8134  0.6905  0.5905
13680TIP3   OH262530   4.661   1.470   4.686  0.0198  0.1574 -0.0767
13680TIP3    H162531   4.575   1.490   4.648  0.3138  0.5165 -0.5854
13680TIP3    H262532   4.717   1.453   4.610  0.0951 -1.4030  0.2995
13681TIP3   OH262533   0.882   5.557   5.387 -0.1105  0.0601 -0.2712
13681TIP3    H162534   0.824   5.563   5.311 -0.7572  1.9266  0.3062
13681TIP3    H262535   0.826   5.578   5.462  0.9718  0.3976  0.4711
13682TIP3   OH262536   3.656   4.043   5.370 -0.1504 -0.0388 -0.4855
13682TIP3    H162537   3.678   4.097   5.446 -0.2157 -0.8104  0.0922
13682TIP3    H262538   3.741   4.011   5.338 -0.1517 -0.0216 -0.5054
13683TIP3   OH262539   2.470   2.240  12.736  0.0027  0.0012 -0.2671
13683TIP3    H162540   2.492   2.252  12.828 -0.8338 -0.4750  0.0054
13683TIP3    H262541   2.545   2.275  12.688 -0.5035  2.3288  0.5243
13684TIP3   OH262542   4.239   0.492  16.834 -0.0341  0.0266  0.4020
13684TIP3    H162543   4.177   0.421  16.846 -1.3214  1.1047  0.3088
13684TIP3    H262544   4.281   0.474  16.750  1.6231 -2.0379  1.5632
13685TIP3   OH262545   3.364   2.346  16.042  0.6111 -0.2432 -1.3071
13685TIP3    H162546   3.442   2.367  16.095 -0.3565 -1.5114  0.7492
13685TIP3    H262547   3.395   2.349  15.952  2.3015  2.3032 -0.7709
13686TIP3   OH262548   2.430   2.556  16.967  0.0755 -0.3560 -0.6246
13686TIP3    H162549   2.344   2.569  16.928 -0.1532  0.1187  0.0112
13686TIP3    H262550   2.457   2.643  16.996  0.0228 -0.7424  0.6823
13687TIP3   OH262551   0.014   1.468  12.698  0.0932 -0.3687  0.2295
13687TIP3    H162552   0.035   1.531  12.629 -1.9700 -0.3388 -0.4430
13687TIP3    H262553  -0.079   1.450  12.686  0.2159 -2.1432  1.5805
13688TIP3   OH262554   0.100   5.615  14.183  0.1149  0.4112  0.1162
13688TIP3    H162555   0.129   5.542  14.238  0.4762  1.4281  1.3355
13688TIP3    H262556   0.181   5.660  14.158 -0.1128  0.4956 -0.4756
13689TIP3   OH262557   5.602   2.457   4.378 -0.1487  0.0727  0.0331
13689TIP3    H162558   5.650   2.423   4.302  1.8212  0.2063  1.1301
13689TIP3    H262559   5.510   2.439   4.360  0.2769  0.0473 -2.3376
13690TIP3   OH262560   3.680   3.031  12.794  0.0957  0.2477 -0.1444
13690TIP3    H162561   3.660   3.067  12.881  1.1353 -2.1978  1.1940
13690TIP3    H262562   3.597   2.991  12.765  0.1795 -0.4286  0.5207
13691TIP3   OH262563   2.038   1.100  16.430 -0.3633 -0.1034  0.2701
13691TIP3    H162564   2.007   1.092  16.520  0.0345  1.5384  0.5806
13691TIP3    H262565   2.131   1.075  16.434 -0.7375 -1.7109 -0.0437
13692TIP3   OH262566   4.858   5.625  16.553 -0.4000 -0.3075 -0.1004
13692TIP3    H162567   4.776   5.592  16.589 -0.2117 -0.6386  0.0232
13692TIP3    H262568   4.853   5.720  16.565  0.0942 -0.4774  1.7069
13693TIP3   OH262569   1.955   0.408   2.505 -1.0427 -0.1454  0.1027
13693TIP3    H162570   1.897   0.434   2.433 -0.5937  0.6860  0.0229
13693TIP3    H262571   1.901   0.352   2.561 -1.2701 -1.1734 -1.1035
13694TIP3   OH262572   1.188   5.594   4.476  0.0687 -0.2924 -0.7248
13694TIP3    H162573   1.168   5.599   4.382 -1.4941  0.9004 -0.3710
13694TIP3    H262574   1.227   5.679   4.496  1.1283 -0.8370 -0.4262
13695TIP3   OH262575   4.073   3.516   4.708 -0.1713  0.1071 -0.4911
13695TIP3    H162576   4.117   3.552   4.785 -0.4464  1.2996 -0.8796
13695TIP3    H262577   4.141   3.465   4.663 -0.1121 -0.9662  0.7424
13696TIP3   OH262578   2.594   6.673  10.940 -0.1671  0.1996 -0.2683
13696TIP3    H162579   2.516   6.683  10.885 -0.5421  0.6829  0.3352
13696TIP3    H262580   2.663   6.719  10.891 -0.8177  1.8635  0.2950
13697TIP3   OH262581   3.618   1.438  11.131  0.5546  0.0843  0.2765
13697TIP3    H162582   3.544   1.382  11.106  0.9523 -0.3389  0.0481
13697TIP3    H262583   3.673   1.382  11.185  1.1416  0.1405 -0.2572
13698TIP3   OH262584   3.255   6.330   3.275 -0.4424  0.0871  0.4072
13698TIP3    H162585   3.161   6.344   3.281 -0.4672 -0.6172  3.0156
13698TIP3    H262586   3.264   6.237   3.252 -0.3624  0.3247 -0.5506
13699TIP3   OH262587   4.347   5.696   6.062 -0.2876 -0.2982 -0.5561
13699TIP3    H162588   4.352   5.657   6.149 -1.1587 -0.3203 -0.5096
13699TIP3    H262589   4.391   5.632   6.005  2.4318  0.8005  0.1858
13700TIP3   OH262590   0.836   3.792   3.936  0.8235  0.2096  0.4326
13700TIP3    H162591   0.831   3.801   3.841  0.7636  1.4148  0.5355
13700TIP3    H262592   0.752   3.826   3.968  0.6303 -0.6647  0.9011
13701TIP3   OH262593   2.557   0.924  14.318  0.1747  0.5282 -0.5128
13701TIP3    H162594   2.533   0.866  14.391 -2.2175  2.0590  0.0382
13701TIP3    H262595   2.486   0.914  14.255  0.9007  1.1775 -1.4597
13702TIP3   OH262596   2.168   3.183   5.501  0.0942 -0.3066 -0.3667
13702TIP3    H162597   2.111   3.249   5.541 -0.0788  0.1510 -1.3468
13702TIP3    H262598   2.228   3.234   5.447  1.1154 -0.8244  0.2549
13703TIP3   OH262599   6.551   6.029  16.116  0.2540 -0.4237  0.3280
13703TIP3    H162600   6.541   6.043  16.022 -0.3232  0.1200  0.4645
13703TIP3    H262601   6.566   6.116  16.152 -2.1996 -0.2344  1.0467
13704TIP3   OH262602   5.906   5.898   4.044 -0.0800 -0.5888 -0.1474
13704TIP3    H162603   5.960   5.895   3.965  0.1730  1.6589 -0.1478
13704TIP3    H262604   5.823   5.936   4.015  0.8336  2.5806  0.9342
13705TIP3   OH262605   4.855   6.570   2.544  0.0694  0.6587  0.0506
13705TIP3    H162606   4.934   6.613   2.513  0.7156 -1.0155 -0.7631
13705TIP3    H262607   4.864   6.568   2.640  1.6691 -0.6533 -0.0920
13706TIP3   OH262608   3.889   4.802  16.838 -0.1989  0.0941 -0.3120
13706TIP3    H162609   3.797   4.782  16.851 -0.0241 -0.2593  0.4239
13706TIP3    H262610   3.894   4.898  16.847 -0.1737 -0.0585  1.9173
13707TIP3   OH262611   6.513   5.326  11.588  0.2532 -0.1858  0.4566
13707TIP3    H162612   6.603   5.356  11.572 -0.0948 -0.3567 -2.4909
13707TIP3    H262613   6.518   5.231  11.583 -0.1616 -0.1733 -0.4659
13708TIP3   OH262614   5.513   2.826   5.393  0.6103 -0.1061 -0.5573
13708TIP3    H162615   5.555   2.834   5.479 -2.3509 -0.7687  1.1334
13708TIP3    H262616   5.540   2.904   5.345  0.3553  1.6730  1.9921
13709TIP3   OH262617   2.992   4.670   4.926  0.8062 -0.2483  0.0590
13709TIP3    H162618   2.951   4.596   4.881  0.0175  0.2550 -0.0782
13709TIP3    H262619   2.935   4.745   4.906 -0.3536 -0.2310  2.9239
13710TIP3   OH262620   5.079   4.669  13.974 -0.2997  0.2078 -1.0844
13710TIP3    H162621   4.992   4.692  14.010  0.4143  1.7060 -0.1993
13710TIP3    H262622   5.100   4.585  14.015  0.2433  1.6052  1.7367
13711TIP3   OH262623   2.749   5.336   3.852 -0.4653 -0.1888  0.2244
13711TIP3    H162624   2.695   5.402   3.810 -1.0420 -0.6032  0.2852
13711TIP3    H262625   2.723   5.254   3.810 -0.6424 -0.5298  0.9803
13712TIP3   OH262626   4.467   5.766  12.680 -0.0899 -0.1720  0.4279
13712TIP3    H162627   4.527   5.695  12.656  0.0368 -0.0218  0.3051
13712TIP3    H262628   4.524   5.838  12.706 -0.1105  0.9539 -2.2859
13713TIP3   OH262629   5.705   5.291  12.284  0.6362 -0.4713 -0.5273
13713TIP3    H162630   5.697   5.386  12.282  1.4354 -0.3281  1.1113
13713TIP3    H262631   5.651   5.260  12.211 -1.2197  1.1275  0.0928
13714TIP3   OH262632   3.134   6.605   1.104  0.9714  0.5728  0.2301
13714TIP3    H162633   3.142   6.572   1.194 -2.2280  0.4274  0.6079
13714TIP3    H262634   3.081   6.684   1.114 -0.0594  0.1516 -1.5623
13715TIP3   OH262635   2.007   2.107  15.304 -0.6413  0.0174 -0.4436
13715TIP3    H162636   1.951   2.082  15.231 -0.3800 -0.8737 -0.3457
13715TIP3    H262637   2.093   2.074  15.282 -0.7842 -1.2572  0.7550
13716TIP3   OH262638   2.451   3.934  10.631  0.4724  0.5806 -0.3871
13716TIP3    H162639   2.475   4.027  10.629 -0.3224  0.7887 -1.0874
13716TIP3    H262640   2.439   3.910  10.539 -0.1591  0.0183 -0.1704
13717TIP3   OH262641   1.749   6.039   2.209 -0.0030  0.0589  0.0238
13717TIP3    H162642   1.817   5.982   2.244 -1.8517 -2.1595  0.2745
13717TIP3    H262643   1.737   6.010   2.118  0.2087  1.2808 -0.4203
13718TIP3   OH262644   4.836   6.126  12.194 -0.0823 -0.5222  0.2041
13718TIP3    H162645   4.755   6.149  12.240  1.0756 -0.2570  2.2531
13718TIP3    H262646   4.849   6.033  12.213  0.5745 -0.3311  0.7495
13719TIP3   OH262647   6.434   0.409  12.292 -0.2795  0.0802  0.6579
13719TIP3    H162648   6.504   0.347  12.269  1.0039  1.5484  0.4330
13719TIP3    H262649   6.353   0.365  12.266  0.5956 -1.4521  0.4271
13720TIP3   OH262650   2.992   2.240  11.011 -0.7239  0.4500  0.3046
13720TIP3    H162651   2.979   2.235  10.916 -2.1768  0.1289  0.5031
13720TIP3    H262652   3.071   2.293  11.021 -1.0150  1.1887 -1.0630
13721TIP3   OH262653   0.148   6.281  16.293  0.6873  0.1369 -0.6234
13721TIP3    H162654   0.077   6.307  16.351 -0.4788  0.5270 -2.1725
13721TIP3    H262655   0.105   6.241  16.217  2.1600 -0.4075 -1.2173
13722TIP3   OH262656   6.238   2.279   2.049  0.0657  0.0495  0.0033
13722TIP3    H162657   6.239   2.316   1.960 -0.2480 -0.9577 -0.4224
13722TIP3    H262658   6.307   2.328   2.095  2.0438 -1.1632 -1.5291
13723TIP3   OH262659   5.956   4.105  16.303  0.5430 -0.0466 -1.0605
13723TIP3    H162660   5.871   4.138  16.332  0.7711  0.2959 -0.7654
13723TIP3    H262661   5.947   4.010  16.303  0.7844 -0.1185  0.9794
13724TIP3   OH262662   4.063   1.210  14.685  0.5994 -0.0016 -0.6740
13724TIP3    H162663   4.019   1.289  14.656 -0.1829 -0.9926 -2.3210
13724TIP3    H262664   3.994   1.157  14.726  0.8064 -0.4199 -0.8544
13725TIP3   OH262665   1.040   2.659  16.633 -0.2228 -0.2119 -0.2132
13725TIP3    H162666   1.126   2.695  16.610 -0.1401  0.8096  1.5594
13725TIP3    H262667   1.047   2.565  16.615  1.3793 -0.1990  0.2456
13726TIP3   OH262668   3.292   0.308  12.578 -0.3948 -1.0210  0.3552
13726TIP3    H162669   3.376   0.275  12.610 -0.0089  0.0952  0.5515
13726TIP3    H262670   3.247   0.231  12.544  0.3763 -1.7673  0.9869
13727TIP3   OH262671   3.121   6.605   3.619  0.4846  0.2377 -0.2844
13727TIP3    H162672   3.135   6.699   3.619 -1.4656  0.5776  1.0501
13727TIP3    H262673   3.173   6.573   3.545 -0.3722  2.5797 -2.0103
13728TIP3   OH262674   0.796   3.118  13.326  0.2518  0.3770 -0.1179
13728TIP3    H162675   0.821   3.033  13.288  0.2038  0.5451 -0.5353
13728TIP3    H262676   0.783   3.175  13.250 -0.7098  0.4880  0.1195
13729TIP3   OH262677   5.641   1.874   4.214  0.0224  0.0861  0.0170
13729TIP3    H162678   5.720   1.831   4.180  1.3970  1.0430  1.8185
13729TIP3    H262679   5.649   1.867   4.309 -2.3720 -0.2374  0.2627
13730TIP3   OH262680   2.419   0.016  14.364 -1.0424  0.2207  0.1170
13730TIP3    H162681   2.466  -0.016  14.441 -2.5775  0.8732  1.4026
13730TIP3    H262682   2.471   0.089  14.331 -0.9385  0.6603  1.2366
13731TIP3   OH262683   4.020   2.656   4.116  0.4062 -0.0460  0.1058
13731TIP3    H162684   4.045   2.643   4.207  0.2013 -0.1356  0.1498
13731TIP3    H262685   3.951   2.722   4.118 -2.0491 -2.4248  0.3759
13732TIP3   OH262686   0.800   0.022  12.243 -0.3394  0.2051 -0.4352
13732TIP3    H162687   0.802   0.089  12.311  1.1603  0.4731 -0.6999
13732TIP3    H262688   0.730   0.049  12.184  1.4683  2.7045 -1.6171
13733TIP3   OH262689   3.269   2.013   3.206 -0.4247 -0.2104  0.0806
13733TIP3    H162690   3.360   1.995   3.185 -0.2770  0.1685  0.3867
13733TIP3    H262691   3.219   1.970   3.136 -0.0511 -1.0382  0.3092
13734TIP3   OH262692   0.310   2.002   5.567 -0.2500 -0.1612 -0.0611
13734TIP3    H162693   0.325   2.055   5.488 -1.9627  0.6589  0.1144
13734TIP3    H262694   0.394   2.001   5.612  0.4184  0.4556 -1.2468
13735TIP3   OH262695   0.091   3.894   1.033 -0.1312  0.6796  0.0929
13735TIP3    H162696   0.145   3.836   0.978  0.7716  2.2854 -0.8004
13735TIP3    H262697   0.142   3.906   1.113 -0.1088  0.5839  0.0929
13736TIP3   OH262698   3.529   0.267  12.092 -0.0958  0.9010  0.0783
13736TIP3    H162699   3.473   0.276  12.015  0.1721  0.4414 -0.1753
13736TIP3    H262700   3.615   0.245  12.057 -0.2762 -0.6830  0.5602
13737TIP3   OH262701   2.048   2.937   1.100 -0.7014 -0.6136 -0.0422
13737TIP3    H162702   2.128   2.986   1.117 -1.0352  0.2674 -0.9428
13737TIP3    H262703   2.079   2.849   1.076  0.2774  0.5762 -3.7491
13738TIP3   OH262704   2.260   3.410  16.698 -0.3959  0.1545 -0.0639
13738TIP3    H162705   2.218   3.495  16.710 -1.9082 -0.6494  0.5937
13738TIP3    H262706   2.301   3.416  16.611 -0.8969  1.3694 -0.2364
13739TIP3   OH262707   3.357   4.417  16.421 -0.0019  0.2490 -0.2046
13739TIP3    H162708   3.301   4.482  16.379  0.5601  1.4028  0.7584
13739TIP3    H262709   3.388   4.362  16.350 -0.6558  0.9157 -1.0211
13740TIP3   OH262710   1.856   1.681  16.949 -0.2583  0.5674  0.7682
13740TIP3    H162711   1.830   1.706  17.038 -0.6467  0.2253  0.7518
13740TIP3    H262712   1.776   1.645  16.910  0.0682  0.1502  0.4841
13741TIP3   OH262713   1.741   6.229   4.143  0.1866 -0.1695 -0.1947
13741TIP3    H162714   1.766   6.165   4.210 -0.1089  0.4564  0.5386
13741TIP3    H262715   1.780   6.311   4.173  0.1194  0.1067 -0.8434
13742TIP3   OH262716   4.823   5.001  17.049 -0.3247 -0.1131  0.4099
13742TIP3    H162717   4.885   4.953  16.993  0.9901  0.4131  1.3765
13742TIP3    H262718   4.813   5.086  17.006  2.7021  1.2947  2.1821
13743TIP3   OH262719   3.500   5.713   0.762  0.7129 -0.0887  0.4567
13743TIP3    H162720   3.546   5.744   0.684  0.3660  0.6139  0.5198
13743TIP3    H262721   3.512   5.783   0.826 -0.9606  0.4164  0.2635
13744TIP3   OH262722   0.894   6.626  15.688  0.6983  0.1392  0.2987
13744TIP3    H162723   0.886   6.569  15.612  0.5180 -0.1797  0.5530
13744TIP3    H262724   0.854   6.708  15.661  2.6720  0.8185 -0.7254
13745TIP3   OH262725   3.093   2.573   4.862 -0.7004 -0.0288  0.3629
13745TIP3    H162726   3.067   2.481   4.855 -1.2316  0.2376 -1.7034
13745TIP3    H262727   3.177   2.571   4.908  0.5037 -1.7723 -1.7434
13746TIP3   OH262728   1.534   3.419  17.160  0.2805  0.0328 -0.1996
13746TIP3    H162729   1.450   3.399  17.200  0.2178 -0.2445 -0.4653
13746TIP3    H262730   1.557   3.505  17.195 -0.6159  0.5919 -0.9242
13747TIP3   OH262731   6.561   4.877  14.083 -0.0228 -0.3406  0.1530
13747TIP3    H162732   6.606   4.933  14.146 -2.4867  1.1971  0.6584
13747TIP3    H262733   6.549   4.793  14.129  0.2656 -0.0172  0.8321
13748TIP3   OH262734   6.765   2.059   1.085  0.1029  0.8959 -0.4463
13748TIP3    H162735   6.684   2.074   1.036 -0.1648  1.6831  0.2091
13748TIP3    H262736   6.827   2.025   1.020 -1.1353 -1.0362 -0.6777
13749TIP3   OH262737   1.167   4.026  11.575  0.4633  0.2240 -0.2626
13749TIP3    H162738   1.173   4.082  11.498  0.6037  1.5447  0.6737
13749TIP3    H262739   1.118   4.078  11.639  2.1614  0.0612  1.2675
13750TIP3   OH262740   0.911   0.512  15.032  0.0568  0.1205  0.5395
13750TIP3    H162741   0.996   0.513  14.988  0.5920  1.9129  1.4936
13750TIP3    H262742   0.848   0.527  14.962  0.6245  0.0173 -0.0094
13751TIP3   OH262743   2.575   3.911  11.750 -0.1249 -0.1745  0.0188
13751TIP3    H162744   2.605   3.885  11.662 -2.6686 -0.2010 -0.9484
13751TIP3    H262745   2.621   3.993  11.768  0.6054 -0.2733 -1.2587
13752TIP3   OH262746   2.694   3.093  11.893  0.0045  0.4718  0.2270
13752TIP3    H162747   2.652   3.169  11.935 -0.8196  0.7307 -1.0225
13752TIP3    H262748   2.623   3.029  11.884 -0.3343  1.1202 -2.4013
13753TIP3   OH262749   4.596   3.007   1.418 -0.4162  0.1470  0.7419
13753TIP3    H162750   4.518   2.972   1.462 -0.6817 -0.1066  0.0834
13753TIP3    H262751   4.664   2.942   1.436 -0.5810 -0.0688  0.5951
13754TIP3   OH262752   0.933   0.718   5.795  0.0076 -0.0417 -0.7683
13754TIP3    H162753   0.957   0.806   5.766  2.2410 -0.5093 -0.5683
13754TIP3    H262754   0.923   0.667   5.715  0.1450  0.0677 -0.8543
13755TIP3   OH262755   3.418   2.155  13.893  0.1280  0.2315 -0.2197
13755TIP3    H162756   3.337   2.109  13.915  1.8728 -3.6069 -1.0391
13755TIP3    H262757   3.454   2.183  13.978 -1.2329  0.5822  0.2660
13756TIP3   OH262758   1.415   5.067  12.754 -0.2198 -0.2075 -0.1078
13756TIP3    H162759   1.490   5.010  12.737  0.1049  0.7571 -2.2743
13756TIP3    H262760   1.359   5.057  12.677 -0.7614  1.4492  0.0315
13757TIP3   OH262761   1.938   1.879   3.029 -0.1451  0.1198  0.2155
13757TIP3    H162762   1.844   1.868   3.016 -0.4623  1.7233  0.9080
13757TIP3    H262763   1.971   1.912   2.945 -0.4274  0.7156  0.3309
13758TIP3   OH262764   2.542   6.162  11.109 -0.4402  0.1726  0.2632
13758TIP3    H162765   2.500   6.118  11.035  0.7605  0.3512 -0.5485
13758TIP3    H262766   2.560   6.251  11.076 -0.0976  0.3214  0.8436
13759TIP3   OH262767   6.331   0.525  14.082  0.9280 -0.8157 -0.7277
13759TIP3    H162768   6.246   0.567  14.071 -0.6747 -3.9541 -1.6689
13759TIP3    H262769   6.394   0.596  14.079 -1.6487  1.7130  0.4535
13760TIP3   OH262770   0.917   5.705  13.119  0.2634  0.5503 -0.0018
13760TIP3    H162771   0.871   5.779  13.079 -0.7410 -0.2570 -0.4024
13760TIP3    H262772   0.941   5.736  13.206  0.3256  1.5254 -0.3578
13761TIP3   OH262773   4.497   0.575   6.467 -0.1226 -0.0175  0.4218
13761TIP3    H162774   4.477   0.497   6.416 -0.9463  0.2576  0.3078
13761TIP3    H262775   4.589   0.593   6.449 -0.9439  1.4962 -2.9627
13762TIP3   OH262776   3.868   3.158   0.612 -0.4416  0.0426  0.4008
13762TIP3    H162777   3.865   3.086   0.550 -2.6094  0.8762 -0.5835
13762TIP3    H262778   3.922   3.225   0.569  0.1106 -0.3181  0.5312
13763TIP3   OH262779   2.964   0.172   4.397  0.2868 -0.3394  0.0988
13763TIP3    H162780   2.952   0.127   4.313  1.9786  1.7739 -1.3833
13763TIP3    H262781   2.982   0.102   4.460  1.5984 -1.8418 -1.8504
13764TIP3   OH262782   0.777   5.069  12.815  0.1095 -0.4062 -0.4219
13764TIP3    H162783   0.861   5.024  12.815  0.5877  0.4645 -0.1264
13764TIP3    H262784   0.795   5.153  12.771 -0.9795 -0.8785 -1.8551
13765TIP3   OH262785   2.486   0.697  16.441 -0.5758 -0.3384 -0.5296
13765TIP3    H162786   2.576   0.719  16.417 -0.0416 -2.0340 -0.2643
13765TIP3    H262787   2.487   0.691  16.536 -1.4956  1.5898 -0.3532
13766TIP3   OH262788   5.018   3.249  14.585  0.0350 -0.2671 -0.6470
13766TIP3    H162789   4.966   3.305  14.643 -0.6904 -0.0926 -1.4421
13766TIP3    H262790   5.053   3.181  14.643 -0.7110 -0.1277 -0.0115
13767TIP3   OH262791   1.782   1.704  13.045  0.0016 -0.3613 -0.0053
13767TIP3    H162792   1.691   1.723  13.070  0.8865  2.1122  1.7267
13767TIP3    H262793   1.794   1.611  13.065 -1.9436 -0.5814  0.3261
13768TIP3   OH262794   3.856   1.761  16.853 -1.0022 -0.7627  0.4278
13768TIP3    H162795   3.866   1.683  16.799  0.5680  0.4101 -1.1057
13768TIP3    H262796   3.768   1.793  16.834 -0.2052  0.0890 -2.2013
13769TIP3   OH262797   0.140   1.467   6.876  0.3990  0.0473 -0.1531
13769TIP3    H162798   0.103   1.394   6.826  2.3898 -1.1126 -0.0161
13769TIP3    H262799   0.068   1.495   6.933 -0.2892 -2.1624  0.1748
13770TIP3   OH262800   0.599   5.052   0.820 -0.0467  0.4782 -0.0370
13770TIP3    H162801   0.537   5.123   0.802  1.7782  2.0313 -0.4215
13770TIP3    H262802   0.677   5.096   0.855  0.8887 -1.4088  0.3606
13771TIP3   OH262803   5.731   0.788  16.559 -0.1461 -0.2448 -0.0658
13771TIP3    H162804   5.749   0.754  16.647 -1.2898 -0.2954  0.1523
13771TIP3    H262805   5.650   0.838  16.568  0.0531  0.2661 -0.9657
13772TIP3   OH262806   3.622   4.934  10.982  0.7242 -0.4058  0.1521
13772TIP3    H162807   3.598   4.927  11.075 -0.4846 -0.1594 -0.1305
13772TIP3    H262808   3.673   4.855  10.965  2.3043  0.2850  1.3994
13773TIP3   OH262809   4.836   2.244  12.527 -0.6113  0.0381  0.0428
13773TIP3    H162810   4.769   2.309  12.504  0.2877  0.5335 -1.3217
13773TIP3    H262811   4.895   2.243  12.452  0.7756 -0.5762  1.0929
13774TIP3   OH262812   3.911   0.215  13.350  0.2368  0.1413 -0.1535
13774TIP3    H162813   3.873   0.278  13.412  1.4330 -0.1616  0.9058
13774TIP3    H262814   3.958   0.153  13.404  0.6933 -0.5675 -1.3333
13775TIP3   OH262815   1.750   2.453  11.108  0.1918  0.3751 -0.1911
13775TIP3    H162816   1.830   2.460  11.056  1.0893 -0.4541  1.0198
13775TIP3    H262817   1.684   2.419  11.047  0.9388  0.4141 -1.0372
13776TIP3   OH262818   4.984   0.849  15.060  0.8959 -0.5100 -0.1757
13776TIP3    H162819   4.922   0.827  15.129  1.1030 -2.4571 -0.5506
13776TIP3    H262820   4.930   0.867  14.983  0.7555 -1.5297 -0.3247
13777TIP3   OH262821   5.039   0.037  15.390 -0.4075  0.3683  0.2063
13777TIP3    H162822   5.042   0.026  15.295 -1.5269  2.3345 -0.1242
13777TIP3    H262823   5.016  -0.050  15.424  3.1072 -1.2249 -0.9689
13778TIP3   OH262824   6.394   2.940   2.491 -0.2004  0.2768  0.2609
13778TIP3    H162825   6.434   2.914   2.408  0.5363 -0.5662  0.8568
13778TIP3    H262826   6.414   2.867   2.550 -0.7820  0.8323  1.1516
13779TIP3   OH262827   2.749   3.959  14.821 -0.0619  0.1907 -0.4246
13779TIP3    H162828   2.704   3.899  14.880  0.7706 -0.4660 -0.4461
13779TIP3    H262829   2.680   3.992  14.763 -0.7101  0.0861  0.2701
13780TIP3   OH262830   2.939   0.037  13.779  0.0239  0.1898  0.0824
13780TIP3    H162831   3.029   0.026  13.751 -0.2902 -0.2650 -0.7736
13780TIP3    H262832   2.915   0.125  13.749 -0.2272 -0.1941 -0.8695
13781TIP3   OH262833   4.388   4.213  16.680 -0.0377  0.8103  0.2420
13781TIP3    H162834   4.435   4.295  16.667 -0.5086  0.7693 -2.0854
13781TIP3    H262835   4.456   4.150  16.704  0.8505  1.1837 -1.1517
13782TIP3   OH262836   0.889   4.928  11.199 -0.3965 -0.2142 -0.1200
13782TIP3    H162837   0.845   5.012  11.184  0.2892  0.1720 -0.0140
13782TIP3    H262838   0.982   4.949  11.195 -0.2020 -0.7340  1.2001
13783TIP3   OH262839   5.176   2.815  16.992 -0.2884  0.4040  0.3764
13783TIP3    H162840   5.161   2.855  17.078 -0.0572  1.2298  0.0425
13783TIP3    H262841   5.174   2.889  16.931 -1.1842 -0.2685 -0.4263
13784TIP3   OH262842   2.077   0.495  17.099  0.1446  0.5848 -0.1553
13784TIP3    H162843   2.012   0.457  17.159  0.6298  1.1280  0.7352
13784TIP3    H262844   2.043   0.475  17.012 -1.6720  1.5865  0.2798
13785TIP3   OH262845   0.969   3.588  14.550 -0.0001  0.1396  0.4033
13785TIP3    H162846   1.064   3.575  14.548 -0.1106 -0.6238 -0.1526
13785TIP3    H262847   0.942   3.582  14.458 -0.9100 -2.2202  0.7526
13786TIP3   OH262848   3.391   4.303  13.772  0.2771 -0.0738 -0.3675
13786TIP3    H162849   3.439   4.376  13.812 -0.2936 -0.2797  0.7388
13786TIP3    H262850   3.420   4.302  13.681  2.3831 -0.2296  0.2617
13787TIP3   OH262851   1.867   0.241  14.663  0.2478  0.3138 -0.2070
13787TIP3    H162852   1.931   0.207  14.726 -0.2041 -0.4428 -0.1564
13787TIP3    H262853   1.851   0.331  14.693  0.1406  0.0068  0.6776
13788TIP3   OH262854   4.425   3.249   0.326 -0.6639 -0.0810  0.8889
13788TIP3    H162855   4.462   3.233   0.239 -3.0886  1.2612 -0.5034
13788TIP3    H262856   4.450   3.339   0.346 -0.1993 -0.3518  1.5618
13789TIP3   OH262857   4.510   5.963   1.961  0.4528 -0.2477  0.0782
13789TIP3    H162858   4.601   5.989   1.957  0.4887 -0.1480  1.2698
13789TIP3    H262859   4.460   6.042   1.940  0.6162  0.0545  0.8189
13790TIP3   OH262860   0.439   4.103  10.793  0.2713 -0.2873  0.5856
13790TIP3    H162861   0.467   4.186  10.754  1.9428 -0.5762  1.0652
13790TIP3    H262862   0.479   4.036  10.736  1.0779 -0.7198  1.6317
13791TIP3   OH262863   0.911   0.250  11.217 -0.3687  0.2870  0.1762
13791TIP3    H162864   0.894   0.278  11.127  0.0803 -0.4604 -0.1520
13791TIP3    H262865   0.929   0.331  11.264  0.3766  0.6063 -0.6322
13792TIP3   OH262866   6.022   2.458  11.943  0.1807  0.6405  0.1322
13792TIP3    H162867   6.098   2.506  11.909  0.4470 -0.3997 -0.7709
13792TIP3    H262868   5.946   2.506  11.910  0.4232 -0.4672 -2.2148
13793TIP3   OH262869   6.529   1.542   3.043 -0.5347  0.0724 -0.3429
13793TIP3    H162870   6.459   1.576   3.098 -1.3526 -1.7142 -0.2205
13793TIP3    H262871   6.488   1.475   2.989  0.9378 -0.5600 -0.7462
13794TIP3   OH262872   2.545   5.554  12.469  0.6895 -0.2778  0.4303
13794TIP3    H162873   2.493   5.496  12.413 -1.6708  0.1372  2.0553
13794TIP3    H262874   2.581   5.496  12.536 -0.6813 -0.1107  1.3555
13795TIP3   OH262875   5.924   5.790   2.985  0.2645  0.1611  0.0244
13795TIP3    H162876   5.949   5.747   2.903 -1.8135  0.3910 -0.8001
13795TIP3    H262877   5.959   5.879   2.977 -0.8900  0.5532 -1.2072
13796TIP3   OH262878   5.859   0.472  11.738  0.3049  0.1703 -0.4117
13796TIP3    H162879   5.805   0.393  11.738 -0.4817  0.6665  1.4079
13796TIP3    H262880   5.866   0.497  11.830 -0.1973  2.7067 -0.9842
13797TIP3   OH262881   2.334   0.026   0.858  0.6230 -0.1413 -1.1416
13797TIP3    H162882   2.397   0.072   0.802  3.7927  0.2348  2.3698
13797TIP3    H262883   2.375  -0.058   0.877  0.2807  0.1887  1.4306
13798TIP3   OH262884   4.698   2.971   3.762  0.3033  0.4664  0.1715
13798TIP3    H162885   4.656   2.957   3.677  2.0655  1.4810 -0.9107
13798TIP3    H262886   4.636   2.934   3.825  0.3500 -3.3775 -1.7360
13799TIP3   OH262887   2.755   4.679   0.690 -0.1592  0.1104  0.0877
13799TIP3    H162888   2.722   4.729   0.616 -1.6418  0.0875  0.6993
13799TIP3    H262889   2.819   4.737   0.731  1.5187 -0.3068 -1.8057
13800TIP3   OH262890   5.022   3.102   3.338 -0.0283  0.3521 -0.6518
13800TIP3    H162891   4.948   3.058   3.298 -0.3812 -0.9006  1.2445
13800TIP3    H262892   5.095   3.085   3.279 -0.3936 -1.9185 -0.5413
13801TIP3   OH262893   4.697   5.856  12.968 -0.4191 -0.6313 -0.0602
13801TIP3    H162894   4.615   5.807  12.967 -0.1265 -1.1243 -0.7355
13801TIP3    H262895   4.733   5.843  13.056 -0.5799 -1.2229 -0.0841
13802TIP3   OH262896   4.028   1.774   0.846 -0.1778 -0.9283  0.0739
13802TIP3    H162897   4.039   1.741   0.757 -1.0172 -0.5908 -0.1614
13802TIP3    H262898   4.093   1.726   0.897  0.6468 -0.7768 -0.8033
13803TIP3   OH262899   1.026   5.004   4.260  0.2406 -0.2743 -0.4534
13803TIP3    H162900   1.001   5.084   4.306  2.4806  0.3677 -0.2022
13803TIP3    H262901   1.022   4.936   4.326 -0.1081 -0.0508 -0.2431
13804TIP3   OH262902   1.487   5.379  16.912  0.2578  0.0006 -0.5091
13804TIP3    H162903   1.563   5.403  16.860  0.3099  1.7613  0.3179
13804TIP3    H262904   1.412   5.395  16.855  0.4694 -2.1223 -1.4676
13805TIP3   OH262905   3.579   5.382   0.561  0.4251  0.1166  0.0785
13805TIP3    H162906   3.637   5.432   0.617  0.9182  0.7072 -0.9327
13805TIP3    H262907   3.501   5.367   0.614 -0.1899  2.8550  0.1000
13806TIP3   OH262908   0.795   3.331  12.446 -0.1421  0.8546  0.5666
13806TIP3    H162909   0.705   3.351  12.420 -0.5625 -0.8944  0.5597
13806TIP3    H262910   0.844   3.328  12.363 -0.2688  0.8599  0.4918
13807TIP3   OH262911   4.882   1.977   4.268 -0.6978 -0.1630 -0.1514
13807TIP3    H162912   4.873   1.882   4.264 -1.7825 -0.0909  0.2761
13807TIP3    H262913   4.830   2.010   4.194 -1.0313  0.1205  0.1990
13808TIP3   OH262914   1.419   5.775  11.434 -0.2826  0.1761 -0.2013
13808TIP3    H162915   1.457   5.701  11.482 -0.1004 -0.1686 -0.8579
13808TIP3    H262916   1.491   5.839  11.427  0.1422 -0.3878 -1.2615
13809TIP3   OH262917   6.360   0.762  11.342  1.1780 -0.1888 -0.0652
13809TIP3    H162918   6.367   0.832  11.278  0.5396  1.2971  1.4259
13809TIP3    H262919   6.268   0.765  11.370  1.9645  0.9222  2.7289
13810TIP3   OH262920   6.144   0.488   3.191 -0.4132  0.0539 -0.0246
13810TIP3    H162921   6.196   0.557   3.151  1.1459  0.0021  1.7544
13810TIP3    H262922   6.159   0.411   3.136  0.5895  0.3042 -0.1127
13811TIP3   OH262923   2.159   0.993  14.882 -0.1288  0.4719  0.1448
13811TIP3    H162924   2.246   0.990  14.840  0.0045 -1.7421  0.4243
13811TIP3    H262925   2.121   0.907  14.861 -2.0891  1.2471  0.4101
13812TIP3   OH262926   6.214   6.192  15.848  0.2820  0.4187  0.5042
13812TIP3    H162927   6.170   6.273  15.874  0.1782  0.6617 -0.3782
13812TIP3    H262928   6.148   6.124  15.860  0.5769  0.3496  1.8844
13813TIP3   OH262929   4.302   1.183  12.148 -0.2968 -0.6822  0.5285
13813TIP3    H162930   4.275   1.149  12.062  1.5865 -0.7251 -0.0879
13813TIP3    H262931   4.221   1.184  12.199 -1.2726 -1.6784 -0.8976
13814TIP3   OH262932   2.093   3.910  11.134  0.5062  0.3160 -0.1667
13814TIP3    H162933   2.183   3.880  11.120  0.7694  0.4317  1.1927
13814TIP3    H262934   2.044   3.871  11.062  1.6378  0.2835 -0.9610
13815TIP3   OH262935   0.310   0.312  16.734  0.2432 -0.3884  0.1795
13815TIP3    H162936   0.274   0.280  16.652  0.7541  0.5722 -0.4451
13815TIP3    H262937   0.382   0.369  16.707  0.1046  0.3241  1.2785
13816TIP3   OH262938   5.103   3.581  13.200  0.3762 -0.2597  0.0746
13816TIP3    H162939   5.157   3.515  13.243  0.0857 -0.3689  0.2749
13816TIP3    H262940   5.034   3.601  13.263  0.4893  0.2699  0.0303
13817TIP3   OH262941   0.042   2.502   5.825  0.5148  0.2688  0.0364
13817TIP3    H162942  -0.013   2.494   5.747  0.9377  1.5228 -0.4184
13817TIP3    H262943   0.129   2.525   5.790  0.9663 -0.2139  0.8192
13818TIP3   OH262944   2.510   0.583  11.845 -0.1558  0.0849  0.0579
13818TIP3    H162945   2.524   0.662  11.898 -0.0965 -0.1727  0.4296
13818TIP3    H262946   2.510   0.511  11.909  3.8037 -0.7005 -0.5692
13819TIP3   OH262947   3.942   1.677  15.047  0.2768  0.0615 -0.1498
13819TIP3    H162948   4.018   1.648  15.097  0.1692 -1.0201 -0.5689
13819TIP3    H262949   3.965   1.764  15.015  0.9602  0.1261  0.4951
13820TIP3   OH262950   3.140   0.216  13.892  0.2129  0.6368  0.3544
13820TIP3    H162951   3.056   0.260  13.877  0.2784  0.9210  0.7953
13820TIP3    H262952   3.196   0.285  13.929  0.6413  0.4517  0.0451
13821TIP3   OH262953   3.892   6.018   1.671  0.0374  0.3232  0.1217
13821TIP3    H162954   3.858   5.965   1.598  0.0197  1.3057 -0.6117
13821TIP3    H262955   3.907   5.955   1.741  0.4244 -0.7218 -0.8570
13822TIP3   OH262956   5.550   5.909   5.651 -0.0228 -0.6490  0.7141
13822TIP3    H162957   5.580   5.981   5.595  1.5214 -1.2244  0.7603
13822TIP3    H262958   5.494   5.952   5.716 -2.3731 -0.0294 -1.5193
13823TIP3   OH262959   3.592   2.938   1.594 -0.0455  0.2898  0.0426
13823TIP3    H162960   3.597   3.022   1.547 -1.8539 -0.6026 -1.8915
13823TIP3    H262961   3.669   2.890   1.563  0.2429  0.7106  0.0896
13824TIP3   OH262962   3.810   5.092  12.101  0.5396  0.1981  0.1184
13824TIP3    H162963   3.750   5.031  12.145  0.6003 -0.1021 -0.2137
13824TIP3    H262964   3.758   5.127  12.028  0.4330  0.7087  0.4350
13825TIP3   OH262965   3.929   6.745   5.019  0.2150 -0.3980 -0.2723
13825TIP3    H162966   3.919   6.678   4.951 -1.4740 -0.0377 -0.4310
13825TIP3    H262967   4.004   6.716   5.071  1.3692 -0.8386 -2.0926
13826TIP3   OH262968   3.843   5.461   4.482 -0.0760  0.4224  0.6250
13826TIP3    H162969   3.918   5.485   4.428 -0.0327 -0.7358  0.1553
13826TIP3    H262970   3.768   5.465   4.421  0.0509 -1.4466  0.2961
13827TIP3   OH262971   1.088   1.727   1.494  0.0775 -0.0115  0.2773
13827TIP3    H162972   0.993   1.716   1.488 -0.0077  0.5216  0.6093
13827TIP3    H262973   1.122   1.637   1.502 -0.4759 -0.1467  1.2876
13828TIP3   OH262974   1.326   2.461  12.406  0.6193  0.2990 -0.1802
13828TIP3    H162975   1.320   2.416  12.323  1.3750  0.0660 -0.1106
13828TIP3    H262976   1.290   2.399  12.470  3.8015 -1.2531  0.2929
13829TIP3   OH262977   4.201   5.869  10.990  0.8780 -0.3437  0.1717
13829TIP3    H162978   4.149   5.838  11.064  2.8292  0.2307  1.8887
13829TIP3    H262979   4.184   5.806  10.920 -2.4476  0.1154  0.4179
13830TIP3   OH262980   6.042   1.183  12.612  0.3621 -0.3750  0.5051
13830TIP3    H162981   6.029   1.117  12.681  0.0851  1.1753  2.0059
13830TIP3    H262982   5.957   1.228  12.607 -0.2186 -1.5998 -2.1738
13831TIP3   OH262983   3.183   2.888  15.892  0.1483  0.7766  0.1731
13831TIP3    H162984   3.159   2.810  15.941 -0.5717  2.1820  2.2126
13831TIP3    H262985   3.190   2.859  15.801 -0.5684 -1.5256  0.7980
13832TIP3   OH262986   5.583   1.814  11.885 -0.0375  0.7007  0.3104
13832TIP3    H162987   5.584   1.839  11.793  1.7495 -0.9164 -0.1720
13832TIP3    H262988   5.490   1.797  11.903 -0.2295 -1.3049 -1.9361
13833TIP3   OH262989   1.431   1.829  16.480  0.3389  0.0693 -0.9082
13833TIP3    H162990   1.514   1.842  16.433  1.5580 -1.9169  0.5110
13833TIP3    H262991   1.364   1.864  16.422  1.9569 -0.3873 -3.1702
13834TIP3   OH262992   5.034   6.192  11.726 -0.0882  0.1906 -0.4005
13834TIP3    H162993   5.067   6.193  11.815 -1.1071 -1.6343  0.0428
13834TIP3    H262994   5.080   6.264  11.682  0.7232  0.8558  1.4661
13835TIP3   OH262995   1.969   1.538   0.665  0.4471  0.1386 -0.0145
13835TIP3    H162996   1.978   1.463   0.724 -0.7599 -0.3303 -0.3910
13835TIP3    H262997   1.935   1.608   0.722  2.1311  0.6234  0.4670
13836TIP3   OH262998   2.912   3.246  15.979  0.1914  0.6639  0.1361
13836TIP3    H162999   2.917   3.157  16.014  1.1646  0.7672  0.2830
13836TIP3    H263000   2.834   3.284  16.020  0.1066  0.0719  0.5297
13837TIP3   OH263001   5.984   1.751  15.648 -0.1842 -0.2612  0.0656
13837TIP3    H163002   5.892   1.741  15.672 -0.0386  1.9652  1.9010
13837TIP3    H263003   6.032   1.713  15.721  0.4017 -1.6275 -0.9932
13838TIP3   OH263004   0.491   6.614  13.533 -0.7557 -0.0668 -0.1158
13838TIP3    H163005   0.444   6.697  13.523  2.5074  1.9384 -0.1942
13838TIP3    H263006   0.510   6.587  13.443 -1.6799 -0.8661 -0.0844
13839TIP3   OH263007   2.337   0.452   6.469 -0.5371 -0.0612 -0.5748
13839TIP3    H163008   2.274   0.485   6.534 -1.3802 -2.3871 -0.1289
13839TIP3    H263009   2.414   0.507   6.481 -1.2759  0.6738  1.2248
13840TIP3   OH263010   5.923   4.063   4.166  0.1393 -0.2841 -0.0822
13840TIP3    H163011   5.875   4.040   4.245 -0.6661  0.7335 -0.2561
13840TIP3    H263012   5.943   3.979   4.125  1.0123 -0.8566  1.4368
13841TIP3   OH263013   3.772   3.981   1.277 -0.2369 -0.1560 -0.3200
13841TIP3    H163014   3.859   3.988   1.238 -0.4377 -1.2023 -1.0021
13841TIP3    H263015   3.716   4.033   1.219 -0.3336 -0.7645 -0.7777
13842TIP3   OH263016   5.139   2.218  16.193 -0.2160 -1.0641  0.2258
13842TIP3    H163017   5.075   2.264  16.139  0.4127  0.1614  0.4912
13842TIP3    H263018   5.105   2.226  16.282  0.3500 -0.2863  0.3865
13843TIP3   OH263019   2.106   0.185   1.952 -1.1721 -0.2479 -0.1921
13843TIP3    H163020   2.133   0.125   2.021  1.7160  0.4481 -0.5751
13843TIP3    H263021   2.099   0.130   1.874  1.9526 -0.2023 -0.6530
13844TIP3   OH263022   5.817   2.986   0.730 -0.4986  0.1091 -0.6253
13844TIP3    H163023   5.739   3.019   0.774  0.3314 -0.8479  1.6607
13844TIP3    H263024   5.783   2.929   0.660 -1.9256 -2.0251  1.6576
13845TIP3   OH263025   1.094   4.339   1.881  0.3052  0.1438 -0.0340
13845TIP3    H163026   1.057   4.370   1.798  1.2127 -1.9082 -1.2870
13845TIP3    H263027   1.188   4.340   1.868  0.4620 -0.3422  0.9293
13846TIP3   OH263028   1.231   0.924  14.967  0.1265 -0.1982  0.2639
13846TIP3    H163029   1.287   0.932  14.890  0.5546 -0.6440  0.5242
13846TIP3    H263030   1.150   0.884  14.934 -0.1557  0.7045 -0.1635
13847TIP3   OH263031   2.107   2.777   5.621  0.0233  0.5770 -0.2261
13847TIP3    H163032   2.110   2.726   5.702  1.2878 -0.1244 -0.6855
13847TIP3    H263033   2.169   2.848   5.634 -1.4332  1.8050  0.2510
13848TIP3   OH263034   4.331   1.758   0.302  0.0241  0.8541 -0.3484
13848TIP3    H163035   4.329   1.704   0.381 -0.1008  2.8866  1.1195
13848TIP3    H263036   4.334   1.695   0.230 -2.4976 -1.1307  1.1256
13849TIP3   OH263037   0.433   3.510  10.676  0.5079  0.2116  0.0279
13849TIP3    H163038   0.490   3.446  10.720  1.7290  1.1840 -0.0882
13849TIP3    H263039   0.383   3.458  10.613  1.0438 -0.7245  0.3478
13850TIP3   OH263040   5.896   3.664  14.051  0.2638  0.5089 -0.0825
13850TIP3    H163041   5.912   3.602  13.979  0.2794  0.2625  0.1341
13850TIP3    H263042   5.809   3.642  14.084  1.1322 -0.8490  1.4241
13851TIP3   OH263043   0.131   6.189  15.401  0.3422  0.5508  0.2420
13851TIP3    H163044   0.098   6.104  15.371  1.7559  0.8595 -2.5332
13851TIP3    H263045   0.052   6.239  15.421 -0.6019 -0.6932 -0.1979
13852TIP3   OH263046   0.054   2.522  16.286  0.0128 -0.3853  0.9303
13852TIP3    H163047   0.108   2.588  16.329 -1.1992  0.4451  1.2538
13852TIP3    H263048   0.114   2.473  16.231  1.0268  0.7275  1.0107
13853TIP3   OH263049   1.227   1.765   0.933  0.0240  0.5281  0.1945
13853TIP3    H163050   1.198   1.816   1.008 -0.8238 -0.8618  0.8749
13853TIP3    H263051   1.226   1.674   0.964  1.4793  0.0844 -0.9466
13854TIP3   OH263052   1.135   3.414  14.957  0.2780  0.3981 -0.1455
13854TIP3    H163053   1.054   3.432  14.908 -0.6846  1.8564  1.8349
13854TIP3    H263054   1.130   3.321  14.978 -1.0407  0.5186  0.1721
13855TIP3   OH263055   1.573   3.138  12.184  0.5145 -0.3755 -0.4025
13855TIP3    H163056   1.498   3.197  12.198  2.3673  1.7595  1.4314
13855TIP3    H263057   1.553   3.061  12.238  0.7042  1.3111  2.2724
13856TIP3   OH263058   0.590   1.729  15.316  0.0190  0.1853  0.4799
13856TIP3    H163059   0.624   1.768  15.397  0.5495 -0.4888  0.5949
13856TIP3    H263060   0.500   1.707  15.337  0.3350 -0.5566  1.1055
13857TIP3   OH263061   5.653   3.626  16.983 -0.0057  0.3085  0.3387
13857TIP3    H163062   5.584   3.619  16.917  1.5729  0.3474 -1.3877
13857TIP3    H263063   5.684   3.716  16.977  0.7001  0.0908  0.5572
13858TIP3   OH263064   5.548   3.035   4.358  0.3302 -0.1076  0.2014
13858TIP3    H163065   5.551   2.984   4.277  2.3058 -0.1687  0.2711
13858TIP3    H263066   5.556   3.126   4.330 -5.8905  0.7767 -0.1875
13859TIP3   OH263067   6.157   5.982   0.368  0.2716 -0.2679  0.3579
13859TIP3    H163068   6.091   6.037   0.325 -0.8287 -0.6348  1.5356
13859TIP3    H263069   6.173   5.911   0.305  0.7443  0.6629 -0.6130
13860TIP3   OH263070   0.352   3.617  12.227 -0.0653  0.2594 -0.6505
13860TIP3    H163071   0.299   3.693  12.205 -0.2194  0.3171 -0.0939
13860TIP3    H263072   0.381   3.583  12.142  1.6297  2.0675 -0.8690
13861TIP3   OH263073   6.781   6.583  13.826  0.0588  0.6009  0.2571
13861TIP3    H163074   6.788   6.500  13.874 -0.8493  0.7493  0.6596
13861TIP3    H263075   6.699   6.577  13.778 -0.2237  1.4218  0.6104
13862TIP3   OH263076   2.821   4.931   3.148 -0.1352 -0.2970  0.2960
13862TIP3    H163077   2.819   4.858   3.086 -1.0364 -0.0177 -0.0150
13862TIP3    H263078   2.740   4.978   3.132  0.6454  1.0443  0.1851
13863TIP3   OH263079   0.848   3.910   2.329  0.4174  0.5992 -0.0126
13863TIP3    H163080   0.930   3.957   2.312  0.4647  1.3257  1.8715
13863TIP3    H263081   0.868   3.856   2.405 -0.1609 -1.1759 -1.0806
13864TIP3   OH263082   4.793   1.117  12.826  0.3258  0.0238 -0.7567
13864TIP3    H163083   4.715   1.101  12.772 -0.1701  1.5025 -0.5202
13864TIP3    H263084   4.784   1.055  12.899  0.1001 -0.7737 -1.4486
13865TIP3   OH263085   3.857   6.804  14.666 -0.7347  0.5392  0.2313
13865TIP3    H163086   3.849   6.892  14.630 -1.7353  0.3454 -0.0632
13865TIP3    H263087   3.950   6.792  14.681 -0.5900  1.6363  0.2419
13866TIP3   OH263088   5.029   2.544   2.188  0.2044  0.1373  0.2775
13866TIP3    H163089   4.940   2.577   2.204 -0.1560  0.4655 -2.0504
13866TIP3    H263090   5.016   2.450   2.173  0.0680  0.3493 -1.0575
13867TIP3   OH263091   1.120   5.508  13.198  0.7272 -0.2117 -0.0598
13867TIP3    H163092   1.210   5.530  13.219  0.5554  0.2192  0.2459
13867TIP3    H263093   1.067   5.572  13.247  0.2827  0.1019 -0.9203
13868TIP3   OH263094   2.062   3.358  11.870  0.4487 -0.2491  0.6922
13868TIP3    H163095   2.150   3.375  11.837 -0.2607 -0.2591 -1.3615
13868TIP3    H263096   2.009   3.430  11.837 -0.3507 -0.3155  1.7787
13869TIP3   OH263097   6.512   3.795  16.757  0.4782 -0.4317  0.0063
13869TIP3    H163098   6.467   3.835  16.831 -0.6119  0.6287 -1.1854
13869TIP3    H263099   6.544   3.869  16.706  0.4587 -1.1223 -1.0397
13870TIP3   OH263100   3.408   1.710   4.267 -0.0838  0.4467  0.3059
13870TIP3    H163101   3.374   1.791   4.229  1.0868 -0.0486 -1.9777
13870TIP3    H263102   3.501   1.710   4.244  0.0898 -1.2156  0.8668
13871TIP3   OH263103   1.225   1.420   5.314  0.1883  0.5593 -0.6378
13871TIP3    H163104   1.319   1.417   5.294  0.0454 -1.3380 -1.1768
13871TIP3    H263105   1.205   1.333   5.349 -1.3463  0.9989 -0.3597
13872TIP3   OH263106   1.667   2.552   4.736 -0.2363 -0.1408 -0.1915
13872TIP3    H163107   1.761   2.532   4.732 -0.4481 -1.0909 -0.7038
13872TIP3    H263108   1.624   2.467   4.732 -1.1073  0.1643  1.5656
13873TIP3   OH263109   5.480   1.953   0.889 -0.2095  0.8505 -1.0409
13873TIP3    H163110   5.388   1.951   0.914 -0.6201 -0.5933 -2.4717
13873TIP3    H263111   5.488   2.027   0.829 -0.4946  0.8108 -1.1270
13874TIP3   OH263112   1.421   0.107   5.404  0.0907 -0.2647  0.5207
13874TIP3    H163113   1.457   0.181   5.355 -0.5133 -1.4824 -1.9469
13874TIP3    H263114   1.498   0.058   5.433  0.4789  0.0276  0.0107
13875TIP3   OH263115   5.722   4.224  16.380  0.3014  0.1439 -0.5194
13875TIP3    H163116   5.712   4.316  16.402  0.2737  1.0410 -3.7434
13875TIP3    H263117   5.670   4.177  16.446  0.3171  2.3902  1.1924
13876TIP3   OH263118   5.765   3.831   2.735 -0.0363  0.0599 -0.7685
13876TIP3    H163119   5.693   3.820   2.673 -0.1274 -0.1057 -0.6324
13876TIP3    H263120   5.735   3.900   2.794 -1.3305 -1.9804  1.0832
13877TIP3   OH263121   0.536   4.524  12.210 -0.0967 -0.0696 -0.3037
13877TIP3    H163122   0.526   4.592  12.275  1.0340  0.8080 -1.0013
13877TIP3    H263123   0.448   4.512  12.173 -0.5821 -0.0226  0.7964
13878TIP3   OH263124   1.659   3.414   0.211  0.6529 -0.2376  0.2864
13878TIP3    H163125   1.608   3.474   0.156  0.5944 -0.8645 -0.3483
13878TIP3    H263126   1.749   3.426   0.182  0.7110 -0.0543  0.5406
13879TIP3   OH263127   0.525   2.190   3.101  0.1414 -0.4975  0.2965
13879TIP3    H163128   0.601   2.223   3.053  0.3282  0.2554  1.0983
13879TIP3    H263129   0.492   2.119   3.046  0.6599  0.0014 -0.6924
13880TIP3   OH263130   4.393   4.166  12.760  0.1090  0.1624 -0.4188
13880TIP3    H163131   4.312   4.118  12.779  0.6833 -0.3675  0.8413
13880TIP3    H263132   4.462   4.115  12.804  1.4147 -0.4098 -2.9441
13881TIP3   OH263133   0.277   3.436   4.051 -0.5819 -0.3257 -0.0747
13881TIP3    H163134   0.218   3.471   4.118 -0.5698 -1.9145  0.8289
13881TIP3    H263135   0.220   3.382   3.995 -0.1832 -1.0518  0.1995
13882TIP3   OH263136   3.485   6.371   0.929 -0.3418 -0.3528 -0.2948
13882TIP3    H163137   3.552   6.400   0.991  0.7001 -0.0353 -1.5340
13882TIP3    H263138   3.455   6.452   0.887  0.2043 -0.7140 -1.4167
13883TIP3   OH263139   6.313   0.898   1.177  0.0648  0.0109 -0.5236
13883TIP3    H163140   6.281   0.953   1.249  1.6734 -0.8617  0.9424
13883TIP3    H263141   6.237   0.846   1.151 -0.2157 -0.8516  1.7380
13884TIP3   OH263142   0.257   2.919   4.020  0.1732 -0.4195 -0.1096
13884TIP3    H163143   0.209   2.837   4.011  2.9370 -2.1188 -0.4918
13884TIP3    H263144   0.301   2.913   4.105  0.7166  0.4699 -0.3104
13885TIP3   OH263145   2.141   2.169   3.227 -0.0390 -0.1567  0.2067
13885TIP3    H163146   2.139   2.182   3.132  0.8853 -0.3771  0.1489
13885TIP3    H263147   2.217   2.220   3.256 -0.4191  0.0462  0.8562
13886TIP3   OH263148   4.058   6.078  15.296 -0.7262 -0.2393  0.4725
13886TIP3    H163149   4.137   6.044  15.337 -0.4204  0.6994  0.6998
13886TIP3    H263150   4.067   6.055  15.204  0.8718  1.6794  0.0870
13887TIP3   OH263151   1.363   1.250   0.804  0.0119  0.2428 -0.1922
13887TIP3    H163152   1.331   1.161   0.817  0.2485 -0.0079 -1.2729
13887TIP3    H263153   1.442   1.240   0.751 -0.4392  1.1492 -1.0627
13888TIP3   OH263154   0.731   2.767   4.776 -0.1666 -0.1484  0.6467
13888TIP3    H163155   0.655   2.709   4.780 -0.7853  0.6247  0.3858
13888TIP3    H263156   0.735   2.795   4.684  0.9660 -0.8585  0.4544
13889TIP3   OH263157   6.478   3.853  15.309 -0.0620 -0.1901  0.2699
13889TIP3    H163158   6.407   3.916  15.303  0.4956  0.4523  0.3030
13889TIP3    H263159   6.468   3.813  15.396 -0.6676 -0.4582  0.0793
13890TIP3   OH263160   3.486   6.449  16.693 -0.2811  0.0740  0.4524
13890TIP3    H163161   3.395   6.463  16.667 -0.0180 -0.4155 -0.8307
13890TIP3    H263162   3.518   6.384  16.630  1.3039  1.1741  0.0766
13891TIP3   OH263163   3.149   3.097   2.933  0.2248  0.6230 -0.0005
13891TIP3    H163164   3.125   3.185   2.961 -0.9786  0.2693  0.1434
13891TIP3    H263165   3.107   3.039   2.997  1.8776 -0.0483  0.5456
13892TIP3   OH263166   1.580   0.122   0.647 -0.6753 -0.2640  0.1879
13892TIP3    H163167   1.591   0.030   0.668  1.1331 -0.5885 -1.7531
13892TIP3    H263168   1.593   0.127   0.552 -0.3892  2.0179  0.2737
13893TIP3   OH263169   6.739   3.271  16.014 -0.1637  0.1851  0.4498
13893TIP3    H163170   6.741   3.184  16.053 -0.7073 -1.1347 -2.1885
13893TIP3    H263171   6.650   3.280  15.981  0.1246  1.3925 -0.0442
13894TIP3   OH263172   2.283   1.482   4.177 -0.1959  0.1875 -0.7060
13894TIP3    H163173   2.336   1.554   4.141 -0.1679 -0.6004 -2.3386
13894TIP3    H263174   2.243   1.442   4.100  0.2801 -1.9459  0.1068
13895TIP3   OH263175   5.914   3.218  15.997 -0.2579  0.2399 -0.2149
13895TIP3    H163176   5.991   3.272  15.978 -0.6226  0.7139 -0.3854
13895TIP3    H263177   5.925   3.192  16.089  1.0247 -1.2464 -0.7529
13896TIP3   OH263178   1.531   6.294   2.426 -0.3693  0.1703  0.1752
13896TIP3    H163179   1.449   6.343   2.416 -0.6641 -0.6079 -1.8389
13896TIP3    H263180   1.550   6.262   2.337  1.8183 -0.1613  0.7126
13897TIP3   OH263181   5.354   5.428  12.816 -0.0869 -0.3332  0.2949
13897TIP3    H163182   5.434   5.440  12.765  0.5793 -0.1533  1.3529
13897TIP3    H263183   5.285   5.416  12.750  0.9318 -1.3735 -0.6362
13898TIP3   OH263184   0.097   3.902   2.497  0.1619  0.1753 -0.3157
13898TIP3    H163185   0.188   3.900   2.465 -0.6101 -0.3038 -2.7234
13898TIP3    H263186   0.096   3.845   2.573  1.7352 -0.3910 -0.6861
13899TIP3   OH263187   4.613   2.754   3.985  0.3550 -0.0418 -0.4902
13899TIP3    H163188   4.692   2.721   4.028  0.5312  0.7813 -0.1655
13899TIP3    H263189   4.550   2.764   4.056  0.7212  1.5466 -0.3621
13900TIP3   OH263190   5.032   5.651   4.085  0.1868 -0.3234 -0.5963
13900TIP3    H163191   4.967   5.659   4.015  0.1335 -0.4858 -0.5669
13900TIP3    H263192   5.081   5.572   4.062 -0.5459 -1.0211  0.1344
13901TIP3   OH263193   4.051   5.611   6.435 -0.0961  0.3736  0.2118
13901TIP3    H163194   4.033   5.521   6.462 -1.7294  0.9196  1.1231
13901TIP3    H263195   4.008   5.665   6.502  1.9379  1.8729  0.4378
13902TIP3   OH263196   1.833   1.295   2.334 -0.2426  0.5342  0.5255
13902TIP3    H163197   1.771   1.333   2.397 -1.5926 -1.7403  0.6817
13902TIP3    H263198   1.839   1.203   2.359  1.4758  0.1927 -0.9224
13903TIP3   OH263199   1.482   6.815  15.041  0.3541  0.3945  0.3607
13903TIP3    H163200   1.578   6.811  15.050  0.2781  1.1929  1.8386
13903TIP3    H263201   1.451   6.841  15.128 -1.0863  1.8299 -0.5188
13904TIP3   OH263202   5.411   6.630   3.616 -0.4647 -0.6507  0.3568
13904TIP3    H163203   5.494   6.645   3.570  0.3495 -1.1527  1.6257
13904TIP3    H263204   5.344   6.654   3.551  0.6475  1.6101 -0.0820
13905TIP3   OH263205   3.999   2.348  12.495 -0.4195  0.2492  0.0812
13905TIP3    H163206   4.065   2.278  12.497 -1.7948 -1.1272 -0.5600
13905TIP3    H263207   3.930   2.314  12.438 -1.2175  2.0840 -0.1130
13906TIP3   OH263208   2.072   4.059  14.172  0.4614  0.3726  0.6146
13906TIP3    H163209   2.099   4.066  14.080  0.9159 -2.6477  0.4128
13906TIP3    H263210   2.154   4.065  14.221  0.9234 -2.6668  0.4099
13907TIP3   OH263211   2.350   5.802   3.364  0.0031 -0.2886 -0.2432
13907TIP3    H163212   2.362   5.729   3.423  0.4874 -0.1143 -0.1256
13907TIP3    H263213   2.416   5.790   3.296 -1.0569 -0.9216 -1.1954
13908TIP3   OH263214   5.669   2.298  11.939 -0.2716  0.0094  0.2057
13908TIP3    H163215   5.752   2.262  11.908  0.1565 -0.0379  1.3290
13908TIP3    H263216   5.631   2.227  11.991  0.0217  0.7329  1.4659
13909TIP3   OH263217   5.480   5.445   4.279 -0.2150  0.5677 -0.0559
13909TIP3    H163218   5.466   5.511   4.210  0.2939  0.0608 -0.6569
13909TIP3    H263219   5.505   5.366   4.231 -0.7184 -0.0394  0.6682
13910TIP3   OH263220   3.260   4.099  10.745  0.2115  0.1413 -0.6435
13910TIP3    H163221   3.213   4.171  10.786  1.0926  0.0886  0.5136
13910TIP3    H263222   3.353   4.122  10.753  0.4415 -0.1679 -2.0945
13911TIP3   OH263223   3.490   1.873  13.855 -0.3806 -0.7326  0.1013
13911TIP3    H163224   3.577   1.889  13.820 -1.1602 -0.5818 -1.9310
13911TIP3    H263225   3.467   1.952  13.903  0.8030 -1.0182  1.1896
13912TIP3   OH263226   2.146   5.095  14.307  0.1631 -0.4798 -0.2979
13912TIP3    H163227   2.136   5.020  14.248 -0.7580  0.4879 -1.4363
13912TIP3    H263228   2.096   5.165  14.265  1.8717  1.1069  0.1762
13913TIP3   OH263229   6.553   6.475  14.914  0.8893  0.1548  0.2698
13913TIP3    H163230   6.613   6.412  14.874 -1.0069 -2.3719  1.1127
13913TIP3    H263231   6.492   6.421  14.964 -2.7712  2.3728 -1.3682
13914TIP3   OH263232   6.101   1.296  11.029 -0.0101  0.6339 -0.7494
13914TIP3    H163233   6.169   1.232  11.011 -0.3927  0.0721 -0.2409
13914TIP3    H263234   6.038   1.285  10.958 -2.3488 -2.7156  1.5147
13915TIP3   OH263235   0.224   2.497   3.960  0.8516  0.6137  0.1111
13915TIP3    H163236   0.262   2.418   3.997  0.6990  1.0135  1.1477
13915TIP3    H263237   0.155   2.465   3.901  0.0401 -0.0214  1.3539
13916TIP3   OH263238   5.305   5.701   0.992  0.3032 -0.4423  0.3903
13916TIP3    H163239   5.346   5.763   0.931  0.7340  2.0055  2.9832
13916TIP3    H263240   5.291   5.622   0.939  0.3181  1.5826 -2.9422
13917TIP3   OH263241   2.478   4.533  14.570  0.0134 -0.9682  0.3315
13917TIP3    H163242   2.491   4.616  14.616  1.1715 -1.0312  0.1522
13917TIP3    H263243   2.405   4.491  14.616 -2.0557  1.0633 -0.9125
13918TIP3   OH263244   0.336   2.171  12.058  0.1594 -0.6187 -0.1854
13918TIP3    H163245   0.429   2.152  12.044  0.0865 -1.3676  0.2902
13918TIP3    H263246   0.298   2.172  11.970  0.3716 -1.6766 -0.3060
13919TIP3   OH263247   3.436   0.052  13.905  0.5694 -0.5593  0.3256
13919TIP3    H163248   3.527   0.046  13.935  1.1285  0.4492 -1.0287
13919TIP3    H263249   3.443   0.085  13.815 -1.1712  0.2054  0.4322
13920TIP3   OH263250   3.603   3.019   3.322  0.1736  0.0421 -0.1855
13920TIP3    H163251   3.648   2.936   3.337 -1.1346 -0.6821 -0.1466
13920TIP3    H263252   3.547   3.004   3.246 -2.7911 -0.3330  1.8635
13921TIP3   OH263253   3.220   6.655  15.825  0.2626  0.2859 -0.5364
13921TIP3    H163254   3.305   6.686  15.856 -1.0209  2.2729  1.3568
13921TIP3    H263255   3.223   6.666  15.730  1.8194  1.1033 -0.4274
13922TIP3   OH263256   2.231   4.075  11.342  0.4328  0.8045  0.1953
13922TIP3    H163257   2.171   4.030  11.283  0.6891  1.1669 -0.3526
13922TIP3    H263258   2.243   4.161  11.302  0.5889  1.0657  0.7962
13923TIP3   OH263259   5.383   0.835  13.636 -0.1542 -0.4066 -0.4873
13923TIP3    H163260   5.412   0.920  13.667  1.3639 -0.2913 -2.0735
13923TIP3    H263261   5.320   0.854  13.566 -0.1593 -0.5923 -0.5358
13924TIP3   OH263262   3.325   1.527   1.160 -0.5204  0.2628  0.0497
13924TIP3    H163263   3.392   1.460   1.174 -0.0868 -0.0792 -3.0456
13924TIP3    H263264   3.247   1.491   1.202  0.4625 -0.7092  1.1392
13925TIP3   OH263265   6.103   4.599   5.853  0.4035  0.1991  0.1733
13925TIP3    H163266   6.089   4.506   5.836  0.8423 -0.0652  1.1713
13925TIP3    H263267   6.088   4.609   5.947  0.8214  1.0455  0.1631
13926TIP3   OH263268   1.619   2.765   5.683  0.0468 -0.1154  0.6043
13926TIP3    H163269   1.677   2.828   5.640  2.7770 -2.0481  1.1808
13926TIP3    H263270   1.609   2.798   5.772  0.2527  0.2596  0.4902
13927TIP3   OH263271   6.034   5.900  16.963 -0.0703  0.2361 -0.1269
13927TIP3    H163272   5.969   5.917  17.031  1.6417 -1.1273  2.0148
13927TIP3    H263273   6.083   5.982  16.956 -0.1831  0.3569  0.4208
13928TIP3   OH263274   3.070   0.953  16.274  0.2008  0.1878  0.0373
13928TIP3    H163275   2.998   0.930  16.215 -0.2692 -0.4843  0.8536
13928TIP3    H263276   3.044   1.037  16.311  0.0829  0.1978 -0.0669
13929TIP3   OH263277   2.924   6.518   6.137  0.1650  0.2004  0.0514
13929TIP3    H163278   2.927   6.450   6.204  1.6644 -0.5918 -0.7680
13929TIP3    H263279   2.858   6.580   6.168  0.3882 -0.4595  1.9505
13930TIP3   OH263280   3.039   5.334   3.718 -0.7390 -0.4841 -0.1582
13930TIP3    H163281   2.953   5.359   3.685 -0.3328  0.3998 -0.6064
13930TIP3    H263282   3.022   5.292   3.802 -1.5510  0.4008  0.1413
13931TIP3   OH263283   2.404   2.119   0.401 -0.0225  0.1010  0.5088
13931TIP3    H163284   2.393   2.057   0.329  1.4382 -0.1800  0.5033
13931TIP3    H263285   2.386   2.204   0.361  1.5602  0.0374 -0.4572
13932TIP3   OH263286   2.189   3.449   4.482  0.1811  0.1721 -0.3409
13932TIP3    H163287   2.097   3.469   4.503 -0.1387 -2.2656  1.0532
13932TIP3    H263288   2.236   3.465   4.564  0.2375 -2.3354  0.2090
13933TIP3   OH263289   6.592   1.988  13.782 -0.3084 -0.6732 -0.3838
13933TIP3    H163290   6.674   1.960  13.741  1.0927  2.5199 -0.0859
13933TIP3    H263291   6.530   1.990  13.709  0.5264 -0.8140 -1.1295
13934TIP3   OH263292   3.197   3.025  14.702  0.0246  0.1212  0.7292
13934TIP3    H163293   3.212   3.111  14.742  1.3230  0.5778 -0.6196
13934TIP3    H263294   3.171   3.044  14.612  0.1132 -0.8852  0.4745
13935TIP3   OH263295   5.794   6.438   0.673 -0.0171 -0.1553 -0.1870
13935TIP3    H163296   5.787   6.402   0.761 -0.0393 -0.4485 -0.3109
13935TIP3    H263297   5.888   6.444   0.657 -0.0178 -0.9207 -0.4836
13936TIP3   OH263298   1.431   0.494  16.977  0.0008 -0.2045 -0.4968
13936TIP3    H163299   1.504   0.475  17.035 -0.2665  0.2981  0.0099
13936TIP3    H263300   1.376   0.416  16.980  2.2982 -2.2159 -3.7404
13937TIP3   OH263301   6.422   6.279   4.784  0.0649  0.4048 -0.7136
13937TIP3    H163302   6.465   6.362   4.803  0.5029  0.0263 -0.0090
13937TIP3    H263303   6.376   6.257   4.865  2.1615 -1.3637  0.0833
13938TIP3   OH263304   5.490   1.476   5.744  0.1948 -0.1592 -0.4987
13938TIP3    H163305   5.572   1.435   5.770 -0.6152 -0.0163  2.7231
13938TIP3    H263306   5.515   1.540   5.676  3.5382  2.7780  3.0256
13939TIP3   OH263307   3.773   1.082   4.493  0.0438 -0.0232  0.2489
13939TIP3    H163308   3.727   1.001   4.476  0.7784 -0.5465  0.6812
13939TIP3    H263309   3.725   1.122   4.566  0.9084 -1.1191  1.4634
13940TIP3   OH263310   5.541   4.449  11.645 -0.4194  0.5695  0.3094
13940TIP3    H163311   5.542   4.412  11.557 -2.1278  0.5118  0.2836
13940TIP3    H263312   5.523   4.543  11.631 -0.8372  0.5343  0.5847
13941TIP3   OH263313   3.741   2.420   4.563 -0.6194  0.3269  0.3061
13941TIP3    H163314   3.683   2.375   4.625 -1.5314  0.3075 -0.5352
13941TIP3    H263315   3.745   2.361   4.487  1.3023 -0.1410  0.7150
13942TIP3   OH263316   2.714   1.431   5.350  0.4585 -0.4967  0.6686
13942TIP3    H163317   2.809   1.425   5.346  0.4412 -0.4794  0.2090
13942TIP3    H263318   2.687   1.354   5.399  0.7905  0.1500  1.9414
13943TIP3   OH263319   0.679   4.594   6.333 -0.1613  0.3814 -0.8270
13943TIP3    H163320   0.674   4.662   6.266 -0.9253  1.2751  0.0878
13943TIP3    H263321   0.765   4.554   6.321  0.7651  2.2333 -0.7467
13944TIP3   OH263322   0.468   3.639   5.094  0.5666 -0.1654 -0.1212
13944TIP3    H163323   0.514   3.571   5.143  0.8866 -0.4689 -0.8365
13944TIP3    H263324   0.413   3.682   5.160 -0.3187 -1.6943  0.1780
13945TIP3   OH263325   4.223   4.971   1.045  0.9749  0.9582 -0.0427
13945TIP3    H163326   4.242   4.948   1.136  1.2694 -0.9296 -0.5370
13945TIP3    H263327   4.307   4.962   1.000  1.3026  3.8389 -0.2012
13946TIP3   OH263328   3.941   1.648   5.340 -0.4610  0.3517 -0.4776
13946TIP3    H163329   3.940   1.666   5.246  2.8262  0.4987 -0.6166
13946TIP3    H263330   3.945   1.553   5.346  1.4464  0.3752 -0.6657
13947TIP3   OH263331   1.538   5.821   1.268 -0.3034 -0.0311 -0.4457
13947TIP3    H163332   1.577   5.832   1.355 -0.3363 -3.8415  0.2155
13947TIP3    H263333   1.458   5.772   1.284 -1.8379  1.6340 -2.4720
13948TIP3   OH263334   0.701   6.516  14.246  0.0899 -0.0774 -0.5304
13948TIP3    H163335   0.680   6.515  14.339 -0.3714  0.9248 -0.6033
13948TIP3    H263336   0.784   6.470  14.239  0.6693  0.7657  0.5176
13949TIP3   OH263337   3.502   6.683  15.902 -0.5957 -0.0539  0.2956
13949TIP3    H163338   3.528   6.740  15.975  0.6566  0.7759 -0.7523
13949TIP3    H263339   3.524   6.595  15.932 -1.6915  0.0749  1.5736
13950TIP3   OH263340   4.201   1.151   5.784 -0.0347 -0.0584  0.0828
13950TIP3    H163341   4.200   1.215   5.712 -1.6542  0.9140  0.9106
13950TIP3    H263342   4.235   1.200   5.859  0.2401 -0.6536  0.3564
13951TIP3   OH263343   2.059   1.698  12.720  0.1395 -0.6530  0.5100
13951TIP3    H163344   1.977   1.650  12.705 -0.0607  0.3842 -2.3152
13951TIP3    H263345   2.031   1.786  12.744  0.4312 -0.4670  0.1753
13952TIP3   OH263346   5.056   3.331  12.954 -0.0280  0.3398 -0.3174
13952TIP3    H163347   5.107   3.276  12.895 -0.0668 -0.6434  0.5480
13952TIP3    H263348   5.097   3.320  13.039 -1.1353  0.2358  0.2225
13953TIP3   OH263349   0.249   5.101   3.118  0.2025  0.0124  0.2773
13953TIP3    H163350   0.177   5.088   3.058  0.0413  1.1881  0.1845
13953TIP3    H263351   0.301   5.021   3.112  0.3786  0.2287 -1.6818
13954TIP3   OH263352   2.168   1.362  12.658 -0.3050 -0.1834  0.3124
13954TIP3    H163353   2.243   1.419  12.643 -0.5656 -0.1390 -0.8959
13954TIP3    H263354   2.192   1.310  12.735  1.5354 -1.1480 -0.8638
13955TIP3   OH263355   2.937   5.878   2.001  0.8266  0.0365  0.4047
13955TIP3    H163356   2.893   5.948   2.049  1.0548  0.6814 -0.3044
13955TIP3    H263357   3.026   5.910   1.989  1.2193 -0.8223  0.9539
13956TIP3   OH263358   3.310   3.807  16.382 -0.0827 -0.1271  0.4205
13956TIP3    H163359   3.318   3.846  16.469  2.3681 -0.7720  0.5606
13956TIP3    H263360   3.353   3.722  16.390 -0.8805 -0.7185 -1.1529
13957TIP3   OH263361   5.066   5.491  14.032  0.1570 -0.3733 -0.4798
13957TIP3    H163362   5.038   5.457  14.117 -1.0212 -0.8435 -1.0354
13957TIP3    H263363   5.057   5.417  13.972 -0.5341  0.3709 -1.3170
13958TIP3   OH263364   1.017   4.540  13.274 -0.4215  0.1443 -0.1820
13958TIP3    H163365   1.021   4.548  13.369  0.3854 -0.7431 -0.1293
13958TIP3    H263366   1.027   4.446  13.258  1.6432  0.4863 -1.2274
13959TIP3   OH263367   1.404   2.643   6.132 -0.0048 -0.4072  0.0713
13959TIP3    H163368   1.370   2.643   6.043 -0.2066 -2.5920  0.0950
13959TIP3    H263369   1.417   2.551   6.153  0.7470  0.0894  2.0511
13960TIP3   OH263370   4.098   2.530   5.045  0.1648  0.4494  0.1358
13960TIP3    H163371   4.151   2.552   5.121 -1.9180  1.6962  1.3440
13960TIP3    H263372   4.158   2.536   4.971  2.0633  0.0945  1.5679
13961TIP3   OH263373   4.847   5.399   1.446  1.1397 -0.6121  0.3802
13961TIP3    H163374   4.900   5.389   1.367  2.4626 -0.5827  1.2375
13961TIP3    H263375   4.836   5.310   1.479  1.0623 -0.5712  0.4667
13962TIP3   OH263376   1.269   3.281  11.969  0.3252 -0.2816  0.2693
13962TIP3    H163377   1.279   3.300  12.062  1.6063  0.9547 -0.0865
13962TIP3    H263378   1.239   3.362  11.930 -2.7171 -1.4722 -0.0968
13963TIP3   OH263379   5.378   0.203  12.994  0.1918  0.0232  0.2240
13963TIP3    H163380   5.390   0.143  13.068  1.0904 -1.4630 -1.0758
13963TIP3    H263381   5.360   0.147  12.919 -0.0176  1.4484 -0.8447
13964TIP3   OH263382   0.831   0.133   4.880  0.0429  0.2541  0.0775
13964TIP3    H163383   0.918   0.173   4.883 -0.2310  0.8183  1.0632
13964TIP3    H263384   0.785   0.169   4.956 -1.3415  0.6147 -0.8839
13965TIP3   OH263385   2.447   4.682  14.269 -0.0292  0.5688  0.0836
13965TIP3    H163386   2.430   4.776  14.270  1.2213  0.8089  0.0821
13965TIP3    H263387   2.529   4.671  14.315  0.2206 -0.4518 -0.5493
13966TIP3   OH263388   4.623   4.993  11.725  0.7312 -0.1777 -0.2377
13966TIP3    H163389   4.626   4.897  11.735  1.1038 -0.1033  0.4292
13966TIP3    H263390   4.684   5.012  11.655  1.6350 -0.3252  0.4933
13967TIP3   OH263391   4.044   2.602   3.479  0.1986 -0.7244  0.4659
13967TIP3    H163392   3.954   2.623   3.507 -0.0900 -0.0108 -0.9173
13967TIP3    H263393   4.086   2.569   3.558 -1.1001 -0.4707  1.2988
13968TIP3   OH263394   2.786   4.448  12.815  0.1183 -0.0301 -1.0467
13968TIP3    H163395   2.701   4.435  12.858  0.6104 -0.0604 -0.0583
13968TIP3    H263396   2.764   4.480  12.728 -0.9091 -0.0129 -0.7937
13969TIP3   OH263397   4.942   0.240  16.532 -0.3682  0.1542 -0.6035
13969TIP3    H163398   4.890   0.229  16.452 -2.1553 -1.0100  0.6466
13969TIP3    H263399   4.920   0.163  16.585  1.5478  0.3934  0.6084
13970TIP3   OH263400   0.910   2.685   1.465  0.0997 -0.5335  0.4923
13970TIP3    H163401   0.862   2.617   1.417 -1.5687  2.3658 -2.4217
13970TIP3    H263402   0.847   2.719   1.529 -0.8189  1.1399 -1.1725
13971TIP3   OH263403   6.763   1.980  15.184  0.1080 -0.5954  0.1845
13971TIP3    H163404   6.827   1.969  15.114  0.9757 -1.2143  1.0454
13971TIP3    H263405   6.686   1.931  15.154 -0.1283  0.4287 -1.0063
13972TIP3   OH263406   2.705   0.731  14.106 -0.1598 -0.0091 -0.0437
13972TIP3    H163407   2.677   0.710  14.195  1.2427  0.7911  0.6098
13972TIP3    H263408   2.624   0.731  14.055 -1.1999  0.9699  1.5191
13973TIP3   OH263409   1.291   6.467   2.128  0.0660  0.0212  0.2689
13973TIP3    H163410   1.212   6.521   2.132 -0.8413 -1.2792  0.4062
13973TIP3    H263411   1.332   6.479   2.213 -1.3605 -1.2713  1.1971
13974TIP3   OH263412   1.487   1.908   2.037  0.3014 -0.0561  0.3091
13974TIP3    H163413   1.395   1.908   2.010 -0.2447 -1.4797  1.9548
13974TIP3    H263414   1.536   1.915   1.955 -1.2639  0.8092 -0.5968
13975TIP3   OH263415   5.592   4.519   1.466 -0.1307  0.7864 -0.2251
13975TIP3    H163416   5.612   4.434   1.505 -0.7826  1.1805  0.9992
13975TIP3    H263417   5.553   4.497   1.381  0.7911 -0.0941 -0.4526
13976TIP3   OH263418   4.653   4.287  14.064 -0.3222 -0.1109 -0.3406
13976TIP3    H163419   4.653   4.376  14.098 -0.3249 -0.4641  0.6446
13976TIP3    H263420   4.569   4.251  14.093 -1.0738  0.0811 -2.1951
13977TIP3   OH263421   0.902   6.058  15.820  0.3515  0.5306 -0.4899
13977TIP3    H163422   0.811   6.068  15.849  1.4196  0.0686  3.6968
13977TIP3    H263423   0.934   6.147  15.811 -0.2601  0.6952 -1.1329
13978TIP3   OH263424   4.464   5.989   0.593 -0.1224 -0.5878 -0.5688
13978TIP3    H163425   4.441   6.044   0.668  1.4424 -0.2134 -0.3265
13978TIP3    H263426   4.381   5.952   0.564 -0.8623 -0.1207  0.8655
13979TIP3   OH263427   1.593   6.575   3.061 -0.3548 -0.2176 -0.2323
13979TIP3    H163428   1.662   6.642   3.059 -0.5313 -0.0581 -1.5432
13979TIP3    H263429   1.567   6.572   3.153 -0.5000  1.7003 -0.1537
13980TIP3   OH263430   3.096   2.265  12.757 -0.2858 -1.1173  0.2926
13980TIP3    H163431   3.025   2.328  12.749 -1.0276 -2.1297 -1.5902
13980TIP3    H263432   3.073   2.194  12.696  0.8352 -2.9104  1.8415
13981TIP3   OH263433   3.577   0.177  14.387 -0.2697 -0.1231  0.3418
13981TIP3    H163434   3.666   0.181  14.423  0.7336 -0.8124 -1.8847
13981TIP3    H263435   3.520   0.173  14.464  1.6453 -0.1760  1.8300
13982TIP3   OH263436   1.831   0.453   1.650 -0.1615 -0.6171  0.0050
13982TIP3    H163437   1.781   0.376   1.679 -1.9617  0.7080  0.5741
13982TIP3    H263438   1.828   0.513   1.724  0.0830  0.5503 -0.9018
13983TIP3   OH263439   2.305   5.476  14.567 -0.2794 -0.3253  0.3762
13983TIP3    H163440   2.387   5.430  14.550  0.3215  0.1453  1.8240
13983TIP3    H263441   2.301   5.482  14.663 -3.2520 -2.5852  0.5283
13984TIP3   OH263442   0.325   0.321  15.961  0.3044  0.2778  1.0441
13984TIP3    H163443   0.397   0.353  15.907 -1.1093  1.3992 -0.2598
13984TIP3    H263444   0.304   0.394  16.020 -0.4409  0.3591  0.6897
13985TIP3   OH263445   4.419   5.142  11.625 -0.1341 -0.2587  0.3791
13985TIP3    H163446   4.499   5.095  11.648  0.1272  0.0509  0.1021
13985TIP3    H263447   4.446   5.207  11.560 -1.0979 -2.1246 -2.0451
13986TIP3   OH263448   2.865   6.711   1.016  0.7952 -0.2862  0.0251
13986TIP3    H163449   2.840   6.682   0.928 -0.1018  0.8405 -0.1181
13986TIP3    H263450   2.798   6.775   1.040  2.3357  1.2090  0.5509
13987TIP3   OH263451   0.453   5.888   4.435 -0.3505 -0.4491  0.3987
13987TIP3    H163452   0.488   5.828   4.369 -0.2850 -1.0213  0.9528
13987TIP3    H263453   0.359   5.888   4.420 -0.1179  2.1588 -2.0199
13988TIP3   OH263454   1.677   3.736  14.603  0.4542  0.5818  0.4703
13988TIP3    H163455   1.643   3.735  14.693 -1.4792  1.2436 -0.2021
13988TIP3    H263456   1.698   3.645  14.585 -2.2326 -0.1449  0.5476
13989TIP3   OH263457   1.847   1.645   6.206  0.2699  0.3112 -0.0365
13989TIP3    H163458   1.873   1.575   6.146  1.2110  2.2014 -1.9755
13989TIP3    H263459   1.792   1.702   6.154  1.5786  2.3284  0.6781
13990TIP3   OH263460   4.262   5.903  16.576 -0.1298 -0.1071 -0.0269
13990TIP3    H163461   4.329   5.864  16.632 -0.0736 -2.4128 -1.5659
13990TIP3    H263462   4.310   5.954  16.511 -0.0963  0.9665  0.8121
13991TIP3   OH263463   4.786   2.280   1.935  0.6008  0.4209 -0.0232
13991TIP3    H163464   4.750   2.366   1.913 -1.1188 -0.4599 -0.7927
13991TIP3    H263465   4.734   2.218   1.884  1.2845 -1.1541  1.1236
13992TIP3   OH263466   6.364   5.852   5.048  0.4401  0.1308 -0.2951
13992TIP3    H163467   6.315   5.910   4.989 -0.9415 -1.3245 -0.6301
13992TIP3    H263468   6.301   5.829   5.116  1.3699  0.0341  0.5446
13993TIP3   OH263469   5.739   0.705   0.531  0.1518 -0.2883  0.3097
13993TIP3    H163470   5.734   0.801   0.536  1.9422 -0.1238 -0.2489
13993TIP3    H263471   5.802   0.681   0.599 -1.2935 -1.2257  1.3520
13994TIP3   OH263472   0.751   0.770   5.388 -0.3862 -0.5515  0.2129
13994TIP3    H163473   0.673   0.799   5.435 -2.7205  0.7205 -3.9192
13994TIP3    H263474   0.717   0.717   5.316  2.4502  0.6412 -2.2065
13995TIP3   OH263475   3.517   4.277   0.620  0.5067 -0.3944  0.3815
13995TIP3    H163476   3.449   4.258   0.555  1.0894  0.3446 -0.4645
13995TIP3    H263477   3.570   4.345   0.580  2.9631 -2.3196  0.1162
13996TIP3   OH263478   4.105   3.779  15.688  0.2798 -0.2660  0.0119
13996TIP3    H163479   4.153   3.858  15.714 -1.5249  1.1061 -0.5944
13996TIP3    H263480   4.048   3.760  15.763 -0.4016 -0.0288 -0.4258
13997TIP3   OH263481   4.559   2.661   2.131 -0.1837 -0.1997  0.2831
13997TIP3    H163482   4.616   2.734   2.108 -0.1404 -0.4761 -0.5530
13997TIP3    H263483   4.576   2.644   2.223 -1.1966  1.7155  0.8664
13998TIP3   OH263484   2.152   2.135   1.735  0.1818  0.0713  0.2854
13998TIP3    H163485   2.243   2.114   1.755  0.3245 -0.6842 -1.0652
13998TIP3    H263486   2.155   2.183   1.653 -0.6700 -0.5584 -0.1385
13999TIP3   OH263487   5.019   1.114   0.339  0.2651  0.2255  0.2253
13999TIP3    H163488   4.937   1.145   0.378  0.6512  0.4165  0.8955
13999TIP3    H263489   5.087   1.139   0.402  0.7902 -0.3361 -0.1049
14000TIP3   OH263490   6.015   6.577  11.362 -0.7037  0.0337  0.3379
14000TIP3    H163491   6.104   6.605  11.343 -0.8040 -0.3267 -0.7103
14000TIP3    H263492   5.976   6.558  11.277 -1.6063 -0.3615  0.8130
14001TIP3   OH263493   4.109   1.101  12.702 -0.0257 -0.2700  0.0620
14001TIP3    H163494   4.175   1.119  12.768 -0.3307  0.2071  0.2472
14001TIP3    H263495   4.156   1.103  12.619 -0.2260  3.1295 -0.1458
14002TIP3   OH263496   0.942   6.746   3.221 -0.4311 -0.4517 -0.0077
14002TIP3    H163497   0.956   6.840   3.213  0.0633 -0.6084 -1.1063
14002TIP3    H263498   0.920   6.733   3.313 -0.8474  0.7779  0.0862
14003TIP3   OH263499   1.931   2.204   0.728  0.2448  0.5441 -0.0226
14003TIP3    H163500   1.836   2.197   0.742  0.2878  1.5883  0.9600
14003TIP3    H263501   1.960   2.114   0.721 -0.5664  0.1043  1.6720
14004TIP3   OH263502   2.722   2.618   0.120 -0.0251  0.0809  0.6104
14004TIP3    H163503   2.709   2.711   0.100 -0.3295  0.1585  1.1582
14004TIP3    H263504   2.758   2.617   0.209  1.3230 -0.2614  0.0972
14005TIP3   OH263505   1.467   0.460  14.464 -0.1363 -0.0593  0.0226
14005TIP3    H163506   1.449   0.481  14.372 -0.6533 -0.1141  0.1070
14005TIP3    H263507   1.525   0.384  14.460  1.1060  0.8818 -0.2721
14006TIP3   OH263508   0.264   6.802   5.598 -0.0119  0.1084  0.7342
14006TIP3    H163509   0.340   6.823   5.652 -0.4754 -0.9177  1.8431
14006TIP3    H263510   0.188   6.821   5.654 -0.5817  0.6999 -0.1967
14007TIP3   OH263511   1.457   3.194  14.835 -0.3471  0.0745 -0.6081
14007TIP3    H163512   1.501   3.269  14.875 -0.5933 -0.1009 -0.0052
14007TIP3    H263513   1.523   3.157  14.776  0.3279 -0.2025  0.3106
14008TIP3   OH263514   2.429   6.400   1.624  0.4201 -0.1773 -0.2168
14008TIP3    H163515   2.417   6.352   1.706  1.1111  3.8005  2.5189
14008TIP3    H263516   2.343   6.435   1.603  0.4312 -0.4258 -0.7001
14009TIP3   OH263517   4.525   3.697  14.281  0.2745 -0.1489 -0.6142
14009TIP3    H163518   4.551   3.640  14.352 -0.5221 -0.5563 -0.6332
14009TIP3    H263519   4.601   3.701  14.223  1.4865  1.3839  0.9780
14010TIP3   OH263520   3.984   0.968   0.225 -0.3947 -0.6289  0.2477
14010TIP3    H163521   3.903   0.965   0.277 -0.9657 -1.1051 -0.6462
14010TIP3    H263522   4.021   1.054   0.243 -2.4357  0.6457 -1.3096
14011TIP3   OH263523   6.284   0.270  17.158 -0.1100  0.4522  0.5626
14011TIP3    H163524   6.322   0.355  17.136 -1.2018  1.1430  1.2828
14011TIP3    H263525   6.277   0.224  17.074  2.9235 -0.0186  0.4236
14012TIP3   OH263526   6.392   5.654  14.844  0.3085 -0.0969 -0.0430
14012TIP3    H163527   6.303   5.619  14.852  1.2854 -2.6804  0.1946
14012TIP3    H263528   6.449   5.581  14.865  2.5383  1.3790 -0.6285
14013TIP3   OH263529   4.860   6.196  15.856 -0.2782 -0.4750 -0.2891
14013TIP3    H163530   4.945   6.191  15.900 -0.2164 -0.2218 -0.3787
14013TIP3    H263531   4.798   6.164  15.921 -0.3619  1.1029  0.4646
14014TIP3   OH263532   0.730   2.908  14.477 -0.2046 -0.0863  0.5964
14014TIP3    H163533   0.656   2.864  14.435 -0.9035  1.1267  0.5245
14014TIP3    H263534   0.765   2.966  14.409  0.5215 -0.2920  0.7830
14015TIP3   OH263535   0.471   6.524  14.657  0.5462 -0.9787 -0.4223
14015TIP3    H163536   0.539   6.560  14.599 -0.8957  2.0751 -0.3671
14015TIP3    H263537   0.401   6.498  14.598 -0.0586  0.1284 -0.1996
14016TIP3   OH263538   1.247   0.809  12.913 -0.1236  0.9454  0.1107
14016TIP3    H163539   1.238   0.878  12.847  2.4980 -0.8368 -2.2957
14016TIP3    H263540   1.178   0.746  12.892  1.7945 -0.5244 -2.3153
14017TIP3   OH263541   4.586   2.578  10.103 -0.4795  0.7181  0.2705
14017TIP3    H163542   4.595   2.638  10.177 -0.4318  0.1182  0.7567
14017TIP3    H263543   4.508   2.608  10.056 -1.5945  0.0202  1.5961
14018TIP3   OH263544   0.651   4.904   2.421  0.5899  0.6155  0.7272
14018TIP3    H163545   0.709   4.979   2.433  2.0851 -0.6199  1.4918
14018TIP3    H263546   0.703   4.841   2.370 -0.3057 -0.2540  0.8535
14019TIP3   OH263547   5.562   3.630  16.211 -0.1777 -0.4876 -0.3661
14019TIP3    H163548   5.612   3.676  16.143  0.6338  2.2200  1.8606
14019TIP3    H263549   5.627   3.578  16.258  0.5111  2.0679  1.7493
14020TIP3   OH263550   1.807   2.754  14.083 -0.3938  0.0301 -0.9735
14020TIP3    H163551   1.735   2.761  14.145 -0.8174 -2.8227 -1.0178
14020TIP3    H263552   1.884   2.784  14.132 -1.0344 -0.2894  0.2602
14021TIP3   OH263553   6.241   5.743   1.535 -0.0047  0.2119  0.4237
14021TIP3    H163554   6.154   5.715   1.506  0.0918 -0.9097  1.1592
14021TIP3    H263555   6.292   5.748   1.454 -1.1650  2.5599 -0.2402
14022TIP3   OH263556   1.381   5.312  15.027 -0.1523  0.7155  0.3390
14022TIP3    H163557   1.288   5.317  15.049 -0.5358 -1.2165 -0.6563
14022TIP3    H263558   1.384   5.324  14.932  0.4925 -0.3509  0.2116
14023TIP3   OH263559   5.557   2.941  12.974  0.4564  0.3438 -0.4406
14023TIP3    H163560   5.571   2.847  12.960 -0.4265  0.5004 -2.7317
14023TIP3    H263561   5.641   2.973  13.008  0.7806 -1.2348  0.3385
14024TIP3   OH263562   6.139   3.868  16.078  0.4126 -0.2628 -0.3153
14024TIP3    H163563   6.069   3.840  16.019  0.3665 -1.4524  0.2841
14024TIP3    H263564   6.106   3.850  16.166  2.3132 -3.0763 -0.0433
14025TIP3   OH263565   1.752   0.657   2.428  0.4678 -0.4336 -0.5229
14025TIP3    H163566   1.775   0.717   2.357 -1.4132 -0.5961 -1.3577
14025TIP3    H263567   1.737   0.573   2.384 -1.5225 -0.3494 -0.1115
14026TIP3   OH263568   6.805   6.275   2.143  0.2267  0.0068  0.4093
14026TIP3    H163569   6.790   6.181   2.149  0.1051 -0.1321 -1.5448
14026TIP3    H263570   6.748   6.313   2.209 -2.2086 -1.1026 -0.9281
14027TIP3   OH263571   3.364   6.788  15.227 -0.0908 -0.4382 -0.3496
14027TIP3    H163572   3.271   6.809  15.230  0.3428  1.4910  0.8591
14027TIP3    H263573   3.392   6.816  15.140 -0.7488 -1.7152 -1.0057
14028TIP3   OH263574   3.929   2.200  11.243 -0.1285  0.0762  0.0027
14028TIP3    H163575   3.951   2.124  11.297  1.8487 -0.1745 -1.0620
14028TIP3    H263576   4.008   2.253  11.244 -1.2882  1.8719  0.2516
14029TIP3   OH263577   3.885   4.096   3.052  0.0199  0.0734  0.4171
14029TIP3    H163578   3.847   4.183   3.062  0.8052  0.4118  0.5166
14029TIP3    H263579   3.874   4.055   3.137 -1.2168 -0.2828  0.0939
14030TIP3   OH263580   1.905   2.493  13.050 -0.9331  0.2234  0.1886
14030TIP3    H163581   1.949   2.577  13.036  2.1826 -1.4795 -1.5208
14030TIP3    H263582   1.951   2.455  13.125 -2.0478 -0.1439  0.6983
14031TIP3   OH263583   0.517   2.010  11.452 -0.0653 -0.2813 -0.1709
14031TIP3    H163584   0.590   1.951  11.470  0.9031  0.9653  0.0679
14031TIP3    H263585   0.521   2.075  11.521  1.1678  2.1844 -2.3939
14032TIP3   OH263586   5.388   0.249  14.032 -0.1038 -0.3249  0.1046
14032TIP3    H163587   5.433   0.165  14.040 -0.6795 -0.7461 -0.9321
14032TIP3    H263588   5.459   0.314  14.028  0.3482 -0.7790  0.5438
14033TIP3   OH263589   4.758   4.970  13.773 -0.0635 -0.0181  0.1272
14033TIP3    H163590   4.685   5.030  13.783  0.1021  0.1646  0.2253
14033TIP3    H263591   4.716   4.883  13.766 -0.2819  0.0711  0.3047
14034TIP3   OH263592   3.786   0.886  13.886 -0.5556 -0.2747 -0.0717
14034TIP3    H163593   3.716   0.899  13.822 -0.6219 -0.6587 -0.0793
14034TIP3    H263594   3.830   0.970  13.890 -0.5564 -0.2395 -0.6235
14035TIP3   OH263595   5.863   3.675   0.196  0.1492  0.5281 -0.0013
14035TIP3    H163596   5.921   3.730   0.143 -0.8381  1.7865  0.1736
14035TIP3    H263597   5.782   3.726   0.204 -0.8677 -1.0165  0.0571
14036TIP3   OH263598   5.424   1.266  16.697  0.3711 -0.5731 -0.5851
14036TIP3    H163599   5.450   1.221  16.778  1.6713 -1.4169 -1.4255
14036TIP3    H263600   5.502   1.264  16.643  0.2056  2.0213 -1.0089
14037TIP3   OH263601   5.155   1.843  11.568 -0.0148  0.2546  0.3337
14037TIP3    H163602   5.142   1.769  11.628  1.2397 -2.2905 -2.2832
14037TIP3    H263603   5.067   1.879  11.555 -0.6245 -0.5903  1.8854
14038TIP3   OH263604   3.855   3.169  12.274  0.1831  0.2467  0.6358
14038TIP3    H163605   3.951   3.166  12.278  0.2701 -1.1984 -1.3584
14038TIP3    H263606   3.827   3.101  12.336  0.4391  0.6077  1.1543
14039TIP3   OH263607   6.291   6.581  11.372  0.1640  0.4755 -0.1013
14039TIP3    H163608   6.333   6.521  11.434  0.2370 -1.1237 -1.6405
14039TIP3    H263609   6.318   6.550  11.286 -2.5221  0.5777 -1.0941
14040TIP3   OH263610   5.594   2.933   5.665 -0.2451  0.0765 -0.0374
14040TIP3    H163611   5.625   2.971   5.747  2.4828 -0.8928 -0.5237
14040TIP3    H263612   5.598   3.005   5.602 -0.7319  0.4035  0.2997
14041TIP3   OH263613   0.979   3.733   6.375 -0.2453  0.4053  0.2283
14041TIP3    H163614   1.004   3.813   6.421 -0.5926  0.6257  0.0368
14041TIP3    H263615   0.898   3.705   6.418 -1.2320  1.2610 -0.9935
14042TIP3   OH263616   1.565   4.856   5.277  0.8163 -0.4205 -0.4400
14042TIP3    H163617   1.579   4.927   5.340 -3.5847  1.1830 -0.9475
14042TIP3    H263618   1.595   4.891   5.194  2.3152 -0.7453 -0.0596
14043TIP3   OH263619   2.015   3.573  11.224  0.2220 -0.2219  0.2178
14043TIP3    H163620   1.954   3.620  11.166 -0.8488 -0.8128  0.8205
14043TIP3    H263621   1.964   3.497  11.254  1.4246 -0.9834  0.3894
14044TIP3   OH263622   3.478   0.961   0.893 -0.4346  0.0350 -0.1499
14044TIP3    H163623   3.570   0.982   0.910  0.3470  0.4096 -3.9534
14044TIP3    H263624   3.467   0.872   0.927  0.8116  0.5425  1.7660
14045TIP3   OH263625   4.487   6.080   6.767 -0.7751 -0.1272  0.0670
14045TIP3    H163626   4.508   5.990   6.740 -0.1814  0.0514 -0.0877
14045TIP3    H263627   4.571   6.115   6.798 -1.0069  0.3721  0.1291
14046TIP3   OH263628   3.286   5.571   0.004  0.0941 -0.4309  0.1156
14046TIP3    H163629   3.349   5.557   0.074  1.4060  0.5961 -0.8073
14046TIP3    H263630   3.219   5.503   0.017  0.0802 -0.0197  2.5475
14047TIP3   OH263631   5.196   3.926  16.418  0.0087  0.2640 -0.0609
14047TIP3    H163632   5.151   3.888  16.343  0.7278  0.8133 -0.7864
14047TIP3    H263633   5.169   3.872  16.492 -2.3091  0.9515 -0.3452
14048TIP3   OH263634   0.795   1.537   4.531  0.3746 -0.0341  0.0366
14048TIP3    H163635   0.888   1.517   4.526  0.2428 -1.0504  1.0887
14048TIP3    H263636   0.754   1.455   4.560 -0.8358  0.4111 -0.3410
14049TIP3   OH263637   4.833   5.855   2.101 -0.1243  0.4485 -0.2484
14049TIP3    H163638   4.861   5.898   2.020 -0.8463  0.5640 -0.4459
14049TIP3    H263639   4.762   5.910   2.133  0.0158  0.2806  0.3554
14050TIP3   OH263640   4.006   5.392  13.617  0.7487  0.1905 -0.1986
14050TIP3    H163641   4.093   5.421  13.643 -0.0428  1.5832  1.0710
14050TIP3    H263642   3.950   5.469  13.630 -0.8625 -0.9636  0.0578
14051TIP3   OH263643   2.314   5.244   3.831 -0.0514 -0.2575  0.5129
14051TIP3    H163644   2.233   5.295   3.833  0.7971  1.2359 -0.8472
14051TIP3    H263645   2.377   5.296   3.881  0.2996 -1.0133  0.8817
14052TIP3   OH263646   6.207   2.088   3.330  0.5928  0.2127 -0.2825
14052TIP3    H163647   6.268   2.015   3.337  0.6149  0.1505 -1.0527
14052TIP3    H263648   6.228   2.128   3.246 -1.7367 -0.9952 -1.5298
14053TIP3   OH263649   5.096   6.565   5.168 -0.0551 -0.5899 -0.2308
14053TIP3    H163650   5.110   6.471   5.162 -0.7520 -0.8145  1.2098
14053TIP3    H263651   5.062   6.579   5.257 -2.4221  0.7038 -1.2396
14054TIP3   OH263652   6.427   3.817   3.816  0.0385  0.0135 -0.2062
14054TIP3    H163653   6.419   3.904   3.776 -1.1528  0.0031 -0.0469
14054TIP3    H263654   6.392   3.828   3.904  0.3609 -0.5144 -0.0080
14055TIP3   OH263655   6.749   1.778  13.722 -0.1765 -0.2548 -0.1458
14055TIP3    H163656   6.728   1.736  13.805  0.8445 -0.3329  0.0790
14055TIP3    H263657   6.791   1.710  13.670 -1.6560 -0.4830 -1.1061
14056TIP3   OH263658   3.298   0.137   4.583  0.4021  0.0745 -0.2835
14056TIP3    H163659   3.374   0.091   4.619  0.0936  0.3488  0.7611
14056TIP3    H263660   3.254   0.173   4.660  0.0755  1.2434 -1.0001
14057TIP3   OH263661   0.409   2.383   1.525  0.1845  0.7748  0.3382
14057TIP3    H163662   0.437   2.425   1.443  0.5120  1.5413  0.8265
14057TIP3    H263663   0.471   2.310   1.536 -0.1389  0.3905 -0.3160
14058TIP3   OH263664   5.556   0.388   4.012 -0.0225 -0.0954 -0.7232
14058TIP3    H163665   5.474   0.438   4.021 -0.7175 -1.4124  0.6249
14058TIP3    H263666   5.532   0.312   3.959  0.8168  0.4745 -1.9757
14059TIP3   OH263667   2.772   4.494  15.911  0.6414  0.3548  0.0237
14059TIP3    H163668   2.816   4.466  15.830 -0.2723 -1.4435  0.1019
14059TIP3    H263669   2.718   4.568  15.884  0.2361 -0.3163 -1.0739
14060TIP3   OH263670   4.826   5.208   5.778  0.5928 -0.0597 -0.6053
14060TIP3    H163671   4.781   5.153   5.843  0.1839  0.5419 -0.3714
14060TIP3    H263672   4.791   5.177   5.694 -1.3991  1.3225 -0.3754
14061TIP3   OH263673   2.085   0.055  16.667 -0.0561  0.5820 -0.1407
14061TIP3    H163674   2.129  -0.020  16.706  0.2766  0.0292 -1.5184
14061TIP3    H263675   2.147   0.127  16.676 -0.9089  1.0816  2.4015
14062TIP3   OH263676   4.367   0.542  16.388 -0.2850 -0.3624 -0.0852
14062TIP3    H163677   4.290   0.545  16.444  0.1031  0.8021  0.4046
14062TIP3    H263678   4.424   0.477  16.429 -0.6557 -0.6307  0.0078
14063TIP3   OH263679   3.460   1.401   4.866  0.9563  0.3677 -0.8535
14063TIP3    H163680   3.517   1.391   4.943 -1.2430  1.5811  1.0533
14063TIP3    H263681   3.387   1.341   4.882  0.6076  0.4021 -2.1898
14064TIP3   OH263682   5.872   0.398   3.202 -0.5708 -0.0723  0.0375
14064TIP3    H163683   5.904   0.354   3.123 -1.2026  3.3815 -2.4135
14064TIP3    H263684   5.946   0.450   3.232 -1.3742  1.6091 -0.7270
14065TIP3   OH263685   5.545   6.206  13.774 -0.5777 -0.4474  0.1675
14065TIP3    H163686   5.477   6.244  13.830 -1.1546 -0.8741 -0.2263
14065TIP3    H263687   5.625   6.214  13.825 -0.4934  2.0493 -0.2456
14066TIP3   OH263688   3.782   5.783  16.280  0.1044 -0.8873  0.1191
14066TIP3    H163689   3.799   5.791  16.374  1.0467  0.5361 -0.1489
14066TIP3    H263690   3.694   5.818  16.268  1.4606  2.9301 -0.0053
14067TIP3   OH263691   5.254   0.322  16.212 -0.3652 -0.0673  0.6259
14067TIP3    H163692   5.285   0.242  16.255  2.4005  0.6385  0.1471
14067TIP3    H263693   5.184   0.292  16.154 -0.5799 -1.8381  1.6986
14068TIP3   OH263694   1.440   2.229  13.117  0.8698  0.2312  0.4051
14068TIP3    H163695   1.430   2.277  13.199  2.6468  0.0855  0.7670
14068TIP3    H263696   1.521   2.265  13.079  1.8515 -1.8914  0.3291
14069TIP3   OH263697   1.090   3.242  10.175  0.1269 -0.5620 -0.7446
14069TIP3    H163698   1.009   3.262  10.222 -0.1460 -0.6292 -1.1784
14069TIP3    H263699   1.136   3.181  10.232  0.9753  1.2519  0.6076
14070TIP3   OH263700   2.020   3.647  14.337 -0.5208  0.2389 -0.2330
14070TIP3    H163701   1.992   3.738  14.344 -1.1760  0.0346 -0.1718
14070TIP3    H263702   2.116   3.652  14.334 -0.5535  0.9353 -0.3568
14071TIP3   OH263703   6.642   2.129   4.939 -0.1102  0.0791  0.0542
14071TIP3    H163704   6.673   2.204   4.888 -0.7398  0.4266  0.1812
14071TIP3    H263705   6.722   2.079   4.958  0.1412 -0.0295 -1.2139
14072TIP3   OH263706   5.293   0.757   6.217  0.2378 -0.0483 -0.0589
14072TIP3    H163707   5.245   0.676   6.199  0.1548  0.1439 -0.7085
14072TIP3    H263708   5.319   0.749   6.309 -1.6372  0.1481  0.5194
14073TIP3   OH263709   0.271   2.750   6.086  0.9849  0.2963  0.5755
14073TIP3    H163710   0.307   2.723   6.171  1.0779 -1.4274  0.0232
14073TIP3    H263711   0.340   2.731   6.023  0.1637 -0.4314 -0.1375
14074TIP3   OH263712   4.726   1.101   5.896 -0.1433  0.0975  0.2978
14074TIP3    H163713   4.752   1.108   5.804  0.7583  2.3301  0.6469
14074TIP3    H263714   4.699   1.190   5.919 -1.7584 -0.7279  1.8222
14075TIP3   OH263715   4.182   3.077  14.806 -0.1577  0.3170 -0.0648
14075TIP3    H163716   4.234   3.128  14.868  1.1044 -2.0590  0.9235
14075TIP3    H263717   4.111   3.040  14.859  0.1307 -0.6111 -0.3132
14076TIP3   OH263718   3.088   0.053  15.928 -0.4199  0.1055 -0.3196
14076TIP3    H163719   3.124  -0.032  15.904 -0.1110  0.1121  0.1118
14076TIP3    H263720   3.085   0.052  16.024 -0.3925  0.5878 -0.3110
14077TIP3   OH263721   4.203   6.807  13.688  0.3895  0.3982 -0.1600
14077TIP3    H163722   4.296   6.788  13.691  0.1399 -0.8451  0.2163
14077TIP3    H263723   4.171   6.786  13.775 -0.0373  2.0658  0.1248
14078TIP3   OH263724   3.206   4.647   4.324 -0.0467 -0.0123  0.1062
14078TIP3    H163725   3.279   4.708   4.338 -0.8889  0.7719  1.2039
14078TIP3    H263726   3.241   4.562   4.352  0.8730  0.0978 -0.6562
14079TIP3   OH263727   3.260   4.947   2.599  0.6938  0.1261  0.1997
14079TIP3    H163728   3.306   5.023   2.632  2.5352 -1.8229  2.4591
14079TIP3    H263729   3.235   4.898   2.677  0.6298 -2.1777 -1.1731
14080TIP3   OH263730   0.099   2.744  12.024  0.2886 -0.6530  0.4629
14080TIP3    H163731   0.147   2.788  11.953  1.2639  0.5643  1.7849
14080TIP3    H263732   0.079   2.815  12.086 -0.7423 -1.6251  1.2771
14081TIP3   OH263733   3.401   2.601   1.194 -0.0080 -0.1373 -0.4516
14081TIP3    H163734   3.341   2.605   1.120  0.7499  0.7616 -1.0511
14081TIP3    H263735   3.346   2.620   1.270 -0.8528 -1.3654 -0.7277
14082TIP3   OH263736   2.437   0.166   0.583 -0.1904 -0.2573  0.1238
14082TIP3    H163737   2.394   0.199   0.504  0.0945  0.6020  0.3078
14082TIP3    H263738   2.481   0.086   0.555 -1.4713 -0.8671 -0.1870
14083TIP3   OH263739   0.872   1.494   5.380 -0.2134  0.0647  0.2189
14083TIP3    H163740   0.818   1.498   5.459 -1.1148  0.6386 -0.4107
14083TIP3    H263741   0.812   1.462   5.312  0.1371  1.0540 -0.5742
14084TIP3   OH263742   5.047   1.999   2.015 -0.0945 -0.3766 -0.2171
14084TIP3    H163743   5.115   1.932   2.005  0.3886  0.2448 -1.2300
14084TIP3    H263744   4.973   1.965   1.963  0.8274  0.7315 -2.3771
14085TIP3   OH263745   4.293   2.503  15.462 -0.1206  0.5683  0.3930
14085TIP3    H163746   4.210   2.512  15.415 -1.5089  0.0139  2.5958
14085TIP3    H263747   4.310   2.409  15.463  0.6241  0.6814 -0.1020
14086TIP3   OH263748   3.763   6.392   1.961  0.3538  0.0090  0.0268
14086TIP3    H163749   3.710   6.453   1.910 -1.9339 -0.8016  1.2531
14086TIP3    H263750   3.709   6.373   2.038  1.8976 -1.9294  0.7118
14087TIP3   OH263751   5.726   5.304   2.455  0.5487 -0.0903  0.0985
14087TIP3    H163752   5.781   5.225   2.451  0.2527 -0.2422 -1.2583
14087TIP3    H263753   5.762   5.362   2.387 -1.8135 -0.7733 -1.8557
14088TIP3   OH263754   4.081   4.859   3.240  0.2885 -0.3321  0.2230
14088TIP3    H163755   4.033   4.911   3.175  0.4955 -0.7909 -0.3061
14088TIP3    H263756   4.104   4.778   3.194 -1.4145 -1.6096  1.4953
14089TIP3   OH263757   1.902   1.722   5.686 -0.2145 -0.4424 -0.6664
14089TIP3    H163758   1.866   1.758   5.605 -0.8362 -0.7815 -0.5437
14089TIP3    H263759   1.968   1.659   5.656  2.4474  2.2213 -0.9012
14090TIP3   OH263760   4.067   0.249  12.364  0.5397 -0.5491 -0.3143
14090TIP3    H163761   4.106   0.336  12.363 -0.6176  0.0019  0.0596
14090TIP3    H263762   4.082   0.214  12.277  2.3253 -0.5910 -0.0177
14091TIP3   OH263763   1.084   4.985   6.088  0.5845 -0.0343  0.6485
14091TIP3    H163764   1.078   5.076   6.057 -0.5532  0.1661  1.4002
14091TIP3    H263765   1.090   4.993   6.183 -1.0949 -0.7727  0.8397
14092TIP3   OH263766   6.397   1.255  15.465 -0.2888  0.2560  0.4973
14092TIP3    H163767   6.329   1.216  15.519 -0.1445 -3.1524 -1.4758
14092TIP3    H263768   6.351   1.286  15.387  0.1736 -0.4480 -0.0660
14093TIP3   OH263769   4.440   2.315   1.855  0.3698  0.2667  0.0890
14093TIP3    H163770   4.482   2.235   1.825 -1.3694 -1.3679  1.7215
14093TIP3    H263771   4.356   2.317   1.808  0.7883  1.7011 -0.6683
14094TIP3   OH263772   4.679   4.449   3.251 -0.1510 -0.2087  0.0714
14094TIP3    H163773   4.669   4.354   3.247 -1.0857 -0.0859 -1.9163
14094TIP3    H263774   4.607   4.478   3.307 -1.4223 -0.5484 -1.2891
14095TIP3   OH263775   0.890   6.366   3.280  0.1493  0.2033 -0.1716
14095TIP3    H163776   0.830   6.437   3.302 -1.2911 -0.8988 -0.4099
14095TIP3    H263777   0.883   6.304   3.352  2.5285  0.9139  0.7875
14096TIP3   OH263778   4.962   3.522   3.194 -0.0111 -0.1439  0.2017
14096TIP3    H163779   5.032   3.585   3.175  1.2551 -1.6179 -0.2045
14096TIP3    H263780   4.963   3.461   3.120 -1.3226 -0.5528  0.4967
14097TIP3   OH263781   0.843   3.234   2.526  0.4971 -0.5623  0.1882
14097TIP3    H163782   0.858   3.196   2.612  0.4142 -0.8641  0.0719
14097TIP3    H263783   0.880   3.171   2.465  3.2500  0.9782  0.0895
14098TIP3   OH263784   0.172   5.762  14.956  0.0416  0.2512  0.0714
14098TIP3    H163785   0.091   5.794  14.995  1.7168  2.7840  1.7257
14098TIP3    H263786   0.241   5.810  15.000  2.5225 -1.8950 -1.1777
14099TIP3   OH263787   2.501   0.429   4.472  0.4280  0.2249 -0.1503
14099TIP3    H163788   2.521   0.336   4.459  1.0227  0.3174  0.0672
14099TIP3    H263789   2.548   0.453   4.552  0.5227  0.7816 -0.3648
14100TIP3   OH263790   1.985   2.965  15.062  0.3596  0.1064  0.0262
14100TIP3    H163791   1.930   2.887  15.066  2.1751 -1.1668  1.8145
14100TIP3    H263792   1.941   3.022  14.998 -1.8672 -1.6806 -0.1521
14101TIP3   OH263793   2.927   3.408  12.274 -0.1022  0.1138  0.3434
14101TIP3    H163794   2.877   3.422  12.194  1.8395  0.4719 -0.8956
14101TIP3    H263795   3.010   3.452  12.258  0.9888 -1.2316  1.8857
14102TIP3   OH263796   3.529   1.056  11.998 -0.9501 -0.8203  0.1124
14102TIP3    H163797   3.596   1.125  12.006 -1.2106 -0.4450 -0.8197
14102TIP3    H263798   3.578   0.974  12.006 -0.4734 -0.5431  0.1050
14103TIP3   OH263799   1.300   1.114  15.159  0.2544 -0.0195  0.2114
14103TIP3    H163800   1.281   1.041  15.099 -0.4656 -0.3587  0.8335
14103TIP3    H263801   1.216   1.159  15.168 -0.0111 -0.8306  2.0905
14104TIP3   OH263802   3.151   2.934  16.897 -0.1250  0.1428  0.1823
14104TIP3    H163803   3.229   2.953  16.845  0.6231  0.1566  1.2784
14104TIP3    H263804   3.091   2.893  16.835  1.0105 -0.4962 -0.5405
14105TIP3   OH263805   1.875   0.391  13.487 -0.1096  0.1060  0.6289
14105TIP3    H163806   1.947   0.412  13.546  0.3095  2.4648 -0.5569
14105TIP3    H263807   1.812   0.462  13.501 -0.2625  0.3945 -1.2379
14106TIP3   OH263808   0.586   6.230  17.159  0.0085 -0.1377 -0.3469
14106TIP3    H163809   0.580   6.178  17.079 -1.7685 -1.1967  0.4215
14106TIP3    H263810   0.514   6.292  17.153  0.6058  0.5969 -0.1055
14107TIP3   OH263811   0.373   2.454   6.214  0.0324  0.2209 -0.2849
14107TIP3    H163812   0.326   2.480   6.293  0.3685 -0.8582  0.2965
14107TIP3    H263813   0.382   2.359   6.222  0.3845  0.1398 -1.4556
14108TIP3   OH263814   3.651   0.509   4.468  0.3386 -0.0405  0.0161
14108TIP3    H163815   3.592   0.584   4.472 -0.1354 -0.4160  0.1006
14108TIP3    H263816   3.593   0.433   4.460  0.8251 -0.3670 -0.4810
14109TIP3   OH263817   4.989   4.436   4.942  0.3051 -0.2852  0.5753
14109TIP3    H163818   5.026   4.350   4.921 -0.5044 -0.8419  1.3422
14109TIP3    H263819   4.912   4.416   4.996 -1.0451  0.8283 -0.8630
14110TIP3   OH263820   1.151   0.914  11.099 -1.0107 -0.6655 -0.8906
14110TIP3    H163821   1.225   0.905  11.039 -0.9748 -0.0926 -0.9283
14110TIP3    H263822   1.073   0.908  11.043 -0.9943 -0.9991 -0.8831
14111TIP3   OH263823   0.430   0.665  13.315  0.3051 -0.0973 -0.3519
14111TIP3    H163824   0.335   0.671  13.323  0.4561  2.1746  0.4806
14111TIP3    H263825   0.454   0.588  13.367 -1.1669 -1.6553 -1.8611
14112TIP3   OH263826   4.676   3.477  13.240 -0.2225  0.4686 -0.0707
14112TIP3    H163827   4.581   3.464  13.231 -0.1408  1.1753 -2.6537
14112TIP3    H263828   4.714   3.395  13.211 -0.0173  0.8806 -0.9845
14113TIP3   OH263829   1.965   0.160  16.431  0.2693  0.3850  0.1449
14113TIP3    H163830   1.930   0.247  16.414  1.0015  0.5053 -0.8176
14113TIP3    H263831   1.992   0.162  16.522 -1.6423  0.4779  0.7508
14114TIP3   OH263832   1.543   3.729   1.086  0.1770  0.5898  0.6605
14114TIP3    H163833   1.516   3.818   1.109 -0.4349  0.2739  1.2020
14114TIP3    H263834   1.462   3.684   1.063  0.5557  0.3348 -0.2159
14115TIP3   OH263835   0.098   1.235  17.063 -0.0671 -0.2662  0.5881
14115TIP3    H163836   0.026   1.272  17.013 -0.3632 -0.2481  1.0221
14115TIP3    H263837   0.156   1.197  16.997 -1.3206 -1.8075  0.3230
14116TIP3   OH263838   2.675   2.102  13.314  0.2943  0.0280  0.1592
14116TIP3    H163839   2.729   2.052  13.251 -1.6655 -2.5778  0.3817
14116TIP3    H263840   2.720   2.091  13.397  1.4006  1.1077 -0.2682
14117TIP3   OH263841   4.921   1.516   4.533 -0.4168 -0.2991  0.5401
14117TIP3    H163842   4.976   1.512   4.454 -2.4950 -0.4493 -0.9762
14117TIP3    H263843   4.902   1.609   4.544 -0.1528 -0.2820  0.8555
14118TIP3   OH263844   6.228   0.165  14.110  0.0991 -0.2763  0.1918
14118TIP3    H163845   6.173   0.091  14.134 -0.2837 -0.0238  0.1033
14118TIP3    H263846   6.183   0.204  14.035  0.6207 -0.3186 -0.1478
14119TIP3   OH263847   2.760   6.155   5.345 -0.4378 -0.1642  0.8630
14119TIP3    H163848   2.712   6.224   5.299  0.6627 -0.4278 -0.7686
14119TIP3    H263849   2.710   6.075   5.327 -0.3914 -0.1592  0.7097
14120TIP3   OH263850   0.341   1.497   1.350 -0.3278  0.2809  0.2359
14120TIP3    H163851   0.252   1.533   1.353 -0.6942 -0.6398  2.0823
14120TIP3    H263852   0.328   1.403   1.332  0.1956  0.0093  1.1905
14121TIP3   OH263853   2.632   3.564   5.400  0.5099 -0.3048 -0.5789
14121TIP3    H163854   2.537   3.575   5.400  0.5345  0.1335 -2.2684
14121TIP3    H263855   2.649   3.503   5.328  1.4926 -0.7183 -0.0196
14122TIP3   OH263856   6.073   1.506   2.200 -0.1170 -0.6192  0.5142
14122TIP3    H163857   6.131   1.432   2.178 -1.8136 -1.5751 -1.0743
14122TIP3    H263858   6.101   1.576   2.141  0.3366 -0.5867  0.7630
14123TIP3   OH263859   1.750   3.758  13.417  0.2435 -0.6870  0.1429
14123TIP3    H163860   1.655   3.749  13.415  0.0837  0.7049  0.6394
14123TIP3    H263861   1.768   3.837  13.366  1.0453 -0.3295  0.9494
14124TIP3   OH263862   4.166   0.180  10.820  0.4466  0.3304 -0.9565
14124TIP3    H163863   4.243   0.124  10.813 -0.7581 -1.3761 -1.0385
14124TIP3    H263864   4.197   0.258  10.866  1.6447 -1.4701  1.4944
14125TIP3   OH263865   6.354   5.371  13.177 -0.1848 -0.0127 -0.9117
14125TIP3    H163866   6.397   5.449  13.211  1.0607 -1.0854  0.0727
14125TIP3    H263867   6.260   5.392  13.179  0.0511  1.0471  0.3841
14126TIP3   OH263868   3.553   3.359  11.308 -0.3098  0.2889  0.1390
14126TIP3    H163869   3.506   3.333  11.387 -1.1877  0.1975 -0.3983
14126TIP3    H263870   3.588   3.446  11.328 -2.0680  1.0720  0.0147
14127TIP3   OH263871   5.812   0.837  13.075  0.7467  0.0091 -0.1435
14127TIP3    H163872   5.776   0.920  13.105 -2.0504 -1.3034  0.5603
14127TIP3    H263873   5.772   0.823  12.989  1.4162 -0.4779 -0.3837
14128TIP3   OH263874   6.156   0.016   0.015 -0.0613  0.5633 -0.0778
14128TIP3    H163875   6.179   0.080  -0.053 -0.2895 -0.2494 -0.9357
14128TIP3    H263876   6.233   0.012   0.071  0.7496  0.0958 -1.1903
14129TIP3   OH263877   2.738   3.728   1.912 -0.2485 -0.2848  0.2754
14129TIP3    H163878   2.677   3.654   1.917  1.2891 -1.5686  0.6209
14129TIP3    H263879   2.736   3.767   1.999 -1.5234  0.5103 -0.0780
14130TIP3   OH263880   1.097   5.372   5.430  0.0838  0.3220  0.5718
14130TIP3    H163881   1.018   5.320   5.419  0.7284 -0.1286 -4.0490
14130TIP3    H263882   1.067   5.463   5.425 -0.4125  0.3249  2.6619
14131TIP3   OH263883   6.738   5.066   0.591 -0.5024  0.4788  0.0973
14131TIP3    H163884   6.802   5.030   0.651 -1.2334  0.8836  1.1451
14131TIP3    H263885   6.714   5.151   0.628 -0.3956  1.0996 -1.1831
14132TIP3   OH263886   4.049   5.646  15.197  0.2960  0.4402 -0.7820
14132TIP3    H163887   3.959   5.668  15.174 -1.0952 -0.6404  2.9831
14132TIP3    H263888   4.057   5.553  15.178  1.0160  0.7278 -2.0227
14133TIP3   OH263889   6.523   2.229   6.490 -0.6975 -0.1880  0.4951
14133TIP3    H163890   6.536   2.242   6.583 -1.0203  2.1577  0.2574
14133TIP3    H263891   6.468   2.151   6.484 -0.1589 -0.7418  2.1957
14134TIP3   OH263892   2.185   0.411   5.539  0.3515  0.2476 -0.0305
14134TIP3    H163893   2.203   0.386   5.448  0.1690 -0.3015  0.0767
14134TIP3    H263894   2.091   0.399   5.549  0.5716 -1.1864  0.6485
14135TIP3   OH263895   1.935   4.951   0.521  0.7541  0.1148  0.4535
14135TIP3    H163896   2.014   4.942   0.467  0.9878 -0.0113  0.8138
14135TIP3    H263897   1.895   5.034   0.492  0.7330 -0.0855 -0.0966
14136TIP3   OH263898   3.855   4.277  14.986 -0.1184 -0.1833  0.4499
14136TIP3    H163899   3.790   4.212  14.959 -0.6045  0.1590  0.7737
14136TIP3    H263900   3.895   4.307  14.904  0.4304 -1.2005  0.3218
14137TIP3   OH263901   1.932   4.563   2.544 -0.4763 -0.1380  0.5271
14137TIP3    H163902   1.952   4.633   2.606 -2.0691 -0.0529  1.0072
14137TIP3    H263903   1.932   4.483   2.597 -2.3211 -0.0071  0.7990
14138TIP3   OH263904   1.003   3.703  16.232  0.2581  0.1939 -0.5119
14138TIP3    H163905   1.060   3.770  16.270 -1.4695  1.9621 -0.8182
14138TIP3    H263906   1.003   3.721  16.138 -0.2677 -0.1826 -0.5896
14139TIP3   OH263907   1.798   6.784   4.171 -0.4237 -0.1609  0.2535
14139TIP3    H163908   1.721   6.809   4.120 -0.0931 -1.4851 -0.9909
14139TIP3    H263909   1.810   6.855   4.234 -2.0633  0.5498 -0.1794
14140TIP3   OH263910   3.975   3.546  10.551 -0.2857  0.8657 -0.3433
14140TIP3    H163911   4.012   3.504  10.629 -1.5717 -0.3111 -0.3179
14140TIP3    H263912   4.011   3.634  10.551 -0.9478  1.1790  2.0645
14141TIP3   OH263913   4.633   1.443  12.579  0.4393  0.1579 -0.0517
14141TIP3    H163914   4.558   1.502  12.584  1.7844  1.9519 -0.0708
14141TIP3    H263915   4.646   1.430  12.485 -0.3890 -0.9469 -0.0406
14142TIP3   OH263916   0.160   6.125   3.774 -0.2983  0.4377 -0.2305
14142TIP3    H163917   0.254   6.146   3.775 -0.5453  1.5742 -0.2041
14142TIP3    H263918   0.137   6.123   3.681 -0.6912  2.3022 -0.2100
14143TIP3   OH263919   6.071   2.655   0.769 -0.0417 -0.0360 -0.7697
14143TIP3    H163920   6.145   2.649   0.830 -0.9159 -0.6351  0.2514
14143TIP3    H263921   6.010   2.715   0.811 -0.4208 -0.0218 -1.3221
14144TIP3   OH263922   6.189   3.750   5.550 -0.1622  0.4302 -0.5407
14144TIP3    H163923   6.216   3.786   5.634  0.3453  1.5882 -1.1747
14144TIP3    H263924   6.221   3.660   5.551  1.1167  0.8704 -0.0691
14145TIP3   OH263925   0.838   3.851  14.653  0.5345 -0.0038  0.1558
14145TIP3    H163926   0.847   3.871  14.746  2.3931 -1.3109  0.3028
14145TIP3    H263927   0.838   3.755  14.648 -2.0002 -0.0304 -1.0223
14146TIP3   OH263928   1.383   1.225  14.899 -0.1467  0.6886 -0.0880
14146TIP3    H163929   1.391   1.176  14.981 -0.3551 -0.7342 -0.8816
14146TIP3    H263930   1.391   1.317  14.925 -1.3959  0.3458  1.6858
14147TIP3   OH263931   5.594   4.990  12.258 -0.5121 -0.1835  0.8474
14147TIP3    H163932   5.660   4.952  12.199 -3.2855 -2.4410 -1.1225
14147TIP3    H263933   5.559   4.915  12.306 -3.9634  0.1563 -0.7857
14148TIP3   OH263934   0.651   2.477  11.638 -0.2109  0.2035  0.5067
14148TIP3    H163935   0.702   2.410  11.593  0.5075  0.8724  0.2967
14148TIP3    H263936   0.637   2.441  11.726 -0.5425 -0.5660  0.1505
14149TIP3   OH263937   2.972   4.615   5.238  0.2630  0.8377  0.2624
14149TIP3    H163938   2.882   4.583   5.230  0.0649  1.4208  0.1114
14149TIP3    H263939   2.988   4.663   5.157  0.2101  1.9627  0.9044
14150TIP3   OH263940   4.084   5.514   3.587 -0.4141  0.2913 -0.0666
14150TIP3    H163941   4.126   5.598   3.571 -1.1628  0.8017  0.5877
14150TIP3    H263942   4.154   5.460   3.625  0.0040  0.6999 -0.2432
14151TIP3   OH263943   3.136   4.433  17.102  0.8068 -0.5302  0.0699
14151TIP3    H163944   3.099   4.424  17.190 -0.9751 -0.1293 -0.5874
14151TIP3    H263945   3.087   4.370  17.048  0.8462  0.2495 -0.9133
14152TIP3   OH263946   2.680   4.765  14.131 -0.4029  0.1604 -0.0486
14152TIP3    H163947   2.712   4.734  14.215  2.0047  0.5777 -0.7386
14152TIP3    H263948   2.695   4.691  14.071 -2.1650 -0.1656 -0.1524
14153TIP3   OH263949   0.804   0.250   3.639  0.0424 -0.5327 -0.1553
14153TIP3    H163950   0.884   0.217   3.679  0.3887 -0.6731 -0.9404
14153TIP3    H263951   0.833   0.323   3.584 -0.3412 -0.6857 -0.5675
14154TIP3   OH263952   1.173   2.485   5.130  0.4980  0.1749  0.1148
14154TIP3    H163953   1.082   2.508   5.111  0.7811  1.9277  0.6859
14154TIP3    H263954   1.198   2.427   5.058 -0.5501  1.0702 -1.0176
14155TIP3   OH263955   6.226   3.536   2.893 -0.2785  0.1504  0.5430
14155TIP3    H163956   6.296   3.476   2.866 -0.6686 -0.2465  0.3933
14155TIP3    H263957   6.170   3.543   2.816 -0.6958  0.0335  0.8298
14156TIP3   OH263958   3.620   6.420   1.198  0.8089  0.5101 -0.1550
14156TIP3    H163959   3.670   6.419   1.279  0.4411 -1.0977  0.0928
14156TIP3    H263960   3.557   6.491   1.209 -1.9282 -2.0361  2.7465
14157TIP3   OH263961   5.394   0.505   6.758 -0.7412  0.0373  0.5280
14157TIP3    H163962   5.328   0.517   6.689 -0.3109 -1.8563 -0.2826
14157TIP3    H263963   5.434   0.591   6.768 -1.0604  0.4605 -1.3625
14158TIP3   OH263964   1.287   4.422  11.623  0.0311  0.2533 -0.1564
14158TIP3    H163965   1.234   4.407  11.545 -0.4995 -1.0190  0.4195
14158TIP3    H263966   1.365   4.368  11.610 -0.6471 -0.9844  0.7363
14159TIP3   OH263967   0.604   5.866  13.803 -0.0325 -0.3646  0.3992
14159TIP3    H163968   0.654   5.785  13.804  1.6116  0.5827  2.3215
14159TIP3    H263969   0.543   5.856  13.731  1.4911 -2.4816 -0.6921
14160TIP3   OH263970   4.965   1.864   2.593 -0.2084 -0.6318 -0.4428
14160TIP3    H163971   5.001   1.780   2.623 -1.0292 -1.2350 -1.0639
14160TIP3    H263972   4.994   1.871   2.502  0.3221  0.0323 -0.2216
14161TIP3   OH263973   5.262   1.487  16.691 -0.0490 -0.5768  0.1262
14161TIP3    H163974   5.295   1.539  16.618 -0.1756 -0.6558  0.0118
14161TIP3    H263975   5.315   1.408  16.691 -0.2113 -0.6828 -0.0282
14162TIP3   OH263976   0.439   5.998  13.384  0.1962 -0.4317  0.0849
14162TIP3    H163977   0.408   6.083  13.351 -1.1229 -0.8035  0.3080
14162TIP3    H263978   0.531   5.995  13.360  0.4834  1.4242  0.7869
14163TIP3   OH263979   4.571   0.852  17.024 -0.3785  0.1266  0.0877
14163TIP3    H163980   4.572   0.909  16.947  1.7142  1.1177  0.7875
14163TIP3    H263981   4.493   0.798  17.011 -0.1759  0.3149 -2.6577
14164TIP3   OH263982   4.244   0.235   5.441 -0.3722  0.1709 -0.9239
14164TIP3    H163983   4.153   0.236   5.410 -0.5252 -1.3469 -0.5743
14164TIP3    H263984   4.289   0.176   5.380 -0.0339 -0.5529  0.0180
14165TIP3   OH263985   4.522   3.100   2.555 -0.2660 -0.5268  0.5038
14165TIP3    H163986   4.467   3.177   2.540 -0.8119 -0.9016  0.5542
14165TIP3    H263987   4.526   3.056   2.470  1.0718  0.2054  0.1571
14166TIP3   OH263988   4.576   6.029   4.707 -0.4950  0.7157  0.6689
14166TIP3    H163989   4.664   6.033   4.746 -0.0338  0.0025 -0.2565
14166TIP3    H263990   4.566   6.114   4.663  0.3010  0.3042 -0.3564
14167TIP3   OH263991   2.693   3.824   3.656  0.7261 -0.5890 -0.4946
14167TIP3    H163992   2.642   3.776   3.591  1.0562  0.1303 -1.3113
14167TIP3    H263993   2.662   3.792   3.741 -0.0750 -1.1690 -0.9997
14168TIP3   OH263994   1.573   1.530  14.834  0.1238  0.4835 -0.3513
14168TIP3    H163995   1.485   1.513  14.869  0.5210 -0.0118  0.4472
14168TIP3    H263996   1.558   1.559  14.744 -0.8008 -0.6290 -0.5777
14169TIP3   OH263997   1.835   2.953  13.891  0.3211 -0.3398 -0.1167
14169TIP3    H163998   1.811   2.892  13.961  1.7599  0.1551  0.8607
14169TIP3    H263999   1.888   2.901  13.831  1.2096 -0.1868  0.5081
14170TIP3   OH264000   5.063   1.825   1.732  0.3321 -0.6448  0.2142
14170TIP3    H164001   5.071   1.795   1.641 -1.5699 -0.9081  0.0970
14170TIP3    H264002   5.064   1.745   1.784  1.1288 -0.5100  0.4254
14171TIP3   OH264003   5.208   2.531  14.095  0.6384  0.1478 -0.9748
14171TIP3    H164004   5.140   2.564  14.154  0.8296  0.4728 -0.9338
14171TIP3    H264005   5.259   2.470  14.149 -0.3766 -1.0922 -1.3442
14172TIP3   OH264006   5.523   3.436   5.217  0.5916 -0.3881 -0.1925
14172TIP3    H164007   5.508   3.376   5.290  1.3494 -0.2127  0.1206
14172TIP3    H264008   5.599   3.400   5.171  2.2389  1.2426  1.0630
14173TIP3   OH264009   5.072   5.886   2.599  0.2134 -0.4517  0.1780
14173TIP3    H164010   5.135   5.845   2.659  1.3188  0.3194 -0.4232
14173TIP3    H264011   5.118   5.963   2.565 -0.4973 -0.7097 -1.4375
14174TIP3   OH264012   1.545   5.685   1.618 -0.0834  0.1981  0.2850
14174TIP3    H164013   1.579   5.646   1.699 -0.0308  0.8092  0.5613
14174TIP3    H264014   1.490   5.617   1.579  2.1396 -1.1678 -0.6367
14175TIP3   OH264015   1.788   0.726  14.851 -0.0179  0.0847 -0.2693
14175TIP3    H164016   1.711   0.689  14.808 -1.0283  1.6095  0.1746
14175TIP3    H264017   1.785   0.690  14.940 -0.6511  0.6976 -0.0296
14176TIP3   OH264018   5.761   3.805   3.390 -0.0906 -0.2055  0.6393
14176TIP3    H164019   5.801   3.875   3.440 -1.2248 -0.0676  1.3887
14176TIP3    H264020   5.724   3.848   3.313  0.8163 -0.2774  0.1443
14177TIP3   OH264021   2.997   2.997   4.865 -0.5859  0.0033  0.0063
14177TIP3    H164022   3.073   3.054   4.854 -2.0806  1.7880 -2.1125
14177TIP3    H264023   2.989   2.986   4.960  2.6075 -0.8273  0.3152
14178TIP3   OH264024   4.477   0.724   0.880 -0.2683 -0.5187  0.3363
14178TIP3    H164025   4.429   0.659   0.829 -1.1370  1.0564 -0.9530
14178TIP3    H264026   4.480   0.801   0.823  1.8469  0.1798  1.2889
14179TIP3   OH264027   1.058   2.854  10.486 -0.5192 -0.2588  0.3931
14179TIP3    H164028   1.049   2.770  10.531 -2.8390 -0.2081  0.1708
14179TIP3    H264029   0.998   2.912  10.532  0.3531  1.0397 -0.0450
14180TIP3   OH264030   1.793   6.537  16.900  0.2933  0.4107  0.0075
14180TIP3    H164031   1.698   6.540  16.903  0.2112 -0.1174 -1.3928
14180TIP3    H264032   1.818   6.619  16.857  0.4236  0.2829 -0.1650
14181TIP3   OH264033   1.055   0.724  13.613 -0.1922  0.2560 -0.1997
14181TIP3    H164034   1.133   0.755  13.660 -1.5407  2.4648  0.7388
14181TIP3    H264035   0.984   0.733  13.677 -2.1205  3.3411 -2.5136
14182TIP3   OH264036   3.932   6.439  11.264 -0.0373  0.3542 -0.4039
14182TIP3    H164037   3.847   6.396  11.259  1.0634 -2.0055 -0.2095
14182TIP3    H264038   3.946   6.473  11.176 -1.4226  1.3287 -0.2795
14183TIP3   OH264039   6.633   2.335   4.602 -0.4370 -0.7111 -0.0741
14183TIP3    H164040   6.555   2.346   4.656  1.1987  1.6261  2.0349
14183TIP3    H264041   6.702   2.313   4.664  1.0304 -0.5145 -1.5676
14184TIP3   OH264042   4.144   6.003   3.952  0.0499 -0.1952 -0.3784
14184TIP3    H164043   4.117   6.081   3.903  1.0455  0.1290 -0.4321
14184TIP3    H264044   4.139   5.932   3.888 -0.6646 -0.1511 -0.3827
14185TIP3   OH264045   1.248   5.893  14.478 -0.1024 -0.0405  0.0565
14185TIP3    H164046   1.296   5.834  14.537 -1.0541 -1.7913 -0.8506
14185TIP3    H264047   1.177   5.839  14.443  0.0980  1.0928 -2.2771
14186TIP3   OH264048   4.826   1.424  13.139 -0.4621 -0.3750  0.0163
14186TIP3    H164049   4.752   1.399  13.084  0.3707 -0.6264 -1.0133
14186TIP3    H264050   4.802   1.510  13.174 -0.3780  0.5020 -1.9557
14187TIP3   OH264051   1.216   5.112  11.717  0.1938  0.9913 -0.6221
14187TIP3    H164052   1.195   5.019  11.709 -0.0488  1.0644 -0.8526
14187TIP3    H264053   1.291   5.125  11.660  1.5543  0.5143  0.9882
14188TIP3   OH264054   1.639   5.093  13.689  0.1484  0.3523  0.3733
14188TIP3    H164055   1.639   5.017  13.631  1.2386  0.0756  0.7159
14188TIP3    H264056   1.554   5.091  13.733  0.1745 -0.6709  0.3828
14189TIP3   OH264057   4.921   4.583  14.430  0.5040 -0.2460 -0.2252
14189TIP3    H164058   4.833   4.550  14.449  0.9763 -0.7919  1.1368
14189TIP3    H264059   4.906   4.661  14.377 -0.8847  0.5653  1.2827
14190TIP3   OH264060   3.655   5.714   4.430 -0.3221  0.1556 -0.3261
14190TIP3    H164061   3.574   5.758   4.401 -0.6412  0.1631  0.5369
14190TIP3    H264062   3.655   5.725   4.525 -0.4923 -1.8482 -0.0493
14191TIP3   OH264063   5.735   2.788  13.283  0.4787  0.0009 -0.2424
14191TIP3    H164064   5.777   2.863  13.324  2.0220 -0.6146 -0.6150
14191TIP3    H264065   5.805   2.745  13.234 -0.3004 -1.7998  0.1324
14192TIP3   OH264066   3.956   2.271  13.275 -0.4538  0.2916  0.1423
14192TIP3    H164067   3.881   2.212  13.282 -0.7726  0.7628  0.7649
14192TIP3    H264068   3.985   2.284  13.365 -0.2780  0.9468 -0.0080
14193TIP3   OH264069   3.544   2.796  10.696  0.2510 -0.1984 -0.5461
14193TIP3    H164070   3.567   2.709  10.729 -0.3797 -0.6810 -1.3601
14193TIP3    H264071   3.451   2.790  10.676  0.4264  0.3622 -1.5580
14194TIP3   OH264072   2.639   3.839   5.493 -0.3762 -0.3776 -0.7691
14194TIP3    H164073   2.664   3.755   5.456 -2.5718 -1.3718 -0.1651
14194TIP3    H264074   2.712   3.863   5.550 -0.1704 -2.4790 -0.0474
14195TIP3   OH264075   5.518   3.477   3.651  0.2272 -0.4721  0.9722
14195TIP3    H164076   5.493   3.452   3.562  0.3536 -0.8027  1.0286
14195TIP3    H264077   5.551   3.567   3.643  1.0853 -0.8144  0.5289
14196TIP3   OH264078   5.459   0.841  13.076 -0.1208 -0.5331 -0.6785
14196TIP3    H164079   5.492   0.930  13.087 -1.0742 -0.3130  0.6309
14196TIP3    H264080   5.471   0.822  12.983 -1.3339  1.5606 -1.3140
14197TIP3   OH264081   4.675   1.412   3.549 -0.1127 -0.1348 -0.5817
14197TIP3    H164082   4.711   1.462   3.622 -0.0213 -0.7279 -0.2160
14197TIP3    H264083   4.591   1.454   3.530  0.3227  0.6618 -0.8143
14198TIP3   OH264084   0.634   1.740  12.214  0.2213  0.2162  0.2422
14198TIP3    H164085   0.578   1.814  12.237 -1.7338 -0.8924 -0.6734
14198TIP3    H264086   0.665   1.705  12.298 -1.1355  0.3888  0.8346
14199TIP3   OH264087   5.994   2.227   5.370 -0.0259 -0.1043  0.3191
14199TIP3    H164088   6.065   2.272   5.323 -0.8778  1.1476  0.2065
14199TIP3    H264089   6.024   2.223   5.460  0.0143  0.8181  0.3548
14200TIP3   OH264090   0.656   3.672  14.876  0.8272 -0.0589  0.4238
14200TIP3    H164091   0.671   3.766  14.864 -3.1662  0.5515 -1.2594
14200TIP3    H264092   0.618   3.665  14.963  0.4722 -0.0148  0.2722
14201TIP3   OH264093   4.077   3.883  10.755 -0.5841 -0.1471 -0.2126
14201TIP3    H164094   4.092   3.847  10.667  1.5384  0.0164  0.0278
14201TIP3    H264095   4.001   3.940  10.744 -1.3672 -1.3657 -1.5608
14202TIP3   OH264096   1.266   4.695  15.301  0.0548  0.1665  0.3137
14202TIP3    H164097   1.323   4.729  15.370 -1.0794  0.0651  1.3432
14202TIP3    H264098   1.245   4.771  15.247 -0.7228  0.6850  1.3201
14203TIP3   OH264099   6.452   6.797  12.257 -0.4428  0.4931  0.0567
14203TIP3    H164100   6.411   6.711  12.254  0.0981  0.2084  0.5695
14203TIP3    H264101   6.396   6.849  12.315 -0.8184  0.5129 -0.3243
14204TIP3   OH264102   3.555   5.581   5.659  0.4990 -0.0155 -0.1723
14204TIP3    H164103   3.610   5.556   5.733 -1.8001  0.6487  1.8925
14204TIP3    H264104   3.616   5.623   5.597  2.6644 -1.4878  0.8307
14205TIP3   OH264105   1.500   1.112  12.218  0.9154 -0.3751 -0.3290
14205TIP3    H164106   1.474   1.183  12.159  0.1659  2.1142  2.7472
14205TIP3    H264107   1.541   1.047  12.160  2.9997  3.1221 -3.2450
14206TIP3   OH264108   6.041   4.698  16.199  0.0587 -0.1460  0.1334
14206TIP3    H164109   6.032   4.733  16.111  1.4825 -1.0573 -0.3995
14206TIP3    H264110   6.116   4.743  16.236  1.3117 -1.8419 -0.2138
14207TIP3   OH264111   1.391   2.237  14.646  0.6729 -0.4256  0.1480
14207TIP3    H164112   1.323   2.229  14.713  0.9511 -2.3210  0.2610
14207TIP3    H264113   1.439   2.315  14.671 -1.2546  0.8001  0.2274
14208TIP3   OH264114   2.594   5.036  12.991 -0.2837 -0.4291  0.4148
14208TIP3    H164115   2.516   5.026  12.937 -0.3561 -1.1699  0.6362
14208TIP3    H264116   2.571   5.101  13.057  0.2433  1.4900 -1.2173
14209TIP3   OH264117   6.165   5.905  11.672 -0.9926  0.1294  0.7341
14209TIP3    H164118   6.087   5.941  11.713 -1.0463  0.8451  0.0249
14209TIP3    H264119   6.144   5.813  11.656 -1.4427  0.1611  1.1363
14210TIP3   OH264120   6.611   2.932  13.952 -0.4394 -0.0296 -0.3985
14210TIP3    H164121   6.585   2.951  14.042  1.4766  0.9991 -0.0002
14210TIP3    H264122   6.589   2.840  13.940  0.6575 -0.6442  1.7035
14211TIP3   OH264123   1.289   6.759  14.661  0.0891  0.2908  0.2750
14211TIP3    H164124   1.363   6.713  14.621  0.4054 -2.7373  3.7419
14211TIP3    H264125   1.227   6.772  14.590  1.5025 -2.5191 -1.6641
14212TIP3   OH264126   4.650   3.568  14.475 -0.0875 -0.2205  0.4667
14212TIP3    H164127   4.659   3.574  14.571 -0.6428 -1.3572  0.6112
14212TIP3    H264128   4.715   3.503  14.450 -1.6085 -1.8044  0.4125
14213TIP3   OH264129   0.803   5.277  13.161  0.1290 -0.0601 -0.3958
14213TIP3    H164130   0.864   5.204  13.158 -1.1045 -1.0950 -1.5227
14213TIP3    H264131   0.728   5.244  13.211 -0.1373  0.6951 -0.2704
14214TIP3   OH264132   2.333   3.965  17.200 -0.2552  0.3081  1.0378
14214TIP3    H164133   2.260   3.972  17.139  1.1237 -1.2639 -0.9614
14214TIP3    H264134   2.303   3.904  17.267 -0.7318 -0.5945  0.0489
14215TIP3   OH264135   1.729   0.163   2.315 -0.5576  0.1648  0.0630
14215TIP3    H164136   1.800   0.107   2.283 -0.0905  0.1171  1.1406
14215TIP3    H264137   1.770   0.219   2.381 -1.4203  0.4799  0.3519
14216TIP3   OH264138   0.797   3.866  12.049  0.2769  0.3702  0.1129
14216TIP3    H164139   0.819   3.871  11.956 -0.7001 -1.3776 -0.2547
14216TIP3    H264140   0.701   3.861  12.051  0.2028  1.5280  1.3080
14217TIP3   OH264141   2.678   0.005   5.333 -0.2917  0.4056  0.5188
14217TIP3    H164142   2.655   0.072   5.397  0.9803  0.9340  0.4562
14217TIP3    H264143   2.757  -0.036   5.368 -0.8889 -0.9057  0.4207
14218TIP3   OH264144   1.652   0.810   1.642  0.0994  0.0653 -0.5335
14218TIP3    H164145   1.645   0.717   1.623  1.2251 -0.3198  0.7114
14218TIP3    H264146   1.730   0.839   1.594 -0.1229  0.3232 -0.7451
14219TIP3   OH264147   0.657   2.073   2.092 -0.3309  0.0721  0.0580
14219TIP3    H164148   0.635   1.998   2.148  0.7814  1.4066  2.4555
14219TIP3    H264149   0.653   2.148   2.151 -2.4442  2.1241 -2.4879
14220TIP3   OH264150   3.072   4.191   3.051  0.2977 -0.4933 -0.1554
14220TIP3    H164151   3.104   4.106   3.082  0.0681 -1.0844 -1.4484
14220TIP3    H264152   3.129   4.212   2.977  0.4912  0.6038  0.2919
14221TIP3   OH264153   1.700   4.718  11.684 -0.0508 -0.0748 -0.7355
14221TIP3    H164154   1.670   4.642  11.634 -1.3788 -0.4370  0.5287
14221TIP3    H264155   1.695   4.791  11.623  1.9097 -1.0708 -2.1871
14222TIP3   OH264156   3.631   2.979   1.988 -0.1474  0.3467  0.4225
14222TIP3    H164157   3.663   2.922   2.058  1.3841 -0.0696 -0.5693
14222TIP3    H264158   3.674   3.063   2.003  2.5523 -0.5235 -1.5589
14223TIP3   OH264159   6.043   3.805  11.718 -0.3374 -0.3180  0.6626
14223TIP3    H164160   6.065   3.729  11.664  0.3730 -0.5952  1.3237
14223TIP3    H264161   6.060   3.777  11.808  0.5065  0.8048  0.8801
14224TIP3   OH264162   4.412   6.218   5.758 -0.1533  0.2249 -0.1435
14224TIP3    H164163   4.431   6.132   5.794 -1.5112 -0.1741 -0.3035
14224TIP3    H264164   4.482   6.274   5.790  1.7622 -1.2849 -1.4645
14225TIP3   OH264165   4.511   1.451   1.478  0.0997  0.3807  0.3729
14225TIP3    H164166   4.415   1.448   1.476  0.0852 -0.1531 -2.3355
14225TIP3    H264167   4.532   1.543   1.492 -0.7741  0.3781  1.8821
14226TIP3   OH264168   5.312   0.540   4.009  0.1347 -0.0921 -0.1152
14226TIP3    H164169   5.232   0.586   3.981  0.6492  1.8464  1.4016
14226TIP3    H264170   5.301   0.528   4.103  0.8107 -1.5613 -0.2037
14227TIP3   OH264171   3.517   3.645  11.374  0.1261  0.3486 -0.0349
14227TIP3    H164172   3.550   3.672  11.289  0.5712  1.0152  0.3399
14227TIP3    H264173   3.425   3.672  11.374  0.1736  0.5106 -0.2294
14228TIP3   OH264174   6.387   0.784   0.256 -0.9215 -0.0144 -0.0945
14228TIP3    H164175   6.475   0.816   0.273 -1.0889 -0.2428  1.3601
14228TIP3    H264176   6.345   0.781   0.343 -2.4116  0.2507 -0.7652
14229TIP3   OH264177   0.647   1.382   1.989  0.2868  0.0466  0.0903
14229TIP3    H164178   0.575   1.403   2.048 -0.6541 -1.1939 -0.5778
14229TIP3    H264179   0.657   1.461   1.935 -3.3109 -1.0022 -2.5148
14230TIP3   OH264180   5.727   6.617  15.010 -0.3175  0.6285 -0.0339
14230TIP3    H164181   5.743   6.609  14.916  2.2288 -3.0992  0.4602
14230TIP3    H264182   5.810   6.651  15.045 -0.9294  1.1387  0.9515
14231TIP3   OH264183   2.093   4.540  16.100  0.3569 -0.3900 -0.7399
14231TIP3    H164184   2.108   4.634  16.096  1.0689 -0.4262  0.4229
14231TIP3    H264185   2.102   4.518  16.193 -1.2613 -1.3836 -0.7812
14232TIP3   OH264186   6.737   0.384  13.316 -0.0201 -0.0340 -0.1253
14232TIP3    H164187   6.797   0.456  13.297  0.9949 -0.7466  0.2782
14232TIP3    H264188   6.754   0.363  13.408 -1.1405 -0.0328  0.1018
14233TIP3   OH264189   1.737   0.458  12.264  0.6761  0.5972 -0.3093
14233TIP3    H164190   1.769   0.382  12.217 -0.1443 -0.4058  0.6819
14233TIP3    H264191   1.768   0.533  12.214  0.3032 -0.4059 -2.1132
14234TIP3   OH264192   2.042   4.249   3.530  0.3563  0.6828 -0.8870
14234TIP3    H164193   1.984   4.304   3.581  0.5406  0.6355 -0.6239
14234TIP3    H264194   2.038   4.285   3.441  1.1352  1.6510 -0.5369
14235TIP3   OH264195   1.756   3.508   3.348 -0.5203  0.0416  0.0846
14235TIP3    H164196   1.799   3.423   3.353  0.5627  0.4335 -1.5273
14235TIP3    H264197   1.783   3.553   3.428  0.4269 -0.4701  0.0672
14236TIP3   OH264198   3.424   0.670   4.420  0.4940 -0.1001  0.5306
14236TIP3    H164199   3.373   0.656   4.340  2.1544  0.5094 -0.6963
14236TIP3    H264200   3.374   0.625   4.488 -1.4143  0.0691 -0.6648
14237TIP3   OH264201   0.515   1.557   1.149  0.3959 -0.4098 -0.3348
14237TIP3    H164202   0.498   1.638   1.101  0.7193 -0.6325 -0.8258
14237TIP3    H264203   0.447   1.554   1.216 -0.0571 -0.1024 -0.7774
14238TIP3   OH264204   4.953   5.258  12.122  0.1224 -0.7105 -0.2976
14238TIP3    H164205   5.025   5.200  12.098  0.4842 -0.1067 -0.7275
14238TIP3    H264206   4.940   5.243  12.216  1.1581 -0.4717 -0.0942
14239TIP3   OH264207   1.840   4.495   5.552  0.3484 -0.6298  0.3484
14239TIP3    H164208   1.801   4.543   5.479  0.6793 -0.6229  0.1720
14239TIP3    H264209   1.834   4.555   5.626 -0.5998 -0.8906  0.4981
14240TIP3   OH264210   2.057   4.494  11.147 -0.0701 -0.3887 -0.1683
14240TIP3    H164211   2.059   4.545  11.066 -0.5303  0.3345  0.2684
14240TIP3    H264212   2.075   4.404  11.119  2.7089  0.2325 -0.7364
14241TIP3   OH264213   4.283   3.328  16.226 -0.3536  0.0422 -0.3833
14241TIP3    H164214   4.266   3.253  16.170 -1.9091  1.2289 -1.6043
14241TIP3    H264215   4.218   3.321  16.297  0.0459 -0.1898 -0.0340
14242TIP3   OH264216   1.995   0.390  11.382 -0.2238  0.2997 -0.1767
14242TIP3    H164217   2.002   0.462  11.319 -3.6703  1.2320  0.3117
14242TIP3    H264218   2.063   0.409  11.447  1.8511  0.6037 -2.2865
14243TIP3   OH264219   5.696   0.816   6.009 -0.3879 -0.0625  0.3017
14243TIP3    H164220   5.731   0.787   6.094 -0.8630 -0.0656  0.4980
14243TIP3    H264221   5.664   0.904   6.026 -1.4040 -0.4380  0.3819
14244TIP3   OH264222   3.471   0.015  15.684 -0.2143  0.0505  0.7941
14244TIP3    H164223   3.464  -0.044  15.758 -1.8661 -0.5136  0.2436
14244TIP3    H264224   3.506  -0.039  15.613  1.4711  0.6159  1.1540
14245TIP3   OH264225   5.949   2.491  12.210  0.5688 -0.0560  0.2856
14245TIP3    H164226   5.990   2.491  12.124 -0.8530 -1.1973 -0.4408
14245TIP3    H264227   6.021   2.482  12.271  1.7718  2.2803 -0.6478
14246TIP3   OH264228   6.693   5.683  11.901  0.7316 -0.0626 -0.0614
14246TIP3    H164229   6.655   5.597  11.881  0.1935 -0.1822  1.3766
14246TIP3    H264230   6.664   5.702  11.990  1.0910  1.4901 -0.2492
14247TIP3   OH264231   6.235   1.719  11.601  0.2923  0.2109  0.1365
14247TIP3    H164232   6.208   1.751  11.514  0.7684 -0.5985 -0.3257
14247TIP3    H264233   6.154   1.689  11.642  0.2151 -0.5566 -0.5400
14248TIP3   OH264234   2.602   3.866   0.537 -0.2128 -0.7214  0.5674
14248TIP3    H164235   2.653   3.935   0.581  0.1122 -0.0351 -0.8010
14248TIP3    H264236   2.654   3.787   0.549  0.4569 -0.3156  0.4463
14249TIP3   OH264237   0.707   6.474  16.911 -0.1299 -0.7233 -0.1574
14249TIP3    H164238   0.671   6.410  16.850  0.6505  1.6668 -3.4126
14249TIP3    H264239   0.754   6.537  16.856  1.9823  0.8720  3.0901
14250TIP3   OH264240   1.269   0.606  13.143  0.6721 -0.0466  0.0163
14250TIP3    H164241   1.215   0.612  13.064  0.0524  1.2383  0.5144
14250TIP3    H264242   1.282   0.512  13.156 -0.3721 -0.3254 -0.8369
14251TIP3   OH264243   0.091   4.356   3.509  0.1149 -0.8747 -0.4199
14251TIP3    H164244   0.018   4.394   3.461 -0.3303 -1.0244  0.1186
14251TIP3    H264245   0.075   4.261   3.505 -1.0288 -0.8347  1.6547
14252TIP3   OH264246   0.761   6.518  15.936  0.4507 -0.0178  0.3539
14252TIP3    H164247   0.678   6.519  15.889  0.5631 -2.2426 -0.0032
14252TIP3    H264248   0.823   6.558  15.875  0.1094 -0.6658 -0.4451
14253TIP3   OH264249   1.890   3.164  14.879 -0.6832 -0.0874  0.9525
14253TIP3    H164250   1.951   3.223  14.835  0.4880 -1.3509  0.8323
14253TIP3    H264251   1.821   3.149  14.814 -0.2841  0.0589  0.4927
14254TIP3   OH264252   6.431   4.887  11.983 -0.1307  0.0285 -0.2013
14254TIP3    H164253   6.501   4.931  12.032  0.1178 -1.1065  0.5187
14254TIP3    H264254   6.350   4.927  12.015  0.1532  1.4025 -1.0889
14255TIP3   OH264255   4.791   6.309   1.474 -0.7130  0.2736 -0.4291
14255TIP3    H164256   4.705   6.278   1.504  0.4540 -1.8449  0.9837
14255TIP3    H264257   4.818   6.244   1.409  0.3262  0.2300  0.0337
14256TIP3   OH264258   5.849   6.803   3.402  0.7599 -0.2635 -0.4886
14256TIP3    H164259   5.857   6.801   3.497 -1.9448 -0.2364 -0.1807
14256TIP3    H264260   5.835   6.895   3.381 -3.3230 -0.6548 -0.2752
14257TIP3   OH264261   6.551   0.736   5.478  0.3222 -0.1863  0.1482
14257TIP3    H164262   6.476   0.787   5.447 -0.0719 -1.5264 -1.2454
14257TIP3    H264263   6.523   0.644   5.467  2.4151 -0.7358 -1.1750
14258TIP3   OH264264   3.527   3.681  11.996  0.1471  0.0148  0.2103
14258TIP3    H164265   3.593   3.657  11.931  0.5912  0.2775  0.5664
14258TIP3    H264266   3.496   3.597  12.031  1.5630 -0.0796  1.3195
14259TIP3   OH264267   1.273   5.882   3.996  0.1667 -0.8457 -0.2542
14259TIP3    H164268   1.332   5.853   3.926  0.9928 -2.5835  1.0947
14259TIP3    H264269   1.321   5.951   4.042  0.3554 -0.9475 -0.3004
14260TIP3   OH264270   2.054   0.125  10.361  0.5409  0.4469 -0.2951
14260TIP3    H164271   1.986   0.184  10.328 -1.5143 -1.8622 -0.4922
14260TIP3    H264272   2.127   0.182  10.383 -0.6255  2.8399 -2.1767
14261TIP3   OH264273   0.843   3.921  14.912 -0.2983 -0.0543 -0.6057
14261TIP3    H164274   0.798   3.977  14.975  0.4520 -0.3623  0.2126
14261TIP3    H264275   0.931   3.910  14.947 -0.2738 -1.3280 -1.0224
14262TIP3   OH264276   0.708   6.394   5.402  0.3630  0.5994  0.2186
14262TIP3    H164277   0.788   6.435   5.370 -0.2815  0.9561 -1.0108
14262TIP3    H264278   0.677   6.341   5.329  1.1620 -2.1482  1.7353
14263TIP3   OH264279   0.321   0.476   0.264 -0.0529  0.2913  0.0441
14263TIP3    H164280   0.314   0.571   0.250 -0.5599  0.0998 -1.0814
14263TIP3    H264281   0.389   0.448   0.203  0.4489 -0.0085  0.7308
14264TIP3   OH264282   0.152   5.865  16.697  0.2516  0.0218 -0.0747
14264TIP3    H164283   0.122   5.834  16.783  2.0932 -0.9760  0.2649
14264TIP3    H264284   0.242   5.834  16.691  0.5297  1.0620 -1.9114
14265TIP3   OH264285   5.778   0.066  16.535 -0.5819  0.4935  0.0974
14265TIP3    H164286   5.786  -0.023  16.501 -0.1225 -0.4362  2.4133
14265TIP3    H264287   5.751   0.118  16.460 -2.2966 -1.8317 -1.0448
14266TIP3   OH264288   0.392   6.189   4.644 -0.5193 -0.5285 -0.0272
14266TIP3    H164289   0.433   6.265   4.603  0.8098 -0.2123  1.7525
14266TIP3    H264290   0.465   6.139   4.681 -1.4576 -2.1372 -0.2468
14267TIP3   OH264291   6.166   0.144   1.417 -0.2763 -0.7067  0.0274
14267TIP3    H164292   6.162   0.049   1.425  1.2390 -0.6838  1.7452
14267TIP3    H264293   6.133   0.176   1.500 -0.9106  0.2906 -0.5935
14268TIP3   OH264294   2.638   4.544  10.507 -0.0999 -0.0749 -0.4180
14268TIP3    H164295   2.725   4.584  10.512 -0.0230 -0.3927  2.0474
14268TIP3    H264296   2.577   4.615  10.526 -0.2661 -0.2221 -0.3963
14269TIP3   OH264297   6.809   6.483  11.413 -0.5850  0.5372 -0.1391
14269TIP3    H164298   6.789   6.542  11.341  2.3083  0.7285 -0.9076
14269TIP3    H264299   6.822   6.398  11.372  0.6330  0.5476  0.1758
14270TIP3   OH264300   6.389   0.507  11.221 -0.3111 -0.3570 -0.5871
14270TIP3    H164301   6.400   0.575  11.287 -0.2657 -1.7328  0.8911
14270TIP3    H264302   6.426   0.544  11.141 -0.8710  1.5632  0.0100
14271TIP3   OH264303   2.828   3.860  10.570 -0.5437 -0.6737  0.5660
14271TIP3    H164304   2.873   3.867  10.655 -0.6439 -2.2040  0.7825
14271TIP3    H264305   2.736   3.873  10.591 -0.3784  1.2416  0.3065
14272TIP3   OH264306   3.961   5.241  11.684 -0.3915 -0.3728 -0.1451
14272TIP3    H164307   3.920   5.155  11.676 -0.8970 -0.2652  1.1460
14272TIP3    H264308   4.018   5.234  11.760  0.4079  0.1135 -0.6884
14273TIP3   OH264309   6.036   4.503   2.962  0.1601  0.2939  0.1722
14273TIP3    H164310   6.115   4.539   3.001 -0.4546  1.0161  0.7799
14273TIP3    H264311   6.054   4.502   2.868  1.1002 -0.1001  0.3452
14274TIP3   OH264312   2.780   0.806   3.623 -1.0266 -0.1558  0.3854
14274TIP3    H164313   2.816   0.754   3.551 -0.0020  0.6479  0.2811
14274TIP3    H264314   2.794   0.753   3.701  0.4341  0.1219  0.3463
14275TIP3   OH264315   5.199   3.521  14.922  0.6728  0.2973 -0.5387
14275TIP3    H164316   5.191   3.615  14.940 -3.1412 -0.2899  1.8511
14275TIP3    H264317   5.112   3.495  14.891  1.8005 -2.4221 -1.7963
14276TIP3   OH264318   0.217   6.034  13.026 -0.2117 -0.0060 -0.7073
14276TIP3    H164319   0.306   6.014  13.055 -0.3319 -0.2512 -0.5108
14276TIP3    H264320   0.213   6.130  13.024 -0.5671  0.0464  1.2000
14277TIP3   OH264321   3.366   3.368   4.829  0.3310 -0.0678  0.0793
14277TIP3    H164322   3.413   3.450   4.813  1.1005 -0.5573 -0.2711
14277TIP3    H264323   3.416   3.324   4.897  0.8499 -0.9489 -0.8456
14278TIP3   OH264324   2.346   0.263  15.290 -0.1158  0.0659  0.2858
14278TIP3    H164325   2.356   0.331  15.223  1.5197 -1.1673 -0.8275
14278TIP3    H264326   2.369   0.306  15.372 -1.2523  1.3908 -0.0644
14279TIP3   OH264327   1.139   3.993  13.730 -0.9733  0.1808  0.7492
14279TIP3    H164328   1.067   3.976  13.669 -0.9783  0.8778  0.5466
14279TIP3    H264329   1.096   4.005  13.815 -0.9670 -0.7843  0.8984
14280TIP3   OH264330   4.976   4.616   0.857  0.3419  0.3241 -0.0209
14280TIP3    H164331   4.913   4.577   0.797  0.1674  0.7945 -0.1479
14280TIP3    H264332   5.037   4.664   0.801 -1.0493  2.5732  0.2373
14281TIP3   OH264333   2.210   2.000  14.069 -0.5031  0.4374  0.0375
14281TIP3    H164334   2.277   1.978  14.004 -1.3949 -3.5972  0.2138
14281TIP3    H264335   2.133   2.022  14.017 -0.4012  0.1057 -0.2609
14282TIP3   OH264336   5.253   1.319  15.993  0.1663  0.0691 -0.0102
14282TIP3    H164337   5.205   1.268  15.929  1.9973 -0.0062 -1.4157
14282TIP3    H264338   5.207   1.402  15.998  0.4910  0.4238 -2.1660
14283TIP3   OH264339   4.837   3.166  15.473 -0.3829  0.1275  0.8070
14283TIP3    H164340   4.799   3.085  15.439 -0.4020  0.2890  0.4447
14283TIP3    H264341   4.842   3.151  15.568  0.7989 -0.8025  0.6244
14284TIP3   OH264342   3.589   5.259   1.452 -0.4260  0.5706  0.1777
14284TIP3    H164343   3.542   5.246   1.370 -1.6817 -0.4751  1.0463
14284TIP3    H264344   3.649   5.185   1.458  0.7099  1.4011 -0.4610
14285TIP3   OH264345   3.084   0.416  16.463 -0.0174  0.3542  0.7330
14285TIP3    H164346   3.179   0.421  16.477  0.1752 -0.9991 -0.0273
14285TIP3    H264347   3.053   0.506  16.480  1.0173  0.2875  3.5868
14286TIP3   OH264348   4.126   3.909  14.362 -0.1501 -0.0869 -0.6554
14286TIP3    H164349   4.185   3.846  14.404 -2.3751 -0.5596  2.0365
14286TIP3    H264350   4.043   3.863  14.355 -1.2843  1.8416 -0.5434
14287TIP3   OH264351   2.359   3.473   1.339 -0.1329  0.1584 -0.0385
14287TIP3    H164352   2.399   3.391   1.367 -0.2437 -0.1344 -0.7260
14287TIP3    H264353   2.284   3.447   1.285 -0.7433  0.7062  0.5107
14288TIP3   OH264354   4.797   1.451  14.368  0.1193 -0.3132 -0.3341
14288TIP3    H164355   4.794   1.498  14.285  2.4315  0.2317 -0.1621
14288TIP3    H264356   4.785   1.359  14.344 -2.3639  0.0636 -0.8806
14289TIP3   OH264357   5.556   4.178   4.080 -0.0517 -0.2159 -0.5207
14289TIP3    H164358   5.542   4.225   4.163 -3.0944  0.2201 -1.1571
14289TIP3    H264359   5.519   4.091   4.095 -1.2257  0.0754 -1.5526
14290TIP3   OH264360   4.274   0.015  16.203 -0.5370 -0.2267 -0.2456
14290TIP3    H164361   4.314   0.102  16.208 -0.2602 -0.4027  0.9325
14290TIP3    H264362   4.236   0.001  16.290 -0.7114 -1.2297 -0.4695
14291TIP3   OH264363   0.149   4.815   6.761 -0.9384  0.5643  0.2161
14291TIP3    H164364   0.178   4.902   6.787 -0.9210  1.1043 -1.4848
14291TIP3    H264365   0.055   4.814   6.780 -0.9802  1.0365  0.0488
14292TIP3   OH264366   6.575   4.575  12.877 -0.4571 -0.4114 -0.0413
14292TIP3    H164367   6.532   4.563  12.962 -2.6386 -2.4397 -1.3267
14292TIP3    H264368   6.533   4.652  12.839 -1.5743 -1.1822 -0.4270
14293TIP3   OH264369   0.240   2.531  15.167 -0.4197  0.5911  0.1799
14293TIP3    H164370   0.209   2.555  15.079  0.2744 -2.0645 -0.8987
14293TIP3    H264371   0.331   2.505  15.153 -0.2620  0.2388  1.7297
14294TIP3   OH264372   3.146   2.025   0.376 -0.2926 -0.3189  0.1476
14294TIP3    H164373   3.096   1.944   0.382  0.1235 -0.6431 -0.6267
14294TIP3    H264374   3.234   1.998   0.351 -0.3792  0.4089 -1.0818
14295TIP3   OH264375   5.300   3.911  15.384  0.0245  0.4278 -0.3800
14295TIP3    H164376   5.304   3.831  15.437 -0.9062  0.2176 -0.5993
14295TIP3    H264377   5.275   3.979  15.447 -0.5930  0.2700 -0.4443
14296TIP3   OH264378   2.631   6.570  12.330  0.3856 -0.3835  0.2480
14296TIP3    H164379   2.643   6.620  12.249  0.5745  0.9376  1.0644
14296TIP3    H264380   2.536   6.558  12.337  0.4499 -1.9970 -1.0076
14297TIP3   OH264381   0.162   3.957   0.731 -0.2202  0.0753  0.0587
14297TIP3    H164382   0.096   3.958   0.661 -0.6945 -1.6793  0.4157
14297TIP3    H264383   0.117   3.994   0.807  0.1732  1.6221 -0.4373
14298TIP3   OH264384   2.521   6.336   4.597  0.2996  0.1897 -0.1782
14298TIP3    H164385   2.590   6.395   4.627  1.3362 -1.6405  1.2906
14298TIP3    H264386   2.553   6.300   4.515  0.8866 -0.2951  0.2600
14299TIP3   OH264387   6.644   6.708  11.983  0.3852  0.1621  0.0672
14299TIP3    H164388   6.596   6.627  11.997 -0.6589  0.7491 -0.0635
14299TIP3    H264389   6.616   6.767  12.053 -0.1900  0.9963 -0.8309
14300TIP3   OH264390   0.580   3.911   4.924  0.1572  0.6396 -0.3049
14300TIP3    H164391   0.512   3.868   4.976 -0.3126  1.5378 -0.1668
14300TIP3    H264392   0.630   3.962   4.988 -0.0252  1.2336 -0.6287
14301TIP3   OH264393   3.409   5.475  11.557  0.1892  0.1480  0.0786
14301TIP3    H164394   3.342   5.409  11.573  0.1931  0.0380 -0.3318
14301TIP3    H264395   3.400   5.537  11.629  0.5006 -0.5537  0.7349
14302TIP3   OH264396   3.236   4.394  15.548 -0.7588  0.2437 -0.3748
14302TIP3    H164397   3.195   4.464  15.600 -1.9372 -0.7971  0.1351
14302TIP3    H264398   3.248   4.434  15.462  1.4738  2.0944  0.6687
14303TIP3   OH264399   1.515   5.531   5.408 -0.0172  0.2489 -0.2804
14303TIP3    H164400   1.603   5.536   5.444  0.4024 -1.0786 -1.0531
14303TIP3    H264401   1.462   5.586   5.466  1.2279  0.7154  0.4481
14304TIP3   OH264402   3.763   1.889   1.201  0.0696 -0.2654 -0.2781
14304TIP3    H164403   3.670   1.884   1.223 -0.1404 -0.0494 -1.1105
14304TIP3    H264404   3.768   1.866   1.109  0.8021  0.1001 -0.3406
14305TIP3   OH264405   1.585   1.967  10.971  0.1414 -0.2146 -0.0760
14305TIP3    H164406   1.563   1.975  10.878 -1.7989 -0.5096  0.3148
14305TIP3    H264407   1.563   2.053  11.007  0.9373 -0.0873  0.1212
14306TIP3   OH264408   3.490   4.308   4.125  0.5221  0.4655 -0.4253
14306TIP3    H164409   3.558   4.256   4.167  2.0800  1.5905 -1.4559
14306TIP3    H264410   3.485   4.275   4.036  0.3688  1.0013 -0.6219
14307TIP3   OH264411   6.351   3.966   0.753  0.3700  0.0554 -0.0964
14307TIP3    H164412   6.361   3.912   0.675  1.5354 -0.5981  0.4867
14307TIP3    H264413   6.330   3.905   0.823  2.2520  0.2334  0.6858
14308TIP3   OH264414   6.556   5.361   6.084  0.2227 -0.4316 -0.7276
14308TIP3    H164415   6.580   5.285   6.031  0.6025 -0.1547 -0.9606
14308TIP3    H264416   6.624   5.365   6.152  0.2342 -0.2720 -0.7483
14309TIP3   OH264417   5.842   5.893  10.714  0.3918  0.3810 -0.2583
14309TIP3    H164418   5.787   5.897  10.636  1.7875 -0.5804 -1.3304
14309TIP3    H264419   5.803   5.957  10.774 -1.2040  0.5310 -1.4020
14310TIP3   OH264420   4.616   4.794  13.272 -0.1077 -0.5573  0.1599
14310TIP3    H164421   4.679   4.727  13.246  1.3253  0.3210  1.2055
14310TIP3    H264422   4.636   4.869  13.216  0.6384  0.1470  1.3309
14311TIP3   OH264423   1.781   0.541   4.472 -0.2052  0.4221 -0.5292
14311TIP3    H164424   1.695   0.571   4.502 -1.1394  0.6591 -3.1541
14311TIP3    H264425   1.794   0.457   4.516 -1.9423  0.2378 -0.2980
14312TIP3   OH264426   0.432   0.813   2.033 -0.4673  0.8224 -0.3154
14312TIP3    H164427   0.525   0.792   2.027 -0.2257  1.2113  1.6708
14312TIP3    H264428   0.402   0.768   2.112 -1.9778  0.7191 -0.9142
14313TIP3   OH264429   4.016   0.909   4.045 -0.3658  0.4902  0.2637
14313TIP3    H164430   4.098   0.957   4.055  0.1976  0.0857 -1.8859
14313TIP3    H264431   3.981   0.938   3.961 -0.8498 -1.5435 -0.3065
14314TIP3   OH264432   0.228   3.498   3.271  0.3880 -0.3440 -0.2774
14314TIP3    H164433   0.255   3.510   3.363 -0.0976 -1.9464  0.1103
14314TIP3    H264434   0.133   3.499   3.274  0.3698 -0.6762 -0.7169
14315TIP3   OH264435   2.147   1.712  14.111  0.4650 -0.4431 -0.2667
14315TIP3    H164436   2.190   1.798  14.107  0.5891 -0.3788  1.7335
14315TIP3    H264437   2.056   1.729  14.085 -0.5110  1.0919  3.4569
14316TIP3   OH264438   0.508   5.274  16.390  0.3449 -0.0555  0.3648
14316TIP3    H164439   0.500   5.366  16.367  0.0156 -0.2173 -0.1824
14316TIP3    H264440   0.429   5.255  16.441  0.6570  0.0866  0.9103
14317TIP3   OH264441   5.764   6.345   5.516 -0.3347  0.9632 -0.0133
14317TIP3    H164442   5.796   6.359   5.605  0.9484 -0.2601 -0.2401
14317TIP3    H264443   5.802   6.416   5.465  0.5797  0.5372  0.0625
14318TIP3   OH264444   5.412   2.800  15.337  0.5057  0.3946 -0.1032
14318TIP3    H164445   5.417   2.750  15.256  1.4192  0.0438  0.1554
14318TIP3    H264446   5.382   2.887  15.311  1.5600  0.5254 -0.9329
14319TIP3   OH264447   6.483   2.666   2.026 -0.1743 -0.2970 -0.0091
14319TIP3    H164448   6.578   2.663   2.038  0.0907  0.0682 -1.7738
14319TIP3    H264449   6.470   2.651   1.932 -1.8849 -0.6267  0.2498
14320TIP3   OH264450   2.266   2.665  16.090 -0.1313  0.5349 -0.0542
14320TIP3    H164451   2.251   2.732  16.024  0.5744  0.7925  0.0387
14320TIP3    H264452   2.305   2.592  16.041 -1.7896 -0.2081 -0.3310
14321TIP3   OH264453   4.120   4.780   4.247 -0.4109 -0.2608  0.4723
14321TIP3    H164454   4.115   4.782   4.343  1.4199 -1.7369  0.6520
14321TIP3    H264455   4.086   4.694   4.223 -0.9559  0.1454 -0.2217
14322TIP3   OH264456   0.345   1.078  17.200 -0.0160  0.1790  0.3975
14322TIP3    H164457   0.315   1.092  17.110  0.2992 -1.9844 -0.1187
14322TIP3    H264458   0.309   1.151  17.250 -3.8396 -0.7336 -0.6943
14323TIP3   OH264459   2.369   4.192  15.844  0.1426  0.7958  0.2244
14323TIP3    H164460   2.434   4.171  15.777 -0.1857  0.9869 -0.1561
14323TIP3    H264461   2.409   4.263  15.894  0.3351  0.7378  0.1545
14324TIP3   OH264462   6.014   0.074  15.548  0.5333 -0.2841  0.1912
14324TIP3    H164463   5.994   0.082  15.642 -1.3581 -2.1399  0.0367
14324TIP3    H264464   6.057  -0.012  15.541  0.1025 -0.4327 -0.7043
14325TIP3   OH264465   5.120   4.690  12.323  0.3545  0.1605  0.8520
14325TIP3    H164466   5.059   4.619  12.303 -0.5999  0.4291  2.6231
14325TIP3    H264467   5.093   4.761  12.265  0.1951 -0.3214  0.3176
14326TIP3   OH264468   3.307   5.753  16.211 -0.3836 -0.6936  0.1898
14326TIP3    H164469   3.310   5.658  16.219 -2.0582 -0.7499  0.5403
14326TIP3    H264470   3.232   5.779  16.264  1.0356  1.0001  1.4875
14327TIP3   OH264471   4.491   3.424  11.212 -0.1175  0.0293 -0.0979
14327TIP3    H164472   4.504   3.498  11.272 -1.6447  3.5039 -3.6335
14327TIP3    H264473   4.404   3.391  11.233 -0.1727  0.4339  0.3147
14328TIP3   OH264474   1.661   0.821   3.344  0.6795 -0.3907  0.1544
14328TIP3    H164475   1.622   0.907   3.331  0.2033 -0.6087  0.1301
14328TIP3    H264476   1.710   0.804   3.264 -0.6389 -0.8844 -0.5796
14329TIP3   OH264477   1.962   3.195  12.053  0.3672  0.4052 -0.2041
14329TIP3    H164478   1.878   3.187  12.006 -0.2883  0.5718  0.9013
14329TIP3    H264479   2.018   3.242  11.992  0.0472 -0.7269 -1.4434
14330TIP3   OH264480   0.204   6.521   4.070  0.5978 -0.4609 -0.0576
14330TIP3    H164481   0.234   6.527   4.161  0.4908 -0.3430 -0.0281
14330TIP3    H264482   0.161   6.436   4.064 -1.4037  0.4268  0.6354
14331TIP3   OH264483   6.627   2.062  12.154 -0.2436 -0.3903  0.2325
14331TIP3    H164484   6.540   2.067  12.192  0.2978  1.9911  1.3498
14331TIP3    H264485   6.629   2.131  12.088  0.9372 -0.0474  0.5975
14332TIP3   OH264486   3.189   5.269  15.475  0.2030 -0.2890 -0.1234
14332TIP3    H164487   3.254   5.286  15.407  0.8073 -2.4928 -0.1711
14332TIP3    H264488   3.112   5.238  15.427  0.7879 -2.3026  0.1517
14333TIP3   OH264489   5.208   4.468   2.940 -0.6261 -0.0511  0.0560
14333TIP3    H164490   5.250   4.521   2.872 -0.2005  0.9814  1.0849
14333TIP3    H264491   5.281   4.428   2.988 -0.8974 -0.2019  0.3485
14334TIP3   OH264492   3.343   4.330   1.800 -0.4503 -0.4990  0.0778
14334TIP3    H164493   3.356   4.317   1.894 -1.3087  0.6158  0.3830
14334TIP3    H264494   3.311   4.420   1.793  2.0473  0.3632 -1.5356
14335TIP3   OH264495   2.547   0.481   1.579  0.5223 -0.3224 -0.4807
14335TIP3    H164496   2.544   0.386   1.571  1.0738 -0.5654  1.5071
14335TIP3    H264497   2.514   0.498   1.668 -1.4145  1.5092 -1.4481
14336TIP3   OH264498   3.224   6.820   2.126 -0.2767  0.0997 -0.2137
14336TIP3    H164499   3.275   6.843   2.049  0.8115  4.5040  1.5256
14336TIP3    H264500   3.288   6.780   2.186 -0.4661 -0.6210 -0.4811
14337TIP3   OH264501   5.650   4.872   4.497 -0.3612 -0.0945 -0.2122
14337TIP3    H164502   5.610   4.787   4.513 -0.8593  0.1722 -0.0231
14337TIP3    H264503   5.642   4.919   4.581  0.7578 -0.2029 -0.0338
14338TIP3   OH264504   6.314   0.040  11.791 -0.4116 -0.1481 -0.6232
14338TIP3    H164505   6.268   0.021  11.873 -0.4551  2.1379 -0.0513
14338TIP3    H264506   6.258   0.102  11.745 -0.7584 -1.9379 -2.8143
14339TIP3   OH264507   4.111   5.443   2.086 -0.5003  0.6050 -0.4376
14339TIP3    H164508   4.111   5.493   2.168  0.2954  0.3417 -0.2604
14339TIP3    H264509   4.102   5.509   2.017  1.2308  1.1095 -0.2443
14340TIP3   OH264510   1.321   3.196   1.161 -0.0013 -0.0861 -0.2350
14340TIP3    H164511   1.265   3.181   1.085 -2.1781 -0.3160  1.3371
14340TIP3    H264512   1.310   3.288   1.182  1.1227  0.1403 -0.5515
14341TIP3   OH264513   1.660   0.640  11.410  0.2719 -0.2841 -0.1047
14341TIP3    H164514   1.671   0.545  11.413  3.6671 -0.0326 -1.1562
14341TIP3    H264515   1.697   0.666  11.325  2.0176  2.2088  1.2974
14342TIP3   OH264516   6.594   4.312  14.189  0.6068 -0.2673  0.3514
14342TIP3    H164517   6.543   4.315  14.270  1.1795 -0.8287  0.7458
14342TIP3    H264518   6.656   4.240  14.202  1.2708  0.1770 -0.2486
14343TIP3   OH264519   5.789   3.284   1.323  0.1977 -0.4141 -0.0440
14343TIP3    H164520   5.855   3.264   1.257 -0.2283 -1.2772 -0.2300
14343TIP3    H264521   5.717   3.324   1.274  1.6148  3.1503  0.5094
14344TIP3   OH264522   0.627   0.996   2.843  0.2048  0.4421  0.4774
14344TIP3    H164523   0.653   0.916   2.796  1.6484  1.6480 -0.8896
14344TIP3    H264524   0.540   0.976   2.877 -0.4270 -0.9475 -1.7340
14345TIP3   OH264525   5.828   0.729   2.084 -0.0650  0.2791  0.1162
14345TIP3    H164526   5.909   0.718   2.035  0.0148 -2.0088  0.6465
14345TIP3    H264527   5.855   0.743   2.174 -0.1812 -1.6166  0.5000
14346TIP3   OH264528   1.645   2.031   3.912  0.4162 -0.5134  0.2288
14346TIP3    H164529   1.640   1.939   3.889 -0.3596 -0.9137  1.8067
14346TIP3    H264530   1.700   2.034   3.990 -0.7077  0.1550  1.0281
14347TIP3   OH264531   5.157   6.737   6.324  0.5127 -0.7180  0.3975
14347TIP3    H164532   5.090   6.773   6.382  0.3102 -1.9313  0.9534
14347TIP3    H264533   5.130   6.647   6.309  1.1404 -0.7391 -0.7399
14348TIP3   OH264534   3.617   1.255   0.391 -0.0730  0.3803 -0.4301
14348TIP3    H164535   3.524   1.231   0.393 -0.3686  1.4752 -0.6297
14348TIP3    H264536   3.662   1.173   0.370 -1.1665  0.2861 -2.6683
14349TIP3   OH264537   1.031   1.468  14.288 -0.7118 -0.2986 -0.1066
14349TIP3    H164538   1.104   1.406  14.287  0.9680  1.5818 -0.6510
14349TIP3    H264539   0.953   1.414  14.275  0.8114 -2.1191 -2.4426
14350TIP3   OH264540   3.748   0.609   3.323  0.4620 -1.0732  0.4096
14350TIP3    H164541   3.750   0.546   3.250 -0.0157  0.3412 -0.8729
14350TIP3    H264542   3.826   0.662   3.310 -0.9751  0.8917 -0.6990
14351TIP3   OH264543   1.260   1.334  14.534  0.0950 -0.4117  0.1762
14351TIP3    H164544   1.213   1.414  14.559 -0.2396 -0.9417  1.3181
14351TIP3    H264545   1.290   1.350  14.445 -0.3769  0.8017  0.2240
14352TIP3   OH264546   4.256   1.314  13.500  0.3470 -0.1583 -0.2218
14352TIP3    H164547   4.202   1.324  13.578  2.1065 -0.3140  1.0794
14352TIP3    H264548   4.296   1.400  13.487  0.7857 -0.3854 -0.3993
14353TIP3   OH264549   0.971   1.395   5.878 -0.4141 -0.3180 -0.0434
14353TIP3    H164550   0.914   1.470   5.893 -0.5133 -0.1302 -1.2342
14353TIP3    H264551   0.937   1.326   5.935  0.2053  0.7697  1.7147
14354TIP3   OH264552   2.983   5.525  15.575 -0.0071  0.4465 -0.0758
14354TIP3    H164553   2.909   5.478  15.536  0.0792  0.9230 -0.8343
14354TIP3    H264554   3.045   5.536  15.503  1.5368 -1.3173  0.8866
14355TIP3   OH264555   1.009   4.810  16.661 -0.2034 -0.0246 -0.0720
14355TIP3    H164556   0.954   4.755  16.607 -0.9363 -0.5283  1.1388
14355TIP3    H264557   1.098   4.785  16.639 -0.5067 -2.3288  1.0148
14356TIP3   OH264558   1.437   2.689  11.630  0.5155  0.2127 -0.7409
14356TIP3    H164559   1.494   2.734  11.569  0.1478 -0.1795 -1.3855
14356TIP3    H264560   1.496   2.636  11.684  0.8324  0.4926 -0.8102
14357TIP3   OH264561   0.289   4.627   1.123  0.5190  0.1735 -0.0340
14357TIP3    H164562   0.376   4.602   1.092 -0.2886 -0.7574 -1.6780
14357TIP3    H264563   0.250   4.675   1.050 -0.4250  0.3856  0.5903
14358TIP3   OH264564   0.643   5.715   0.470 -0.4127  0.2990 -0.1306
14358TIP3    H164565   0.657   5.736   0.377 -0.9870  0.0834 -0.2715
14358TIP3    H264566   0.555   5.749   0.488 -0.9817 -1.1274 -0.1082
14359TIP3   OH264567   1.020   6.336  11.072  0.1505  0.0938 -0.0073
14359TIP3    H164568   0.963   6.266  11.039 -0.3470  0.1362  0.7398
14359TIP3    H264569   1.108   6.299  11.067 -0.1478 -0.7456  0.7591
14360TIP3   OH264570   6.595   2.079   2.751 -0.2010  0.1366  0.3600
14360TIP3    H164571   6.547   2.017   2.697 -1.5556  0.3977  1.2242
14360TIP3    H264572   6.634   2.026   2.820  0.0746  0.0280  0.1206
14361TIP3   OH264573   6.266   0.281   4.827 -0.7113 -0.0205  0.7487
14361TIP3    H164574   6.299   0.241   4.909 -1.4803 -1.5235  0.3720
14361TIP3    H264575   6.223   0.208   4.782  0.2960  0.6129 -1.3362
14362TIP3   OH264576   1.627   1.961   5.295  0.1607  0.0792 -0.2311
14362TIP3    H164577   1.571   1.884   5.290 -0.0430  0.1880  0.2828
14362TIP3    H264578   1.567   2.035   5.299  0.3183  0.1768  0.6705
14363TIP3   OH264579   3.924   4.037   4.844  0.4924  0.2634  0.2687
14363TIP3    H164580   3.981   4.034   4.768  1.2350 -0.9745  0.8478
14363TIP3    H264581   3.836   4.045   4.808  0.6920 -1.8113 -0.8052
14364TIP3   OH264582   1.513   3.637  13.148  0.2498  0.6253 -0.3840
14364TIP3    H164583   1.524   3.730  13.168  0.8217  0.3708  0.5379
14364TIP3    H264584   1.492   3.635  13.054  0.2973  1.6711 -0.4309
14365TIP3   OH264585   4.545   4.386  12.807 -0.2504  0.3530 -0.5912
14365TIP3    H164586   4.607   4.333  12.857  1.6597  1.7196 -1.4081
14365TIP3    H264587   4.495   4.322  12.755 -1.9225 -1.0597  2.4889
14366TIP3   OH264588   0.319   0.769  11.069  0.1243  0.0841 -0.6854
14366TIP3    H164589   0.384   0.829  11.035  0.4002  2.1250  2.9077
14366TIP3    H264590   0.236   0.799  11.033  0.4704  1.5994 -0.2642
14367TIP3   OH264591   4.338   5.364  15.687  0.2565  0.3322 -0.3364
14367TIP3    H164592   4.427   5.390  15.710  0.3379 -1.5049  1.7080
14367TIP3    H264593   4.336   5.367  15.591  2.5726  0.1888 -0.4427
14368TIP3   OH264594   1.265   1.657   5.077  0.0627 -0.3749  0.0988
14368TIP3    H164595   1.298   1.568   5.069  1.8717  0.2409  0.3832
14368TIP3    H264596   1.175   1.652   5.044  0.1779 -2.2573 -0.0243
14369TIP3   OH264597   2.056   4.571  12.052  0.0233  0.4175 -0.2431
14369TIP3    H164598   2.084   4.645  11.997 -0.4018  1.5877  1.0394
14369TIP3    H264599   1.965   4.556  12.026  0.5195 -0.5733 -1.4551
14370TIP3   OH264600   5.001   1.130  16.970  0.1017  0.0447  0.3644
14370TIP3    H164601   4.935   1.176  16.918  0.8703 -0.4422 -1.0966
14370TIP3    H264602   5.082   1.180  16.956  0.7502 -1.1990 -0.5473
14371TIP3   OH264603   0.356   5.412   1.382 -0.1779  0.5247  0.0285
14371TIP3    H164604   0.359   5.324   1.420  0.4771  0.1443 -0.8665
14371TIP3    H264605   0.408   5.466   1.441  0.2154  0.1083  0.0631
14372TIP3   OH264606   1.561   2.184  14.258  0.1801  0.4415 -0.0009
14372TIP3    H164607   1.612   2.166  14.337  2.2622  0.8600 -1.1855
14372TIP3    H264608   1.616   2.153  14.186 -1.3610  0.6926 -1.3494
14373TIP3   OH264609   4.396   1.089  14.488 -0.1314  0.3783  0.3410
14373TIP3    H164610   4.414   1.164  14.544  0.7114  0.6100 -0.2106
14373TIP3    H264611   4.457   1.022  14.518  0.5701  0.6176 -0.4825
14374TIP3   OH264612   3.770   4.524   1.145  0.5806  0.6746  0.2446
14374TIP3    H164613   3.783   4.489   1.057  1.4663  0.3429  0.4911
14374TIP3    H264614   3.838   4.482   1.198 -1.9973 -1.7891  1.8881
14375TIP3   OH264615   3.577   5.008  11.901 -0.4037  0.8077  0.4863
14375TIP3    H164616   3.615   4.960  11.828 -0.6780  0.6936  0.4160
14375TIP3    H264617   3.593   5.100  11.880  0.4040  0.7352  0.7813
14376TIP3   OH264618   1.828   1.739  11.231  0.1947  0.1764 -0.2524
14376TIP3    H164619   1.745   1.773  11.264  0.0981 -1.2228  1.0277
14376TIP3    H264620   1.882   1.728  11.309  2.0237  2.0694 -1.1506
14377TIP3   OH264621   0.289   1.051   2.035 -0.4829  0.1363  0.4570
14377TIP3    H164622   0.370   1.091   2.068 -2.0611  2.6840  1.6024
14377TIP3    H264623   0.318   0.979   1.980  2.5844  1.4140  0.2081
14378TIP3   OH264624   1.697   6.508  15.228 -0.8035 -0.3100 -0.0678
14378TIP3    H164625   1.662   6.587  15.268  0.6610  0.2046  0.2926
14378TIP3    H264626   1.669   6.512  15.136 -0.1161  1.0502 -0.2496
14379TIP3   OH264627   4.519   0.578  12.473  0.2253 -0.4171 -0.4669
14379TIP3    H164628   4.487   0.522  12.543  1.9110 -1.1532 -0.2274
14379TIP3    H264629   4.501   0.667  12.502  1.4236 -0.6862  1.2020
14380TIP3   OH264630   6.102   4.179   2.972 -0.2273  0.1453  0.1053
14380TIP3    H164631   6.155   4.208   3.046 -0.7412 -0.0459  0.5551
14380TIP3    H264632   6.029   4.240   2.969 -0.7452 -0.4421  0.3920
14381TIP3   OH264633   2.983   6.701   1.867 -0.2735 -0.7266  0.1978
14381TIP3    H164634   2.896   6.661   1.877 -0.2243 -1.0751 -0.6655
14381TIP3    H264635   2.995   6.751   1.947 -1.3616 -0.5165  0.2536
14382TIP3   OH264636   2.321   4.204  16.351 -0.1871 -0.1551  0.0480
14382TIP3    H164637   2.231   4.233  16.343 -0.6844 -1.3533  1.0439
14382TIP3    H264638   2.328   4.130  16.291 -0.0697 -0.4802  0.4536
14383TIP3   OH264639   2.530   4.879  11.411 -0.5912  0.4381 -0.2752
14383TIP3    H164640   2.514   4.964  11.369 -1.0269  0.8144  0.6329
14383TIP3    H264641   2.493   4.888  11.498  0.9861 -0.0606  0.4874
14384TIP3   OH264642   3.365   3.487   2.006  0.4148 -0.1542 -0.2717
14384TIP3    H164643   3.376   3.479   1.911  0.9968 -0.4903 -0.1827
14384TIP3    H264644   3.446   3.531   2.036 -0.4050  1.3211 -0.1011
14385TIP3   OH264645   1.713   2.475   5.168  0.5252  0.3357 -0.1796
14385TIP3    H164646   1.678   2.520   5.246 -0.1337 -0.9304  0.2853
14385TIP3    H264647   1.653   2.500   5.098 -0.8401 -1.0509  0.4161
14386TIP3   OH264648   0.626   2.987   1.168 -0.2724 -0.6515 -0.3761
14386TIP3    H164649   0.573   3.059   1.201 -0.5566 -0.5296 -1.0747
14386TIP3    H264650   0.711   2.999   1.210 -0.9095 -1.1289  1.1302
14387TIP3   OH264651   0.853   2.336   4.938 -0.6577  0.0285 -0.2136
14387TIP3    H164652   0.793   2.268   4.908 -1.3957  0.6810 -0.2300
14387TIP3    H264653   0.915   2.347   4.865 -1.5274  0.5348 -0.8974
14388TIP3   OH264654   4.775   3.650   4.547 -0.0723  0.7315 -0.1846
14388TIP3    H164655   4.746   3.661   4.637  0.7896  1.0415  0.0681
14388TIP3    H264656   4.822   3.566   4.547 -0.3761  0.5600 -0.4265
14389TIP3   OH264657   2.126   4.244   0.938 -0.1428  0.6960 -0.1174
14389TIP3    H164658   2.089   4.316   0.988 -2.1297 -0.2562 -0.1268
14389TIP3    H264659   2.210   4.226   0.981 -0.1637  2.2120  0.6165
14390TIP3   OH264660   2.045   3.633   2.128  0.2805 -0.3332 -0.2044
14390TIP3    H164661   2.006   3.559   2.175  1.5208 -0.8372  0.0534
14390TIP3    H264662   2.058   3.699   2.195  0.0191 -0.2225 -0.2619
14391TIP3   OH264663   4.484   5.515  16.832  0.3684 -0.1465 -0.4282
14391TIP3    H164664   4.524   5.500  16.747 -1.6552 -1.6781 -1.1876
14391TIP3    H264665   4.445   5.602  16.827  0.9875  0.1126 -0.7492
14392TIP3   OH264666   2.185   1.458  13.009  0.0492  0.0498 -0.4386
14392TIP3    H164667   2.226   1.522  13.067  0.1355 -0.2059 -0.2139
14392TIP3    H264668   2.191   1.375  13.057 -0.9324  0.0435 -0.3080
14393TIP3   OH264669   5.512   5.148   4.919  0.0823  0.7626 -0.5786
14393TIP3    H164670   5.496   5.062   4.957 -0.3857  1.7636  1.6360
14393TIP3    H264671   5.601   5.143   4.885  0.9446  0.0701  1.6164
14394TIP3   OH264672   5.180   4.240   5.687 -0.1112  0.7368 -0.1882
14394TIP3    H164673   5.233   4.163   5.664  0.7455  1.6439 -1.3790
14394TIP3    H264674   5.125   4.255   5.610 -2.4487 -0.4040  1.1685
14395TIP3   OH264675   2.139   4.360  16.664 -0.0531  0.0022  0.2875
14395TIP3    H164676   2.100   4.374  16.750 -1.4237  0.1705 -0.3407
14395TIP3    H264677   2.160   4.266  16.662 -1.2981 -0.2979  0.3116
14396TIP3   OH264678   5.570   0.380   3.586 -0.1445 -0.3420  0.1066
14396TIP3    H164679   5.572   0.346   3.676 -0.5248  0.5522  0.4662
14396TIP3    H264680   5.488   0.429   3.581 -0.1816 -0.4761 -0.7716
14397TIP3   OH264681   3.174   4.325  10.810  0.4234 -0.5199 -0.1407
14397TIP3    H164682   3.093   4.369  10.787 -0.9047 -2.6822  0.0802
14397TIP3    H264683   3.212   4.378  10.880 -0.5126  0.8079 -0.6062
14398TIP3   OH264684   1.330   4.826   3.075 -0.1905  0.0546  0.0382
14398TIP3    H164685   1.377   4.764   3.018 -0.3547  0.9818 -1.1347
14398TIP3    H264686   1.245   4.786   3.089  0.7208 -1.4176  1.7910
14399TIP3   OH264687   0.482   0.365  11.972 -0.5325 -0.1126  0.2587
14399TIP3    H164688   0.398   0.392  11.935  0.4403  0.2334 -1.8536
14399TIP3    H264689   0.507   0.436  12.031 -1.7942 -0.3361  1.1127
14400TIP3   OH264690   6.691   3.981  12.171  0.0611 -0.4425  0.4130
14400TIP3    H164691   6.598   3.999  12.187 -0.3434  0.9973 -2.7946
14400TIP3    H264692   6.702   3.996  12.077  4.1339  2.2840  1.1060
14401TIP3   OH264693   1.014   1.860  14.632 -0.3896  0.1820  0.1485
14401TIP3    H164694   0.975   1.947  14.630 -0.2566  0.2598  0.6955
14401TIP3    H264695   0.943   1.803  14.661 -0.1821  0.2804  0.8669
14402TIP3   OH264696   6.486   1.128  16.339 -0.5069  0.1629  0.2601
14402TIP3    H164697   6.497   1.037  16.312 -0.3444  0.0244  0.7818
14402TIP3    H264698   6.457   1.123  16.430 -0.6609  0.6292  0.2401
14403TIP3   OH264699   3.973   2.333  13.542  0.4716  0.2525 -0.6044
14403TIP3    H164700   4.035   2.388  13.590  0.2037 -0.6191  0.8264
14403TIP3    H264701   3.889   2.378  13.551  0.6156  0.6506 -1.2186
14404TIP3   OH264702   5.553   6.281   2.077  0.4357 -0.0869 -1.0112
14404TIP3    H164703   5.577   6.232   2.155  0.3529 -0.7337 -1.3801
14404TIP3    H264704   5.568   6.372   2.100 -0.0870 -0.2315 -0.0672
14405TIP3   OH264705   2.362   3.054  11.964 -0.3760 -0.2323  0.1383
14405TIP3    H164706   2.425   2.995  11.923  0.0248 -0.9234  1.6515
14405TIP3    H264707   2.384   3.051  12.057 -3.3277 -1.4025  0.9255
14406TIP3   OH264708   1.857   6.046  14.037  0.2918 -0.2798 -0.7758
14406TIP3    H164709   1.922   5.978  14.015 -0.1749 -1.1655  0.4989
14406TIP3    H264710   1.773   6.000  14.035  0.1200 -0.2305  1.8575
14407TIP3   OH264711   4.818   3.846  12.135  0.3971 -0.2736 -0.3661
14407TIP3    H164712   4.817   3.876  12.226  2.4938 -2.4880  0.4973
14407TIP3    H264713   4.775   3.761  12.138 -0.9346  0.3044 -1.8046
14408TIP3   OH264714   2.902   2.337   4.435 -0.1586 -0.5167 -0.1591
14408TIP3    H164715   2.910   2.431   4.445  0.4602 -0.4788 -0.9035
14408TIP3    H264716   2.992   2.306   4.421 -0.6157 -0.8453 -2.8238
14409TIP3   OH264717   2.106   1.142  13.923 -0.4896 -1.5118 -0.2041
14409TIP3    H164718   2.192   1.173  13.895 -1.2415  1.0164 -0.0567
14409TIP3    H264719   2.085   1.197  13.999 -2.8253 -0.9527 -1.1442
14410TIP3   OH264720   0.721   2.251   2.892  0.5904  0.4231 -0.2068
14410TIP3    H164721   0.801   2.304   2.886  0.2282  0.9628 -0.3754
14410TIP3    H264722   0.668   2.279   2.817  0.3917 -0.1886 -0.3021
14411TIP3   OH264723   4.737   0.627  16.960  0.0335 -0.0552 -0.2418
14411TIP3    H164724   4.667   0.690  16.978 -0.5667 -1.3229  2.3321
14411TIP3    H264725   4.723   0.601  16.869 -1.0314  1.8805 -0.6724
14412TIP3   OH264726   0.018   6.493  13.511  0.1919  0.5410 -0.0228
14412TIP3    H164727   0.003   6.422  13.573 -0.0329 -0.4321 -1.1527
14412TIP3    H264728  -0.068   6.511  13.473  0.6827 -0.5861 -1.8135
14413TIP3   OH264729   6.502   3.855  15.586 -0.0148  0.4912  0.1736
14413TIP3    H164730   6.570   3.916  15.559 -0.1936  0.4534 -0.3706
14413TIP3    H264731   6.495   3.867  15.681  0.8214  0.4166  0.2533
14414TIP3   OH264732   4.514   1.881   0.135 -0.0823 -0.0898 -0.2245
14414TIP3    H164733   4.456   1.828   0.081  0.1631 -0.5083 -0.0874
14414TIP3    H264734   4.510   1.839   0.222  0.3269 -0.0563 -0.1845
14415TIP3   OH264735   2.945   1.582   2.057  0.5268 -0.3872 -0.3639
14415TIP3    H164736   2.879   1.525   2.096  0.5141  1.0344  1.8705
14415TIP3    H264737   2.914   1.597   1.967 -1.5342 -0.7766  0.2250
14416TIP3   OH264738   1.647   3.354   2.746  0.1295 -0.2903 -0.2923
14416TIP3    H164739   1.665   3.260   2.737 -0.2065 -0.4559  0.6178
14416TIP3    H264740   1.734   3.393   2.759  0.1871 -0.6303  0.4479
14417TIP3   OH264741   5.148   3.276  10.430  0.4841  0.1502 -0.1895
14417TIP3    H164742   5.078   3.341  10.428 -0.4902 -0.8504  0.2048
14417TIP3    H264743   5.227   3.325  10.408 -0.2810  1.3772 -0.3021
14418TIP3   OH264744   4.499   4.000  12.936 -0.1609  0.1090  0.0282
14418TIP3    H164745   4.457   3.953  13.008 -1.1334 -0.3378 -0.8156
14418TIP3    H264746   4.544   3.932  12.886 -0.5501  0.2318 -0.5014
14419TIP3   OH264747   3.228   1.636   0.307  0.1182  0.2788  0.4849
14419TIP3    H164748   3.138   1.631   0.278  0.2640 -0.4081  0.1248
14419TIP3    H264749   3.270   1.698   0.248  0.5286 -1.4559 -1.1450
14420TIP3   OH264750   4.261   2.902   3.076 -0.1251 -0.4312 -0.2820
14420TIP3    H164751   4.235   2.834   3.139 -1.4851  0.5758  0.3060
14420TIP3    H264752   4.212   2.881   2.996 -2.8165  1.3387  0.7578
14421TIP3   OH264753   6.356   5.863  10.813  0.1950  0.2561 -0.0787
14421TIP3    H164754   6.381   5.810  10.888  1.7090 -1.0638 -1.4197
14421TIP3    H264755   6.274   5.825  10.782  0.3529 -0.1762  0.0273
14422TIP3   OH264756   6.305   4.746   1.410  0.2171  0.2914 -0.1436
14422TIP3    H164757   6.230   4.778   1.461 -0.3001 -1.6519  0.3839
14422TIP3    H264758   6.269   4.733   1.322  0.0378 -0.2579  0.0101
14423TIP3   OH264759   1.771   6.685   0.244 -0.2692 -0.0127 -0.0710
14423TIP3    H164760   1.745   6.603   0.285 -0.1579 -0.0604 -0.0956
14423TIP3    H264761   1.866   6.680   0.239 -0.2925 -0.0818 -0.4892
14424TIP3   OH264762   4.108   3.378  12.115  0.0045 -0.1242 -0.0597
14424TIP3    H164763   4.193   3.396  12.073  0.5668 -1.6590  0.3423
14424TIP3    H264764   4.095   3.284  12.102 -1.7350  0.1209 -0.2501
14425TIP3   OH264765   2.258   0.753  11.148 -0.3906 -0.5238 -0.4599
14425TIP3    H164766   2.176   0.795  11.121 -1.4640 -2.1437  0.0768
14425TIP3    H264767   2.326   0.799  11.098 -1.6500  0.6618 -1.1691
14426TIP3   OH264768   3.929   0.317  11.220 -0.1824 -0.8714  0.2938
14426TIP3    H164769   3.955   0.230  11.189  1.1780 -0.6249  0.6637
14426TIP3    H264770   4.011   0.366  11.224 -0.9495  0.4713 -0.0097
14427TIP3   OH264771   4.228   0.184  11.345  0.1063 -0.2738 -0.3731
14427TIP3    H164772   4.246   0.265  11.297 -0.1243 -0.5873 -0.9996
14427TIP3    H264773   4.163   0.139  11.292  1.8387 -1.9098 -1.2364
14428TIP3   OH264774   2.775   2.090   1.226 -0.2347 -0.4120 -0.4270
14428TIP3    H164775   2.684   2.119   1.224  0.1673  0.8706 -1.3674
14428TIP3    H264776   2.807   2.117   1.312 -0.8147 -1.1787  0.0486
14429TIP3   OH264777   4.104   1.339  17.152  0.3939  0.2608  0.9490
14429TIP3    H164778   4.013   1.324  17.178  0.5143  2.3907  2.8459
14429TIP3    H264779   4.098   1.385  17.069 -0.3367  1.3914  1.6065
14430TIP3   OH264780   0.182   2.796  10.730 -0.2657 -0.0173  0.2828
14430TIP3    H164781   0.105   2.761  10.685  0.5765  1.8549 -2.9782
14430TIP3    H264782   0.252   2.790  10.665  0.9825  3.3143  1.0881
14431TIP3   OH264783   2.190   4.216  11.574 -0.3703  0.1348 -0.7509
14431TIP3    H164784   2.193   4.158  11.498  0.6806 -0.5856 -0.1735
14431TIP3    H264785   2.281   4.226  11.602 -0.7258  0.4188  0.3879
14432TIP3   OH264786   1.586   0.542   5.934 -0.2564 -0.3054 -0.1725
14432TIP3    H164787   1.600   0.448   5.924  1.4604  0.0525 -1.7858
14432TIP3    H264788   1.492   0.555   5.923 -0.7106 -1.9516  1.4469
14433TIP3   OH264789   3.212   5.441   3.464 -0.0835 -0.3474  0.1298
14433TIP3    H164790   3.134   5.399   3.428 -0.7773  0.5304  0.5856
14433TIP3    H264791   3.200   5.438   3.559 -1.0972  2.5705  0.1659
14434TIP3   OH264792   6.744   3.001   1.819 -0.6237  0.5556  0.5608
14434TIP3    H164793   6.679   3.061   1.780 -0.3756  0.5243  0.0964
14434TIP3    H264794   6.824   3.053   1.824 -0.3022  0.1362 -0.2112
14435TIP3   OH264795   3.574   3.399  10.491  0.2063 -0.2692 -0.2899
14435TIP3    H164796   3.541   3.310  10.507 -0.1618 -0.3313 -1.2860
14435TIP3    H264797   3.619   3.393  10.406  1.6599  0.1226  0.4258
14436TIP3   OH264798   6.236   6.804  13.072 -0.3017 -0.2730 -0.2825
14436TIP3    H164799   6.285   6.737  13.119 -1.5130 -0.8558  0.2067
14436TIP3    H264800   6.184   6.755  13.008 -0.3683  0.2989 -0.6713
14437TIP3   OH264801   0.113   0.005  16.000 -0.5682  0.0033 -0.0582
14437TIP3    H164802   0.062  -0.020  16.077 -1.2728 -1.5110 -0.9698
14437TIP3    H264803   0.176  -0.066  15.988 -0.1894  0.4237 -0.6284
14438TIP3   OH264804   4.885   6.470  16.071 -0.3371 -0.2805 -0.1014
14438TIP3    H164805   4.979   6.460  16.083 -0.0594  2.1847  0.3915
14438TIP3    H264806   4.870   6.449  15.979  0.9712  0.8388 -0.5968
14439TIP3   OH264807   4.080   3.723  13.206  0.0224 -0.2109 -0.2139
14439TIP3    H164808   4.130   3.788  13.255  2.1908  0.8790 -3.5156
14439TIP3    H264809   4.082   3.644  13.260  0.3634  1.4273  2.3196
14440TIP3   OH264810   6.575   1.575  16.243  0.1847  0.3175  0.3637
14440TIP3    H164811   6.574   1.494  16.294  2.2373 -0.9930 -1.4434
14440TIP3    H264812   6.502   1.566  16.182  0.2986 -0.1231  0.2869
14441TIP3   OH264813   4.348   4.950  13.142 -0.2536  0.3355  0.2444
14441TIP3    H164814   4.341   4.871  13.196  1.1453 -0.6440 -0.9361
14441TIP3    H264815   4.389   4.921  13.061  0.7739  2.3712 -0.0377
14442TIP3   OH264816   3.638   2.823  16.914  0.0890 -0.0179 -0.4838
14442TIP3    H164817   3.703   2.862  16.973 -0.1768  3.0619 -2.0370
14442TIP3    H264818   3.581   2.772  16.972  1.0657  1.1210  1.5947
14443TIP3   OH264819   5.248   5.098   3.964  0.4208 -0.5456  0.0421
14443TIP3    H164820   5.273   5.036   4.032 -1.0061 -0.3623  0.7554
14443TIP3    H264821   5.324   5.101   3.906  0.6687 -2.6868  0.1702
14444TIP3   OH264822   4.917   2.379  16.017 -0.9231 -0.1249  0.3827
14444TIP3    H164823   4.915   2.301  15.961 -0.5798 -0.6079  1.0166
14444TIP3    H264824   4.848   2.363  16.082  1.6563 -1.8694  2.9845
14445TIP3   OH264825   5.482   3.284  11.643 -0.2968  0.3489  0.0407
14445TIP3    H164826   5.542   3.211  11.660 -1.2151 -0.3573  0.3073
14445TIP3    H264827   5.523   3.359  11.686 -0.7024 -0.5965  2.2312
14446TIP3   OH264828   1.424   1.324  12.695 -0.2637 -1.0821 -0.5450
14446TIP3    H164829   1.449   1.366  12.777 -1.7538 -0.0736 -0.5827
14446TIP3    H264830   1.477   1.244  12.692 -0.1456 -1.1152  1.3649
14447TIP3   OH264831   6.259   5.211  14.565  0.2003  0.5684 -0.0275
14447TIP3    H164832   6.184   5.229  14.509 -0.3548  2.2260  1.1792
14447TIP3    H264833   6.241   5.124  14.602 -0.0170 -0.0079 -1.4198
14448TIP3   OH264834   5.987   6.441  14.595 -0.9236 -0.3287  0.4488
14448TIP3    H164835   6.046   6.448  14.670  0.0733 -3.3837  0.1054
14448TIP3    H264836   5.967   6.348  14.589 -2.4047  0.0569 -2.0315
14449TIP3   OH264837   4.613   3.366  15.771 -0.2062 -0.0834  0.1960
14449TIP3    H164838   4.561   3.442  15.794 -2.4112 -0.4529 -2.8792
14449TIP3    H264839   4.551   3.293  15.772  0.8561 -1.0577 -0.9002
14450TIP3   OH264840   1.593   6.176  13.723  0.4497  0.5362 -0.1420
14450TIP3    H164841   1.517   6.150  13.775  0.3685  0.8281 -0.1159
14450TIP3    H264842   1.641   6.094  13.709  0.3749  0.4278  0.2333
14451TIP3   OH264843   0.563   3.587  16.128 -0.6660  0.4110 -0.2360
14451TIP3    H164844   0.561   3.546  16.042 -0.3684  1.6635 -0.8591
14451TIP3    H264845   0.473   3.616  16.143 -0.5279  0.9815 -0.5150
14452TIP3   OH264846   0.297   5.011   4.525  0.5597 -0.1373 -0.3188
14452TIP3    H164847   0.271   5.052   4.442 -0.8793  0.6706  0.4955
14452TIP3    H264848   0.243   4.932   4.530  0.5559 -0.1188 -0.0860
14453TIP3   OH264849   0.022   5.914   1.520 -0.0192 -0.4004  0.0129
14453TIP3    H164850   0.076   5.835   1.529  0.8546  0.2009  0.2509
14453TIP3    H264851   0.078   5.976   1.472 -1.9096 -1.0292 -3.3156
14454TIP3   OH264852   1.022   0.030  11.813 -0.0426 -0.6574  0.0527
14454TIP3    H164853   1.072  -0.039  11.856 -1.4040 -1.8413 -0.1654
14454TIP3    H264854   0.945  -0.015  11.778 -0.2654  0.7302 -1.3548
14455TIP3   OH264855   5.986   3.103  15.733 -0.1088 -0.5876  0.0359
14455TIP3    H164856   5.967   3.135  15.821 -0.5903  0.1873 -0.3415
14455TIP3    H264857   5.901   3.095  15.691  0.1887  0.1696 -0.7384
14456TIP3   OH264858   6.396   5.880   4.637 -0.3047  0.4272  0.2020
14456TIP3    H164859   6.420   5.790   4.660  0.0266  0.6609  0.7843
14456TIP3    H264860   6.321   5.870   4.578 -0.2486 -0.2306  0.2310
14457TIP3   OH264861   6.717   6.024  16.828  0.1857 -0.8221  0.5509
14457TIP3    H164862   6.680   6.010  16.741  0.3064 -0.2297  0.3943
14457TIP3    H264863   6.793   5.967  16.832 -1.4397 -3.0806  1.3681
14458TIP3   OH264864   4.661   3.143  14.103 -0.2969  0.6429 -0.5147
14458TIP3    H164865   4.681   3.142  14.009  0.4461  0.8261 -0.3633
14458TIP3    H264866   4.574   3.183  14.108 -0.9495 -0.6447 -1.2238
14459TIP3   OH264867   1.859   3.847   2.302 -0.5757 -0.5084  0.8796
14459TIP3    H164868   1.953   3.828   2.308 -0.4053 -0.3031 -0.6603
14459TIP3    H264869   1.818   3.761   2.302 -0.4456 -0.5821  2.1820
14460TIP3   OH264870   5.473   3.363  13.847  0.0561 -0.1347 -0.3284
14460TIP3    H164871   5.443   3.436  13.901 -0.8605  0.1548 -1.1784
14460TIP3    H264872   5.392   3.322  13.817  0.4671  0.4666 -2.4566
14461TIP3   OH264873   2.256   2.973  15.288  0.0080 -0.0935  0.2053
14461TIP3    H164874   2.306   2.896  15.312 -0.4891  0.0473  1.7910
14461TIP3    H264875   2.276   3.037  15.356  0.9363  1.4668 -1.4110
14462TIP3   OH264876   5.782   5.599  16.537 -0.2007  0.3416  0.2834
14462TIP3    H164877   5.766   5.602  16.631 -2.3997  0.4063 -0.0527
14462TIP3    H264878   5.697   5.618  16.497  0.5461 -0.2640 -1.7232
14463TIP3   OH264879   4.470   1.376  14.325 -0.2932  0.0854 -0.0028
14463TIP3    H164880   4.556   1.334  14.325 -0.4141 -0.1809 -0.8918
14463TIP3    H264881   4.411   1.310  14.361 -0.2896 -0.0871 -0.3134
14464TIP3   OH264882   2.983   2.091   0.115  0.0087  0.0557  0.4008
14464TIP3    H164883   3.013   2.103   0.205 -0.4705  4.1071  0.2210
14464TIP3    H264884   3.059   2.115   0.062 -0.1608 -0.8523 -0.2706
14465TIP3   OH264885   3.665   5.720   0.027 -0.0348 -0.3339  0.3871
14465TIP3    H164886   3.632   5.668  -0.046 -1.6665  2.8789 -1.4234
14465TIP3    H264887   3.593   5.720   0.091 -0.0183 -0.3496  0.4053
14466TIP3   OH264888   4.948   1.006   4.573 -0.3603 -0.5336  0.4193
14466TIP3    H164889   4.959   0.983   4.481  0.2641 -1.3382  0.6822
14466TIP3    H264890   4.895   0.935   4.609 -0.3193 -0.3948  0.7540
14467TIP3   OH264891   4.530   3.521  10.478  0.7621  0.3835  0.2295
14467TIP3    H164892   4.462   3.588  10.471  0.2743 -0.2260 -1.3720
14467TIP3    H264893   4.612   3.568  10.465  0.7340  1.1822  2.5013
14468TIP3   OH264894   4.272   5.856   1.837 -0.4601  0.3946  0.2858
14468TIP3    H164895   4.213   5.927   1.862 -0.6724 -0.2157  1.5646
14468TIP3    H264896   4.357   5.880   1.875 -0.4805  0.0646  0.5411
14469TIP3   OH264897   3.604   0.602  11.046  0.0258 -0.1296 -0.1283
14469TIP3    H164898   3.563   0.516  11.051  1.3487 -0.7696  0.2731
14469TIP3    H264899   3.558   0.647  10.976  0.8193 -2.0266 -1.9846
14470TIP3   OH264900   0.370   6.209   0.334 -0.1188  0.1485  0.0312
14470TIP3    H164901   0.302   6.272   0.359 -1.3361 -1.0144 -0.1905
14470TIP3    H264902   0.335   6.168   0.254  2.2567  1.6160 -1.8926
14471TIP3   OH264903   2.085   6.402   3.958 -0.7211  0.0606  0.0715
14471TIP3    H164904   2.155   6.465   3.939 -0.7631 -0.3511 -1.5316
14471TIP3    H264905   2.009   6.457   3.979 -0.9902  0.5984 -2.1313
14472TIP3   OH264906   0.370   5.639  12.650  0.6190  0.4806 -0.8033
14472TIP3    H164907   0.459   5.651  12.617  0.2226  2.5048 -1.2676
14472TIP3    H264908   0.382   5.618  12.743  1.5856 -0.0858 -1.0413
14473TIP3   OH264909   2.944   4.288   4.242 -0.3555  0.1683 -0.4744
14473TIP3    H164910   2.955   4.211   4.187  0.1165 -0.5417  0.5884
14473TIP3    H264911   2.850   4.292   4.261 -0.2058 -1.0323  0.6769
14474TIP3   OH264912   1.835   0.101  13.478 -0.2866 -0.5349 -0.4447
14474TIP3    H164913   1.846   0.196  13.482  0.9675 -0.5565 -2.4028
14474TIP3    H264914   1.881   0.069  13.556  1.1447  0.3479 -0.8944
14475TIP3   OH264915   2.025   6.578   2.410 -0.9600  0.5314  0.0557
14475TIP3    H164916   2.087   6.598   2.480 -0.1909 -1.5169  0.0147
14475TIP3    H264917   1.958   6.524   2.453 -0.3638 -0.9311 -0.7830
14476TIP3   OH264918   4.490   1.122   5.504  0.4512  0.0556 -0.3182
14476TIP3    H164919   4.403   1.160   5.514  1.9659  3.9237 -0.1781
14476TIP3    H264920   4.497   1.101   5.411 -0.7676 -0.7215 -0.2457
14477TIP3   OH264921   6.145   2.892   0.317 -0.0588 -0.4649  0.2185
14477TIP3    H164922   6.125   2.933   0.401  2.3612 -0.0233  0.6620
14477TIP3    H264923   6.076   2.922   0.259 -0.7746  0.7129  1.6019
14478TIP3   OH264924   1.596   4.173   0.671 -0.6702 -0.2753 -0.0484
14478TIP3    H164925   1.672   4.221   0.638  0.8671 -2.5793 -0.1209
14478TIP3    H264926   1.520   4.222   0.638  0.6535  3.0371  1.3426
14479TIP3   OH264927   3.228   2.763  14.772 -0.0865  0.1690 -0.4789
14479TIP3    H164928   3.290   2.822  14.814  0.1027 -0.5044  0.2171
14479TIP3    H264929   3.180   2.818  14.711  1.1778  0.7122 -1.0163
14480TIP3   OH264930   3.956   0.091   3.532  0.2315  0.4724  0.2104
14480TIP3    H164931   3.900   0.136   3.594  0.2395 -0.2200  0.7242
14480TIP3    H264932   3.909   0.096   3.448  0.3006  1.5480  0.2295
14481TIP3   OH264933   2.836   1.530   1.791  0.0866  0.6123  0.4681
14481TIP3    H164934   2.806   1.439   1.793 -0.5912  0.8376  1.1298
14481TIP3    H264935   2.924   1.526   1.753 -0.1380 -0.2572  0.0167
14482TIP3   OH264936   1.658   0.854  16.169 -0.1323  0.0833 -0.1161
14482TIP3    H164937   1.653   0.773  16.117  0.5747 -0.1638  0.1766
14482TIP3    H264938   1.573   0.860  16.213  0.0543 -0.8780  0.3970
14483TIP3   OH264939   6.713   5.588   4.272 -0.5856 -0.3426 -0.2213
14483TIP3    H164940   6.742   5.550   4.355  0.7590  0.3634 -0.3504
14483TIP3    H264941   6.781   5.563   4.209 -0.5184  0.8819 -0.6567
14484TIP3   OH264942   0.407   3.945   1.861  0.6285 -0.1539 -0.4386
14484TIP3    H164943   0.464   4.014   1.893  1.7479  0.0132 -2.6196
14484TIP3    H264944   0.332   3.991   1.822 -1.1498 -0.3699  2.4332
14485TIP3   OH264945   5.984   4.183  10.429 -0.1694 -0.0733  0.4455
14485TIP3    H164946   6.046   4.230  10.374  0.8738 -1.5798  0.2588
14485TIP3    H264947   5.980   4.095  10.390 -2.4822 -0.0176  0.4149
14486TIP3   OH264948   1.220   6.522   5.347 -0.0628 -0.5059  0.8581
14486TIP3    H164949   1.154   6.587   5.325  0.5838 -0.7245 -2.0985
14486TIP3    H264950   1.197   6.494   5.436 -2.3004  1.3349  0.9543
14487TIP3   OH264951   0.580   4.268   5.650 -0.0541  0.2025 -0.4744
14487TIP3    H164952   0.506   4.328   5.657  0.2702  0.4276  3.0396
14487TIP3    H264953   0.654   4.324   5.627 -0.0225  1.0118  1.3906
14488TIP3   OH264954   2.756   0.839   5.588  0.2566  0.4704  0.8833
14488TIP3    H164955   2.789   0.815   5.675 -1.1373 -0.4808  1.1794
14488TIP3    H264956   2.824   0.809   5.528  0.8252  0.3012  1.5924
14489TIP3   OH264957   0.339   2.054  12.486  0.1467  0.5591  0.0932
14489TIP3    H164958   0.387   2.008  12.555  0.1654  0.0963 -0.2199
14489TIP3    H264959   0.399   2.054  12.411 -0.8468 -1.3163 -0.7725
14490TIP3   OH264960   2.116   1.906   4.731 -0.2794  0.2890  0.4572
14490TIP3    H164961   2.178   1.848   4.774 -0.2223  0.3636  0.4765
14490TIP3    H264962   2.110   1.982   4.789 -0.4879  0.2239  0.5189
14491TIP3   OH264963   6.493   1.635  15.284  0.4852 -0.5179 -0.6871
14491TIP3    H164964   6.418   1.691  15.301  1.9837  1.2476  0.5960
14491TIP3    H264965   6.558   1.663  15.348  1.9427 -2.5715 -1.1717
14492TIP3   OH264966   4.658   5.769   2.638 -0.2938  0.5540 -0.4787
14492TIP3    H164967   4.658   5.782   2.733 -1.0711 -0.2974 -0.3566
14492TIP3    H264968   4.712   5.841   2.605  1.3339 -0.0424  0.7206
14493TIP3   OH264969   2.389   0.269  14.618  0.1529 -0.2492  0.3384
14493TIP3    H164970   2.465   0.328  14.629 -1.1736  1.2961  1.9909
14493TIP3    H264971   2.372   0.270  14.524  0.8001  1.2391  0.1929
14494TIP3   OH264972   1.588   5.325  11.728  0.3839 -0.0174  0.1566
14494TIP3    H164973   1.565   5.362  11.813 -0.0524 -0.1348  0.0958
14494TIP3    H264974   1.683   5.322  11.727  0.3863 -1.3526  1.2324
14495TIP3   OH264975   2.441   4.413   5.438  0.1122 -0.2896 -0.0433
14495TIP3    H164976   2.516   4.378   5.486  0.3727 -0.3259 -0.4722
14495TIP3    H264977   2.384   4.449   5.506  1.2796  1.2247  0.1990
14496TIP3   OH264978   3.669   0.870  12.762  0.1178 -0.5023  0.0940
14496TIP3    H164979   3.684   0.944  12.702 -0.4746  1.3531  2.1011
14496TIP3    H264980   3.603   0.817  12.717  0.6616  0.0902 -1.4832
14497TIP3   OH264981   1.078   0.189   1.147  0.0826  0.2754  0.6524
14497TIP3    H164982   1.075   0.275   1.105  0.7891  0.5259  1.1034
14497TIP3    H264983   1.047   0.129   1.079  1.0169  0.7016 -0.1784
14498TIP3   OH264984   2.628   6.008   4.484 -0.0230  0.5509 -0.2787
14498TIP3    H164985   2.592   6.004   4.572 -0.2547  0.0775 -0.3946
14498TIP3    H264986   2.714   5.967   4.492  0.4363  1.5267 -0.0388
14499TIP3   OH264987   5.916   3.089   5.790  0.0086  0.0579  0.0797
14499TIP3    H164988   5.826   3.080   5.820 -0.4006 -0.6930 -1.2663
14499TIP3    H264989   5.969   3.059   5.863 -0.8405  0.2042  0.7737
14500TIP3   OH264990   6.142   4.429  11.943  0.3045  0.3822  0.4408
14500TIP3    H164991   6.064   4.414  11.996  0.9371 -1.4135  0.9298
14500TIP3    H264992   6.204   4.472  12.003  0.7496 -0.9644  0.9867
14501TIP3   OH264993   1.828   0.457   2.254  0.5754 -0.3555 -0.1329
14501TIP3    H164994   1.837   0.377   2.202  1.5300  0.1767 -0.8366
14501TIP3    H264995   1.838   0.528   2.190 -1.2174  0.3640  0.3074
14502TIP3   OH264996   5.451   2.379   2.451  0.7141 -0.1711 -0.1154
14502TIP3    H164997   5.536   2.384   2.407  0.0348 -0.5504 -1.5204
14502TIP3    H264998   5.394   2.436   2.400 -0.1653 -0.8396  0.1003
14503TIP3   OH264999   6.187   1.339  17.203  0.5410 -0.2721 -0.0864
14503TIP3    H165000   6.237   1.354  17.283 -0.2655 -0.2423  0.4271
14503TIP3    H265001   6.125   1.411  17.199  1.1396  0.1984 -1.2085
14504TIP3   OH265002   5.279   1.072  16.113  0.2027 -0.0223 -0.1677
14504TIP3    H165003   5.189   1.047  16.137  0.8856 -0.9994  1.5507
14504TIP3    H265004   5.271   1.163  16.083 -1.4815 -0.3730 -0.9260
14505TIP3   OH265005   5.047   3.681   2.861 -0.1213 -0.3334 -0.4124
14505TIP3    H165006   5.068   3.763   2.905  0.4198 -0.4865 -0.3883
14505TIP3    H265007   4.951   3.677   2.864 -0.1288  0.0674 -0.0038
14506TIP3   OH265008   5.060   2.852  11.294  0.1382 -0.1161 -0.6791
14506TIP3    H165009   4.974   2.828  11.259 -0.9672  0.5935  1.3653
14506TIP3    H265010   5.087   2.776  11.344  0.0792  0.1371 -0.2570
14507TIP3   OH265011   3.745   2.177  16.284 -0.2271 -0.1511 -0.2074
14507TIP3    H165012   3.783   2.168  16.372 -2.0559  0.1798  0.6688
14507TIP3    H265013   3.700   2.094  16.269 -0.6749  0.1310 -0.4423
14508TIP3   OH265014   3.892   6.699  16.300  0.0329 -0.7286  0.1252
14508TIP3    H165015   3.979   6.724  16.332  0.2204 -1.7236  0.4503
14508TIP3    H265016   3.841   6.780  16.300  0.8371 -0.2154  0.3355
14509TIP3   OH265017   1.186   5.724  13.623 -0.2162 -0.3136 -0.0596
14509TIP3    H165018   1.179   5.630  13.601 -1.1534 -0.5785  1.2281
14509TIP3    H265019   1.216   5.725  13.713  2.5735  0.7296 -0.9176
14510TIP3   OH265020   0.217   2.916  15.016 -0.2385  0.0225  0.3222
14510TIP3    H165021   0.253   2.837  14.976 -0.2415 -0.0585  0.4775
14510TIP3    H265022   0.130   2.890  15.047  0.6463 -0.6170  2.5186
14511TIP3   OH265023   6.472   1.726   4.387  0.1489 -0.4749 -0.6196
14511TIP3    H165024   6.478   1.752   4.479  2.3955 -1.6025 -0.3806
14511TIP3    H265025   6.472   1.808   4.338 -0.7945  0.1317  0.3552
14512TIP3   OH265026   3.715   2.458   4.943 -0.5199  0.0789  0.4873
14512TIP3    H165027   3.642   2.407   4.908  0.0808 -0.3623 -0.1384
14512TIP3    H265028   3.756   2.498   4.866  0.5488 -0.5507  0.7091
14513TIP3   OH265029   1.590   5.808  15.385  0.2784 -0.0280  0.2322
14513TIP3    H165030   1.561   5.745  15.319  0.9591 -0.1711  0.0627
14513TIP3    H265031   1.575   5.894  15.346 -0.7331 -0.0678  0.4968
14514TIP3   OH265032   4.501   0.361  13.149  0.3098 -0.1004  0.2360
14514TIP3    H165033   4.463   0.364  13.236  0.1784 -1.1721  0.2264
14514TIP3    H265034   4.594   0.381  13.162  0.2750 -0.1875  0.6072
14515TIP3   OH265035   3.477   2.025   2.105 -0.1036 -0.1195 -0.0264
14515TIP3    H165036   3.426   2.049   2.028 -1.2829  2.9678  1.5519
14515TIP3    H265037   3.565   2.059   2.086 -1.3286  4.6564  1.4359
14516TIP3   OH265038   6.617   5.589  13.313 -0.6060  0.2116  0.0956
14516TIP3    H165039   6.645   5.593  13.405  1.1076 -1.4701 -0.2942
14516TIP3    H265040   6.692   5.622  13.264 -1.3670  0.7394 -0.7396
14517TIP3   OH265041   3.965   2.935  10.662  0.0476  0.2070 -0.1027
14517TIP3    H165042   4.019   2.858  10.678 -1.6862 -1.1836 -0.6824
14517TIP3    H265043   3.932   2.959  10.749  2.4462  1.8520  0.4825
14518TIP3   OH265044   3.711   6.542   2.578  0.1186  0.0353  0.2607
14518TIP3    H165045   3.716   6.471   2.641 -1.0033 -0.1499  0.1521
14518TIP3    H265046   3.764   6.612   2.617  2.5908 -1.3590 -0.3798
14519TIP3   OH265047   4.701   6.453  14.718  0.1316 -0.3788  0.8261
14519TIP3    H165048   4.675   6.525  14.774  1.8338  0.6362  0.4036
14519TIP3    H265049   4.789   6.429  14.748  0.1409 -1.3716  0.0887
14520TIP3   OH265050   2.414   3.266  11.093 -0.7572  0.1711 -0.0188
14520TIP3    H165051   2.379   3.283  11.181 -0.1987  4.1409 -0.3857
14520TIP3    H265052   2.509   3.262  11.105 -0.7471 -0.4105 -0.2905
14521TIP3   OH265053   5.995   3.299   4.305 -0.0006 -0.9914 -0.1983
14521TIP3    H165054   6.038   3.371   4.351  0.6361  0.1986 -2.4968
14521TIP3    H265055   6.060   3.230   4.303  0.6659 -0.3652 -0.8736
14522TIP3   OH265056   5.646   4.237  12.985  0.2839 -0.2677 -0.3048
14522TIP3    H165057   5.742   4.237  12.986  0.2929 -1.1211  0.4189
14522TIP3    H265058   5.623   4.191  12.904  0.5343 -2.0362  0.5765
14523TIP3   OH265059   1.745   3.966   1.698  0.7293  0.2001 -0.1073
14523TIP3    H165060   1.745   3.885   1.646 -0.4250 -0.6829  1.1829
14523TIP3    H265061   1.837   3.977   1.725  0.9377 -0.5787 -0.4674
14524TIP3   OH265062   4.378   3.060  13.956  0.4216  0.3992  0.3567
14524TIP3    H165063   4.374   3.071  14.051  1.1343  0.6175  0.3669
14524TIP3    H265064   4.377   2.965  13.943 -0.0939  0.3752  0.5593
14525TIP3   OH265065   0.332   1.666  12.147 -0.6107  0.4986  0.1083
14525TIP3    H165066   0.253   1.636  12.191 -0.3346  0.4386  0.5730
14525TIP3    H265067   0.314   1.655  12.053 -1.3479  0.9850  0.1870
14526TIP3   OH265068   4.943   5.313  14.252  0.2457  0.0763  0.5811
14526TIP3    H165069   4.969   5.259  14.177  0.2966  2.2100 -1.0205
14526TIP3    H265070   4.848   5.307  14.254  0.2712 -0.3235  0.6021
14527TIP3   OH265071   0.138   0.099  12.509  0.4995  0.1830 -0.6819
14527TIP3    H165072   0.220   0.052  12.499  1.4529  1.7299 -0.3934
14527TIP3    H265073   0.146   0.176  12.453 -1.0044  0.0550 -1.1252
14528TIP3   OH265074   4.976   2.861  15.177  0.4967  0.1661  0.0011
14528TIP3    H165075   4.932   2.802  15.116 -0.0274  0.8531 -0.2964
14528TIP3    H265076   5.068   2.861  15.149  0.3492  0.1103 -0.4952
14529TIP3   OH265077   2.446   2.384  12.427 -0.4317  0.1998  0.2459
14529TIP3    H165078   2.390   2.404  12.501 -2.6277 -1.5807 -0.8088
14529TIP3    H265079   2.419   2.446  12.359 -0.8480 -0.3979 -0.1390
14530TIP3   OH265080   1.696   2.170  14.493  0.3490 -0.1458 -0.4270
14530TIP3    H165081   1.631   2.148  14.559  0.2306 -0.5892 -0.6910
14530TIP3    H265082   1.780   2.150  14.534  0.3115  0.1790 -0.1832
14531TIP3   OH265083   6.390   1.932   2.620  0.3292 -0.5345 -0.7308
14531TIP3    H165084   6.311   1.949   2.671  0.4235  0.0126 -0.7626
14531TIP3    H265085   6.385   1.994   2.547  1.1327 -0.0203 -0.3583
14532TIP3   OH265086   0.184   3.503   0.800  0.1931  0.2738 -0.6069
14532TIP3    H165087   0.192   3.436   0.732  1.0531  1.0070 -1.2545
14532TIP3    H265088   0.113   3.560   0.770 -1.0660 -0.7473  0.3241
14533TIP3   OH265089   5.262   4.734   2.862  0.1056  0.4034  0.1965
14533TIP3    H165090   5.183   4.732   2.917  0.7619 -1.5827  1.1625
14533TIP3    H265091   5.295   4.824   2.871 -1.6559  1.0794  0.2938
14534TIP3   OH265092   6.185   1.669   5.533  0.8156 -0.2639 -0.0805
14534TIP3    H165093   6.117   1.663   5.601  1.5248  1.0071  0.8002
14534TIP3    H265094   6.172   1.755   5.494  0.0234 -1.2303 -2.0412
14535TIP3   OH265095   2.674   6.302   2.466  0.2631 -0.2869  0.0680
14535TIP3    H165096   2.759   6.339   2.443 -0.5212  1.6011 -0.0147
14535TIP3    H265097   2.639   6.362   2.531 -1.8443  0.1388 -1.3548
14536TIP3   OH265098   3.873   6.412   0.402 -0.1344  0.0928 -0.1461
14536TIP3    H165099   3.823   6.444   0.326 -0.2333 -0.7706 -0.4606
14536TIP3    H265100   3.821   6.437   0.478  0.7457  2.4047 -0.2273
14537TIP3   OH265101   5.807   2.797   0.455 -0.1373 -0.0357  0.6510
14537TIP3    H165102   5.826   2.838   0.371 -1.6953  0.3943  0.4738
14537TIP3    H265103   5.717   2.823   0.474 -0.3487 -1.4443  1.6919
14538TIP3   OH265104   4.706   5.571  15.076  0.1512  0.3847  0.2552
14538TIP3    H165105   4.767   5.589  15.005  0.2352  0.3168  0.3100
14538TIP3    H265106   4.721   5.641  15.139  2.5049 -1.3859  1.8184
14539TIP3   OH265107   4.346   5.842   3.268  0.1432  0.1839  0.4202
14539TIP3    H165108   4.316   5.929   3.240  0.8257 -0.1317 -1.4383
14539TIP3    H265109   4.273   5.806   3.317 -0.9406  1.0190 -0.5129
14540TIP3   OH265110   3.289   3.180  13.777 -0.2946  0.1662 -0.3659
14540TIP3    H165111   3.345   3.167  13.854 -2.0392  0.1126  0.9494
14540TIP3    H265112   3.295   3.097  13.729 -0.9028 -0.6526  0.9075
14541TIP3   OH265113   6.612   0.028   4.918 -0.4962 -0.2629  0.1999
14541TIP3    H165114   6.674   0.029   4.991  0.9828  0.8236 -0.9768
14541TIP3    H265115   6.655  -0.026   4.851 -1.7788 -1.1733  0.0729
14542TIP3   OH265116   3.148   1.435   1.350 -0.0256  0.2677  0.3871
14542TIP3    H165117   3.150   1.342   1.374 -1.7154 -0.1339 -0.8935
14542TIP3    H265118   3.055   1.454   1.335  0.4673  1.7022 -1.1016
14543TIP3   OH265119   2.377   2.675   2.726 -0.9077  0.0678  0.1454
14543TIP3    H165120   2.380   2.753   2.782  1.9245 -0.7821  1.3792
14543TIP3    H265121   2.355   2.604   2.787  2.6952 -0.9484  0.4779
14544TIP3   OH265122   5.005   4.734   3.932 -0.4647 -0.0313 -0.5620
14544TIP3    H165123   4.925   4.685   3.909 -2.0336  1.1991  1.9417
14544TIP3    H265124   5.051   4.677   3.993 -1.0777  0.5724  0.4831
14545TIP3   OH265125   2.027   5.247   1.591  0.6327 -0.0486  0.0620
14545TIP3    H165126   2.097   5.217   1.650 -0.3521 -2.4972  0.1111
14545TIP3    H265127   2.073   5.276   1.513  1.7643 -2.6706 -0.3654
14546TIP3   OH265128   4.018   1.325   6.096 -0.0975 -0.0524 -0.2289
14546TIP3    H165129   4.014   1.255   6.162 -0.2480 -0.2800 -0.4754
14546TIP3    H265130   4.080   1.388   6.131 -0.4254 -0.0136  0.2836
14547TIP3   OH265131   3.773   3.184  13.036 -0.0231  0.0192 -0.0815
14547TIP3    H165132   3.834   3.143  13.097  0.4094 -0.4718 -0.8324
14547TIP3    H265133   3.688   3.175  13.079  0.1699 -0.9864  0.1185
14548TIP3   OH265134   0.620   3.938  13.172  0.0746  0.2575 -0.1765
14548TIP3    H165135   0.561   3.863  13.172  1.3871 -0.8135 -0.5597
14548TIP3    H265136   0.570   4.008  13.129  0.0100 -1.4260 -3.0970
14549TIP3   OH265137   1.607   1.753   6.098  0.5056  0.0610  0.4009
14549TIP3    H165138   1.579   1.772   6.188  0.6098  0.0188  0.4435
14549TIP3    H265139   1.570   1.823   6.045 -0.7292 -0.6771  0.2615
14550TIP3   OH265140   2.257   2.146  12.224 -0.2759 -0.5249  0.0827
14550TIP3    H165141   2.181   2.126  12.279 -1.7643  2.6235 -0.6156
14550TIP3    H265142   2.332   2.135  12.282 -1.4690 -1.1626  1.5657
14551TIP3   OH265143   4.372   2.383   1.053 -0.1705 -0.0412 -0.2499
14551TIP3    H165144   4.379   2.379   0.957  1.4416  0.7120 -0.2003
14551TIP3    H265145   4.342   2.296   1.079 -2.3982  0.2659 -1.5374
14552TIP3   OH265146   2.206   3.443   2.632  0.2064 -0.0999 -0.3894
14552TIP3    H165147   2.298   3.439   2.657 -0.1025  0.4642  0.9411
14552TIP3    H265148   2.168   3.364   2.670 -0.0527  0.2010 -0.0118
14553TIP3   OH265149   1.755   6.755   3.393  0.0236 -0.1390  0.4361
14553TIP3    H165150   1.762   6.699   3.316  1.8283  0.0812  0.3937
14553TIP3    H265151   1.812   6.713   3.458 -1.6555 -0.4625  1.7682
14554TIP3   OH265152   2.794   4.232   3.079 -0.0189 -0.0117 -0.4378
14554TIP3    H165153   2.888   4.222   3.064 -0.1462  0.4026 -1.6461
14554TIP3    H265154   2.772   4.315   3.038 -1.1777 -0.8362 -1.5941
14555TIP3   OH265155   1.723   3.185   3.127 -0.1222 -0.0074  0.2754
14555TIP3    H165156   1.712   3.105   3.179  0.9091 -0.1400  0.3078
14555TIP3    H265157   1.788   3.236   3.175 -1.7926  1.5169  1.0053
14556TIP3   OH265158   5.654   3.150   1.780  0.2387  0.8158  0.6035
14556TIP3    H165159   5.684   3.161   1.870  0.1588  1.1207  0.5953
14556TIP3    H265160   5.690   3.225   1.734 -0.7001  1.3113  0.6414
14557TIP3   OH265161   3.947   5.943   3.330  0.2499  0.1396  0.3919
14557TIP3    H165162   3.939   5.891   3.250 -1.5972 -0.9559  1.2327
14557TIP3    H265163   3.898   6.023   3.312 -0.6937 -0.3771  0.6209
14558TIP3   OH265164   2.303   5.838   0.435 -0.6601  0.7112  0.4967
14558TIP3    H165165   2.314   5.745   0.456  0.1590  1.1104  2.0084
14558TIP3    H265166   2.281   5.839   0.342  2.2183 -0.8485 -0.3214
14559TIP3   OH265167   4.553   2.996  10.895  0.3291 -0.7469 -0.6011
14559TIP3    H165168   4.569   2.935  10.967  1.2165  0.4436  0.2592
14559TIP3    H265169   4.475   3.044  10.921  1.0803  0.2110 -0.0195
14560TIP3   OH265170   5.339   6.233   0.368 -0.8048 -0.0368  0.1106
14560TIP3    H165171   5.288   6.267   0.442  0.4222 -0.5117  1.2224
14560TIP3    H265172   5.275   6.221   0.298 -1.6969  2.2547  0.4348
14561TIP3   OH265173   2.569   4.361  12.044  0.1707  0.0784  0.3710
14561TIP3    H165174   2.555   4.300  11.972  0.0975 -1.9663  1.9875
14561TIP3    H265175   2.663   4.359  12.060  0.1509  0.2839  0.5195
14562TIP3   OH265176   2.780   4.714   4.329  0.1000  0.2584 -0.0743
14562TIP3    H165177   2.756   4.672   4.246  1.0574  0.6238 -0.5565
14562TIP3    H265178   2.753   4.805   4.319  0.0330  0.2572  0.0953
14563TIP3   OH265179   3.667   0.950  13.243  0.5159  0.4515  0.6547
14563TIP3    H165180   3.752   0.963  13.201  0.2767 -0.7003 -0.2344
14563TIP3    H265181   3.631   0.871  13.202 -0.8884  0.7850  1.1684
14564TIP3   OH265182   1.763   5.554   5.515 -0.3662 -0.3728 -0.1454
14564TIP3    H165183   1.825   5.568   5.443  0.1358  0.5404  0.4564
14564TIP3    H265184   1.749   5.640   5.552  0.7350 -1.0373  1.9623
14565TIP3   OH265185   2.935   6.199  14.069 -0.3383  0.2468  0.3102
14565TIP3    H165186   3.011   6.158  14.028  0.0289  0.5060  0.7157
14565TIP3    H265187   2.963   6.289  14.086 -1.2368  0.7854 -0.8627
14566TIP3   OH265188   5.284   0.212   1.194 -0.4018 -0.2734  0.2331
14566TIP3    H165189   5.310   0.124   1.165  2.2761  0.4656  0.1089
14566TIP3    H265190   5.214   0.237   1.134  0.6731 -1.2611 -1.5306
14567TIP3   OH265191   5.756   1.083   5.854 -0.7617 -0.0509 -0.1430
14567TIP3    H165192   5.740   1.079   5.949  0.1879  1.0948  0.0986
14567TIP3    H265193   5.703   1.156   5.824 -0.1654  0.3297 -0.2830
14568TIP3   OH265194   3.595   4.409  11.262  0.4185  0.1899  0.1638
14568TIP3    H165195   3.667   4.388  11.201 -0.7838  0.5322 -1.4458
14568TIP3    H265196   3.545   4.327  11.268  1.4926 -0.3706  2.1359
14569TIP3   OH265197   0.387   5.060  11.293  0.2023  0.0920 -0.4149
14569TIP3    H165198   0.423   5.028  11.211 -2.3715  0.2297 -1.6903
14569TIP3    H265199   0.337   5.138  11.269 -0.3573  0.3166  1.3452
14570TIP3   OH265200   1.527   6.153   3.958 -0.4470  0.7777 -0.0150
14570TIP3    H165201   1.453   6.147   4.018 -0.4396  0.2065 -0.0657
14570TIP3    H265202   1.591   6.207   4.005 -0.9884  1.4960 -0.0752
14571TIP3   OH265203   3.762   3.810   2.364  0.4743 -0.1242 -0.1833
14571TIP3    H165204   3.739   3.816   2.456 -1.3820 -2.3133 -0.4096
14571TIP3    H265205   3.684   3.841   2.317  1.8002  2.0790 -1.0822
14572TIP3   OH265206   4.560   6.249  11.751 -1.0687 -0.3274  0.0668
14572TIP3    H165207   4.609   6.177  11.712  0.6812  0.9202 -0.1657
14572TIP3    H265208   4.470   6.234  11.723 -0.7591 -2.3684 -0.0123
14573TIP3   OH265209   0.904   0.401   4.004 -0.5359  0.0026  0.2122
14573TIP3    H165210   0.854   0.320   4.014 -0.6416 -0.1397 -1.3160
14573TIP3    H265211   0.951   0.411   4.087 -1.1695 -1.1722  0.7279
14574TIP3   OH265212   5.374   3.340   4.738  0.0934  0.2216  0.3732
14574TIP3    H165213   5.355   3.352   4.831 -0.6265 -1.6678  0.5158
14574TIP3    H265214   5.432   3.413   4.716 -0.3371  1.1455  2.1009
14575TIP3   OH265215   2.729   5.738  16.813  0.3893  0.4436 -0.1139
14575TIP3    H165216   2.803   5.680  16.830 -1.1349 -1.1607  1.4939
14575TIP3    H265217   2.684   5.698  16.738  0.2515  0.4698 -0.0450
14576TIP3   OH265218   0.338   4.570   3.223  0.3353  0.3236 -0.0367
14576TIP3    H165219   0.355   4.506   3.154 -3.2980 -1.0295  0.1195
14576TIP3    H265220   0.245   4.591   3.214  0.7660  3.6393  1.6099
14577TIP3   OH265221   3.385   1.468   5.283  0.3162  0.4081 -0.2586
14577TIP3    H165222   3.448   1.513   5.340 -0.2174  1.6779 -0.6265
14577TIP3    H265223   3.365   1.532   5.215  0.0352 -0.6589 -1.2009
14578TIP3   OH265224   1.743   5.846  11.676 -0.6134  0.7653  0.5251
14578TIP3    H165225   1.802   5.778  11.645 -0.9987  0.2278  0.9502
14578TIP3    H265226   1.674   5.799  11.723  0.4809  1.5799  3.1286
14579TIP3   OH265227   6.408   4.372   4.755 -0.2214  0.0632  0.4453
14579TIP3    H165228   6.410   4.376   4.851  1.1736  1.5700  0.3990
14579TIP3    H265229   6.494   4.340   4.730 -0.4612 -0.0182 -0.3209
14580TIP3   OH265230   1.951   4.640   1.397  0.0586  0.1047 -0.0355
14580TIP3    H165231   1.955   4.715   1.456  0.1938 -1.6477  2.3305
14580TIP3    H265232   2.026   4.651   1.339  1.5473  0.5934  1.8725
14581TIP3   OH265233   2.756   5.473  11.206 -0.1893  0.0553 -0.1389
14581TIP3    H165234   2.733   5.405  11.269  1.0031 -1.3890 -1.1875
14581TIP3    H265235   2.705   5.549  11.233  0.2644 -0.4906  2.5443
14582TIP3   OH265236   2.590   0.361   5.280 -0.2332 -0.3891  0.5730
14582TIP3    H165237   2.664   0.415   5.253  2.0260 -3.3408  0.3762
14582TIP3    H265238   2.606   0.345   5.373 -1.0202 -0.5091  0.6908
14583TIP3   OH265239   5.480   6.019   2.546 -0.0582 -0.3870  0.0709
14583TIP3    H165240   5.510   6.089   2.489  0.6421  0.6368  1.6436
14583TIP3    H265241   5.466   5.945   2.487  2.6016 -0.0120 -1.2042
14584TIP3   OH265242   4.335   0.256   3.655  0.6240  0.3923  0.6283
14584TIP3    H165243   4.400   0.290   3.718 -0.0970  1.5210  0.7854
14584TIP3    H265244   4.387   0.205   3.593  1.4645 -0.0284  1.6462
14585TIP3   OH265245   6.674   3.326   0.572  0.1274 -0.4826 -0.1706
14585TIP3    H165246   6.618   3.360   0.641  0.0331 -1.8184  0.4406
14585TIP3    H265247   6.624   3.254   0.533  1.8063 -2.5105  1.1942
14586TIP3   OH265248   2.657   0.124   2.547  0.2571  0.2846 -0.1256
14586TIP3    H165249   2.578   0.157   2.591 -1.0661 -1.5073 -1.0111
14586TIP3    H265250   2.669   0.183   2.472  0.2698  1.0693  0.4855
14587TIP3   OH265251   4.349   3.199   5.741 -0.0096  0.0750  0.0478
14587TIP3    H165252   4.382   3.110   5.731  0.0551 -0.1431  1.9036
14587TIP3    H265253   4.424   3.255   5.717  0.7775 -0.4124  1.2417
14588TIP3   OH265254   1.765   2.262  14.930  0.0833  0.4191  0.1051
14588TIP3    H165255   1.796   2.330  14.990  1.0293  0.7309 -0.6958
14588TIP3    H265256   1.773   2.180  14.979 -0.0160  0.7721  0.7052
14589TIP3   OH265257   4.450   2.675  11.462 -0.3783 -0.0438  0.1468
14589TIP3    H165258   4.519   2.697  11.524  1.1748 -0.4089 -1.3745
14589TIP3    H265259   4.457   2.741  11.394 -1.3995 -0.2169 -0.1355
14590TIP3   OH265260   4.605   1.840  13.873 -0.3232 -0.0992  0.1777
14590TIP3    H165261   4.682   1.848  13.816  0.4167  1.0581  1.2968
14590TIP3    H265262   4.586   1.930  13.900  0.8751 -0.7409  3.7100
14591TIP3   OH265263   6.633   4.884  16.577 -0.1990  0.3396  0.5534
14591TIP3    H165264   6.715   4.836  16.585 -0.7054 -0.7228 -0.2917
14591TIP3    H265265   6.653   4.973  16.606  1.0392 -0.1082  1.1149
14592TIP3   OH265266   4.392   2.990   3.826  0.0992  0.4398 -0.0793
14592TIP3    H165267   4.306   3.031   3.821  0.0968  0.3552 -0.9232
14592TIP3    H265268   4.448   3.055   3.869 -0.1999  0.8207 -0.2667
14593TIP3   OH265269   6.451   6.506   0.367  0.3565 -0.6861 -0.2315
14593TIP3    H165270   6.433   6.596   0.394  1.1544 -0.4336 -0.4947
14593TIP3    H265271   6.449   6.509   0.271 -1.3709 -1.3409 -0.2471
14594TIP3   OH265272   5.246   3.527   4.123  0.2688 -0.3590 -0.0697
14594TIP3    H165273   5.288   3.442   4.132  2.4512  0.5803 -0.6817
14594TIP3    H265274   5.308   3.589   4.161  0.1231  1.2542 -2.2691
14595TIP3   OH265275   5.343   2.301  17.207  0.0254  0.4324  0.3046
14595TIP3    H165276   5.383   2.388  17.207  0.7060  0.1315 -0.0476
14595TIP3    H265277   5.384   2.256  17.133 -1.5285  0.3524 -0.5326
14596TIP3   OH265278   6.691   5.637  14.730  0.3339  0.2441  0.0256
14596TIP3    H165279   6.611   5.621  14.679  0.7399 -0.7820 -0.3161
14596TIP3    H265280   6.674   5.595  14.814 -0.5022  2.2960  0.9470
14597TIP3   OH265281   0.756   5.345  13.782  0.0318  0.1841 -0.2831
14597TIP3    H165282   0.722   5.259  13.759  0.2645  0.1690 -0.5762
14597TIP3    H265283   0.780   5.338  13.874 -1.3363  0.3774  0.1109
14598TIP3   OH265284   2.840   1.526   1.480  0.0901 -0.1459 -0.0736
14598TIP3    H165285   2.819   1.472   1.405  0.5619  3.2011 -2.8675
14598TIP3    H265286   2.758   1.569   1.504  0.3337  0.2635  0.0505
14599TIP3   OH265287   0.480   1.281  15.939  0.1016 -0.3503  0.4729
14599TIP3    H165288   0.501   1.207  15.882  1.0788  1.0958 -1.1451
14599TIP3    H265289   0.385   1.291  15.929  0.0862 -0.8541  0.0284
14600TIP3   OH265290   4.644   0.246   4.563 -0.2886 -0.0959 -0.3336
14600TIP3    H165291   4.711   0.196   4.609  0.7935  1.0763 -0.5670
14600TIP3    H265292   4.644   0.331   4.607 -1.2993  0.0794 -0.6507
14601TIP3   OH265293   5.830   4.965   1.234 -0.2577  0.1042 -0.1639
14601TIP3    H165294   5.923   4.968   1.214 -0.0716  0.7962  0.7220
14601TIP3    H265295   5.821   5.019   1.313 -1.3423 -0.3012  0.0051
14602TIP3   OH265296   3.728   4.607  12.258 -0.1523 -0.2974 -0.2814
14602TIP3    H165297   3.761   4.684  12.304  2.7650 -1.5434 -0.0803
14602TIP3    H265298   3.708   4.545  12.328 -3.0078  0.3590 -0.4083
14603TIP3   OH265299   6.774   0.651   0.868  0.7311  0.1537  0.4907
14603TIP3    H165300   6.679   0.636   0.865  1.0268 -1.9494 -2.8142
14603TIP3    H265301   6.810   0.573   0.909  1.1132  0.3995  0.6293
14604TIP3   OH265302   6.153   0.845  11.537 -0.3542 -0.0973  0.4080
14604TIP3    H165303   6.069   0.859  11.582 -0.0398 -1.3396  1.4227
14604TIP3    H265304   6.172   0.752  11.550  0.7159 -0.0411 -0.6471
14605TIP3   OH265305   5.645   5.920  14.073  0.1841  0.0631 -0.4021
14605TIP3    H165306   5.641   6.015  14.061 -0.6978  0.1512  0.4235
14605TIP3    H265307   5.555   5.890  14.056  0.1854 -0.4666  0.4593
14606TIP3   OH265308   3.683   6.357  12.670 -0.1191 -0.0401  0.1631
14606TIP3    H165309   3.686   6.278  12.617  2.3216 -0.1666  0.4045
14606TIP3    H265310   3.748   6.415  12.631 -2.1193  2.0797 -0.2575
14607TIP3   OH265311   4.231   2.459  13.020  0.4269 -0.4443 -0.1770
14607TIP3    H165312   4.289   2.514  13.072 -0.2060 -0.2811  0.3627
14607TIP3    H265313   4.288   2.422  12.952  1.3156 -0.9018  0.8003
14608TIP3   OH265314   6.742   2.338  12.337 -0.0041  0.2906 -0.0206
14608TIP3    H165315   6.757   2.403  12.267  0.7427 -0.7239 -0.8364
14608TIP3    H265316   6.823   2.287  12.339 -0.8238 -1.0258  0.1648
14609TIP3   OH265317   5.310   0.539   1.081 -0.0625  0.0662 -0.0117
14609TIP3    H165318   5.334   0.624   1.118 -0.8530  0.4237 -0.3152
14609TIP3    H265319   5.269   0.492   1.154 -0.2435  0.2008 -0.0257
14610TIP3   OH265320   1.717   4.039   3.884  0.0579  0.3905 -0.3065
14610TIP3    H165321   1.662   4.067   3.957  0.1808  1.0114 -0.4512
14610TIP3    H265322   1.725   3.944   3.896 -2.5921 -0.0571 -1.3170
14611TIP3   OH265323   0.044   4.617  12.908  0.4208  0.1674  0.3527
14611TIP3    H165324   0.059   4.653  12.821 -1.2570  1.5634  0.5868
14611TIP3    H265325  -0.046   4.584  12.905  0.2547  0.4576  1.6278
14612TIP3   OH265326   5.982   5.212   3.299  0.2403  0.1906 -0.7383
14612TIP3    H165327   5.890   5.233   3.284  0.2211 -1.2895 -3.3414
14612TIP3    H265328   5.991   5.123   3.265  2.5107  0.0676  0.0597
14613TIP3   OH265329   5.905   2.888  14.383 -0.5661 -0.4206 -0.2759
14613TIP3    H165330   5.891   2.976  14.350 -1.7381 -1.5833 -3.2227
14613TIP3    H265331   5.885   2.831  14.309  1.4532 -3.1437  1.0864
14614TIP3   OH265332   0.731   5.060  16.785  0.5390  0.0570  0.5002
14614TIP3    H165333   0.811   5.014  16.812 -0.1737 -1.7886 -0.3519
14614TIP3    H265334   0.749   5.089  16.695  0.4207  0.0657  0.4805
14615TIP3   OH265335   6.237   4.923   1.731  0.1054  0.5109  0.2936
14615TIP3    H165336   6.242   4.850   1.669  0.8617  1.1281 -0.3911
14615TIP3    H265337   6.240   5.001   1.676 -0.7571  1.0688  1.0159
14616TIP3   OH265338   3.397   0.664   5.804 -0.2931 -0.1015  0.4705
14616TIP3    H165339   3.452   0.586   5.799  0.2475  0.0407  2.9421
14616TIP3    H265340   3.321   0.637   5.856 -0.2082  0.9349  1.1722
14617TIP3   OH265341   2.301   5.490  16.871  0.0123  0.7609  0.2477
14617TIP3    H165342   2.349   5.459  16.794 -0.1322  0.3574  0.3195
14617TIP3    H265343   2.209   5.475  16.849 -0.1286  2.0270 -0.1071
14618TIP3   OH265344   2.962   5.448  13.897 -0.2668  0.2694  0.0915
14618TIP3    H165345   2.992   5.415  13.982 -2.6405 -1.5647  0.3234
14618TIP3    H265346   3.039   5.441  13.841  0.9692  0.1554  1.6994
14619TIP3   OH265347   5.239   0.669   1.600 -0.3899 -0.7221 -0.2531
14619TIP3    H165348   5.242   0.575   1.581 -0.5172 -0.6394 -0.7031
14619TIP3    H265349   5.331   0.697   1.595 -0.4428 -0.6591 -1.0042
14620TIP3   OH265350   6.695   0.096  15.854  0.1064 -0.6803  0.2266
14620TIP3    H165351   6.669   0.061  15.940 -0.6592  0.4565  0.4762
14620TIP3    H265352   6.785   0.067  15.843 -0.3063 -2.2239  0.6814
14621TIP3   OH265353   6.064   6.418   0.195  0.4670  0.2204  0.3225
14621TIP3    H165354   6.095   6.486   0.135 -0.9867 -0.3476 -1.1382
14621TIP3    H265355   5.974   6.444   0.216 -0.3525 -1.5399 -0.7730
14622TIP3   OH265356   2.207   6.204  14.056  0.0478  0.5016  0.4811
14622TIP3    H165357   2.295   6.173  14.036 -0.5125 -1.7643  1.2880
14622TIP3    H265358   2.176   6.244  13.975  1.8559  1.5294  0.2413
14623TIP3   OH265359   6.788   6.200  12.897 -0.3046  0.0415 -0.0514
14623TIP3    H165360   6.706   6.241  12.871 -0.0960  0.9734  0.6916
14623TIP3    H265361   6.834   6.184  12.815 -1.2408 -0.5362 -0.4772
14624TIP3   OH265362   0.086   1.024   3.883 -0.0692  0.3201 -0.1844
14624TIP3    H165363   0.009   1.075   3.858 -1.2229 -1.3288 -0.2023
14624TIP3    H265364   0.157   1.059   3.829 -1.4755 -0.0704 -2.4432
14625TIP3   OH265365   1.575   1.706  14.586 -0.0124  0.8251  0.3693
14625TIP3    H165366   1.502   1.766  14.597 -0.1932  0.6167  0.3090
14625TIP3    H265367   1.626   1.742  14.513 -1.6119 -0.5675 -1.5269
14626TIP3   OH265368   5.154   0.011   2.562 -0.1037 -0.6632 -0.2471
14626TIP3    H165369   5.240   0.003   2.519  0.8905  1.6185  1.1389
14626TIP3    H265370   5.104   0.067   2.504 -0.2131 -0.9256 -0.4095
14627TIP3   OH265371   1.747   0.234  15.235 -0.3844  0.0288 -0.1540
14627TIP3    H165372   1.797   0.205  15.312  1.0604  0.2281 -0.9923
14627TIP3    H265373   1.702   0.313  15.264 -1.1601 -0.7680  0.9501
14628TIP3   OH265374   4.713   1.184  14.323 -0.0276 -0.2302 -0.2999
14628TIP3    H165375   4.645   1.119  14.306 -1.4800  1.1207  0.0474
14628TIP3    H265376   4.745   1.209  14.236 -0.3574 -0.4892 -0.4986
14629TIP3   OH265377   3.961   3.062  13.196  0.1119  0.9909 -0.5177
14629TIP3    H165378   4.053   3.068  13.172 -0.4737  0.8613 -3.0313
14629TIP3    H265379   3.944   2.968  13.204  0.6140  1.0432  2.0221
14630TIP3   OH265380   1.862   2.231   1.764 -0.3878 -0.2303  0.3344
14630TIP3    H165381   1.938   2.173   1.777 -0.6486 -0.3728  1.3929
14630TIP3    H265382   1.793   2.191   1.818 -1.7455 -1.0115 -1.8523
14631TIP3   OH265383   4.640   4.466  13.117 -0.1316 -0.5408  0.1450
14631TIP3    H165384   4.725   4.503  13.140 -0.6995  0.9034  0.0266
14631TIP3    H265385   4.661   4.390  13.063  1.0880  0.1110 -0.3483
14632TIP3   OH265386   6.755   5.041  13.374 -0.2482 -0.0981  0.1720
14632TIP3    H165387   6.849   5.028  13.360  0.0977 -0.0399  2.2031
14632TIP3    H265388   6.724   4.957  13.407 -0.2951  0.7238  2.3238
14633TIP3   OH265389   5.355   0.250   5.038 -0.2081 -0.3607 -0.1767
14633TIP3    H165390   5.373   0.342   5.019  3.2334 -0.7989  0.3142
14633TIP3    H265391   5.305   0.218   4.962  1.3209  1.1653 -1.9104
14634TIP3   OH265392   1.892   1.652   3.251  0.3466  0.4376 -0.5626
14634TIP3    H165393   1.860   1.687   3.334  1.7344  0.7693 -0.1550
14634TIP3    H265394   1.955   1.584   3.276  0.5176  0.2928 -1.3504
14635TIP3   OH265395   4.238   2.349   2.838 -0.3275 -0.6298 -0.6110
14635TIP3    H165396   4.195   2.284   2.894  0.9798 -1.4962 -0.5743
14635TIP3    H265397   4.303   2.390   2.895  0.0309 -0.5103 -1.0973
14636TIP3   OH265398   6.328   4.125   5.694 -0.6292  0.6017  0.2647
14636TIP3    H165399   6.389   4.055   5.669 -0.5124  1.3466 -1.6846
14636TIP3    H265400   6.243   4.081   5.704 -0.2451 -0.0606  0.6692
14637TIP3   OH265401   3.055   5.057  16.424  0.5173  0.0446 -0.4302
14637TIP3    H165402   2.960   5.053  16.431  0.5309  0.0189 -0.2496
14637TIP3    H265403   3.086   5.050  16.514  0.7343 -0.9966 -0.5781
14638TIP3   OH265404   2.543   1.066  16.656 -0.2041 -0.3326  0.1597
14638TIP3    H165405   2.548   1.065  16.560  0.5416  1.4371  0.1499
14638TIP3    H265406   2.476   1.131  16.676 -0.5872 -0.9167  0.8689
14639TIP3   OH265407   2.391   0.376  15.543 -0.0461  0.9531 -0.0893
14639TIP3    H165408   2.346   0.452  15.582 -1.6584  0.3210 -0.6205
14639TIP3    H265409   2.448   0.344  15.612 -0.4559  1.7584  0.6535
14640TIP3   OH265410   3.026   4.246   3.722  0.4506 -0.6367  0.3726
14640TIP3    H165411   2.956   4.310   3.734 -0.9225 -2.0482  0.2583
14640TIP3    H265412   3.023   4.225   3.628  1.2464 -0.4954  0.3072
14641TIP3   OH265413   6.281   4.401  14.738 -0.2787 -0.3710  0.0401
14641TIP3    H165414   6.286   4.461  14.664 -1.3951 -1.1897 -0.7287
14641TIP3    H265415   6.224   4.445  14.801 -0.3444 -0.2269 -0.1198
14642TIP3   OH265416   1.171   6.010   5.904  0.0404  0.7934 -0.2730
14642TIP3    H165417   1.113   5.973   5.971 -1.9579 -0.5108 -2.5563
14642TIP3    H265418   1.254   5.963   5.916 -0.5156  0.0449  0.8249
14643TIP3   OH265419   4.776   0.869  12.965  0.7657  0.4714 -0.2530
14643TIP3    H165420   4.704   0.821  13.006 -1.7255  1.9128 -2.5563
14643TIP3    H265421   4.833   0.894  13.038 -1.7212  0.2981  1.9188
14644TIP3   OH265422   5.107   6.344  16.442 -0.2963  0.1900  0.0978
14644TIP3    H165423   5.042   6.340  16.372 -0.7084 -4.2955  0.4288
14644TIP3    H265424   5.056   6.349  16.522 -0.1100 -0.5947  0.2696
14645TIP3   OH265425   6.800   0.905  16.616 -0.4772 -0.2428 -0.5574
14645TIP3    H165426   6.745   0.919  16.693 -0.0572 -0.6223 -0.1791
14645TIP3    H265427   6.840   0.990  16.599 -0.2263 -0.2641 -0.0835
14646TIP3   OH265428   5.905   4.454  14.085  0.2464 -0.0760 -0.1273
14646TIP3    H165429   5.873   4.364  14.086  0.0635 -0.0186 -0.5340
14646TIP3    H265430   5.967   4.459  14.157 -0.5300 -0.2426  0.5582
14647TIP3   OH265431   5.857   5.457   2.251  0.0786  0.0862 -0.3334
14647TIP3    H165432   5.888   5.541   2.217  0.8887  0.1165  0.4395
14647TIP3    H265433   5.846   5.402   2.173  0.1411  0.7147 -0.7902
14648TIP3   OH265434   3.836   6.025  14.020  0.1525  0.3647  0.6395
14648TIP3    H165435   3.832   6.117  13.995  1.9082  0.0605 -0.9696
14648TIP3    H265436   3.861   6.026  14.113 -1.6097  1.4816  1.1395
14649TIP3   OH265437   5.325   3.866  14.014  0.3903 -0.4050 -0.0163
14649TIP3    H165438   5.330   3.879  13.919 -1.6483 -0.0607 -0.1247
14649TIP3    H265439   5.415   3.872  14.044  1.0866 -0.5457 -1.9349
14650TIP3   OH265440   1.290   5.128   0.047  0.0094 -0.1139  0.1790
14650TIP3    H165441   1.211   5.124   0.100 -0.1802  0.2280 -0.0715
14650TIP3    H265442   1.319   5.037   0.040 -0.8615 -0.3512 -0.4810
14651TIP3   OH265443   0.433   3.220   6.064 -0.2788  0.1794 -0.2289
14651TIP3    H165444   0.442   3.194   6.156 -0.4904 -0.0081 -0.2593
14651TIP3    H265445   0.464   3.144   6.015 -2.3631 -0.6738 -0.3444
14652TIP3   OH265446   2.921   4.149  12.510 -0.4304  0.3624 -0.2265
14652TIP3    H165447   3.012   4.137  12.483 -0.2433 -0.2477  0.6210
14652TIP3    H265448   2.906   4.081  12.576 -1.1471  1.1939  0.4971
14653TIP3   OH265449   5.818   6.774   5.350  0.0805  0.7396  0.4583
14653TIP3    H165450   5.744   6.728   5.389  1.8348 -2.2325  0.5779
14653TIP3    H265451   5.869   6.805   5.426 -0.0417  1.0839  0.4019
14654TIP3   OH265452   3.650   2.189  12.924 -0.0886 -0.2265 -0.2523
14654TIP3    H165453   3.566   2.160  12.890 -0.6280 -1.3712  1.9313
14654TIP3    H265454   3.649   2.167  13.017  2.3672  0.3204 -0.0047
14655TIP3   OH265455   2.714   4.068  15.861  0.0181 -0.2255  0.5555
14655TIP3    H165456   2.657   4.073  15.938  0.6293  1.3909  0.9610
14655TIP3    H265457   2.666   4.117  15.794 -0.6493 -1.8858 -0.2188
14656TIP3   OH265458   0.999   0.658  12.920  0.0526 -0.3835 -0.2593
14656TIP3    H165459   0.956   0.735  12.885 -0.5860 -0.8463 -0.5145
14656TIP3    H265460   0.971   0.586  12.863  0.7327 -0.7910 -0.1036
14657TIP3   OH265461   1.979   3.104  11.641  0.3067 -0.4177  0.6350
14657TIP3    H165462   1.889   3.099  11.673  0.0976  0.1016  0.1431
14657TIP3    H265463   2.029   3.137  11.715  0.6919 -3.6718  2.0213
14658TIP3   OH265464   4.264   4.300  12.569  0.5049 -0.2075 -0.1036
14658TIP3    H165465   4.310   4.260  12.644  1.4470  0.6881 -0.1778
14658TIP3    H265466   4.232   4.384  12.603  0.1937 -0.1738 -0.4736
14659TIP3   OH265467   3.187   3.418  13.572  0.1008  0.3283  0.0772
14659TIP3    H165468   3.220   3.328  13.573 -0.5143  0.0099 -2.4484
14659TIP3    H265469   3.125   3.421  13.646  0.8869 -0.9919  0.8387
14660TIP3   OH265470   2.698   3.032  16.650 -0.3543  0.0110 -0.5340
14660TIP3    H165471   2.604   3.040  16.664 -0.3244  1.1100 -0.9097
14660TIP3    H265472   2.734   3.017  16.737 -0.7965  0.3666 -0.2853
14661TIP3   OH265473   6.087   2.984   2.525 -0.5313  0.2303  0.0002
14661TIP3    H165474   6.055   3.043   2.594 -0.4653 -0.8161  0.9442
14661TIP3    H265475   6.119   2.907   2.572 -0.7746 -0.6378 -1.2218
14662TIP3   OH265476   1.354   3.759   5.579 -0.0071 -0.6754 -0.0285
14662TIP3    H165477   1.338   3.675   5.622 -0.0369 -0.0421  1.2562
14662TIP3    H265478   1.376   3.818   5.651 -2.3248  0.9874 -0.5754
14663TIP3   OH265479   0.137   5.665  14.698 -0.1945  0.0594  0.1721
14663TIP3    H165480   0.165   5.695  14.785 -0.1287  2.9462 -0.7223
14663TIP3    H265481   0.043   5.680  14.696 -0.1057  0.6022 -0.4375
14664TIP3   OH265482   3.231   3.025   2.003  0.0692 -0.1828 -0.4346
14664TIP3    H165483   3.310   3.077   1.988  2.1296 -2.8406  0.4190
14664TIP3    H265484   3.197   3.007   1.915  0.9654  0.2536 -0.8833
14665TIP3   OH265485   6.542   1.105   0.094 -0.0138  0.3167 -0.4069
14665TIP3    H165486   6.471   1.047   0.122 -0.4029  1.8080  2.0158
14665TIP3    H265487   6.497   1.181   0.058  0.3695  0.6927 -0.1071
14666TIP3   OH265488   4.098   6.666   2.867 -0.0011 -0.1869 -0.0371
14666TIP3    H165489   4.149   6.700   2.794 -1.6427 -0.5036 -1.3728
14666TIP3    H265490   4.123   6.574   2.873 -0.7703 -0.4762 -1.0365
14667TIP3   OH265491   0.419   1.990  16.023  0.4092 -0.4591  0.3530
14667TIP3    H165492   0.443   2.028  16.107  0.3489 -0.1143  0.2206
14667TIP3    H265493   0.338   1.942  16.041  0.3309 -0.2862  0.4670
14668TIP3   OH265494   5.417   4.577   4.177  0.4096  0.1146 -0.8578
14668TIP3    H165495   5.496   4.541   4.218 -0.4328  0.8559  1.5426
14668TIP3    H265496   5.404   4.522   4.099  0.9632 -2.7580  0.9162
14669TIP3   OH265497   1.501   0.770  16.935 -0.0538 -0.4948 -0.0011
14669TIP3    H165498   1.454   0.820  17.002  0.4693 -0.3509  0.2605
14669TIP3    H265499   1.463   0.682  16.940 -0.5202 -0.2992 -0.0156
14670TIP3   OH265500   5.089   6.558   1.862  0.4526  0.0667  0.2302
14670TIP3    H165501   5.044   6.607   1.931  0.5215  1.1125 -0.4425
14670TIP3    H265502   5.174   6.536   1.900 -0.1099 -0.7506  1.0303
14671TIP3   OH265503   4.085   4.396  12.917  0.0679 -0.6058 -0.0595
14671TIP3    H165504   4.055   4.311  12.884  2.8184 -0.9360 -1.9865
14671TIP3    H265505   4.029   4.460  12.872  1.4932 -1.2298 -2.9280
14672TIP3   OH265506   6.078   2.740   5.068 -0.0136  0.2435  0.1228
14672TIP3    H165507   6.067   2.733   4.974  1.4335  1.7849 -0.2077
14672TIP3    H265508   5.989   2.745   5.102 -0.5352  1.2491 -1.3182
14673TIP3   OH265509   4.908   3.600  15.183  0.5129  0.6593  0.0596
14673TIP3    H165510   4.936   3.684  15.219  1.3627  0.5933 -0.4114
14673TIP3    H265511   4.960   3.535  15.231  0.4292  0.4571 -0.1199
14674TIP3   OH265512   4.484   0.906  15.810  0.0212 -0.1113 -0.6212
14674TIP3    H165513   4.463   0.870  15.897  0.2556 -1.2204 -1.0038
14674TIP3    H265514   4.429   0.857  15.750 -2.5324  2.7952 -0.8964
14675TIP3   OH265515   1.076   4.933   0.869  0.0421  0.0400  0.0175
14675TIP3    H165516   1.072   5.006   0.808  1.6863 -1.0104 -1.4850
14675TIP3    H265517   1.164   4.940   0.909  0.0616 -0.8658  0.1565
14676TIP3   OH265518   3.189   1.111   4.747 -0.8642 -0.0869  0.4117
14676TIP3    H165519   3.182   1.033   4.803  0.0262 -0.3462  0.1804
14676TIP3    H265520   3.243   1.171   4.798  0.8761 -0.7429 -0.5918
14677TIP3   OH265521   1.139   4.216   2.567 -0.0193 -0.0917  0.8427
14677TIP3    H165522   1.224   4.204   2.524 -0.5289  0.4122 -0.3496
14677TIP3    H265523   1.136   4.147   2.633  1.0093 -0.5790  0.4064
14678TIP3   OH265524   4.138   1.020   1.932 -0.0269 -0.5830  0.0760
14678TIP3    H165525   4.114   1.064   2.014  0.7911  0.2431 -0.1166
14678TIP3    H265526   4.224   1.055   1.910 -0.8770  0.4007 -1.9684
14679TIP3   OH265527   1.618   3.439  13.631  0.1592 -0.5198  0.2706
14679TIP3    H165528   1.559   3.414  13.560 -1.1161  0.6003  0.8971
14679TIP3    H265529   1.590   3.385  13.705  0.8410 -0.9738  0.2098
14680TIP3   OH265530   4.989   5.309  14.611 -0.7391  0.2786  0.9245
14680TIP3    H165531   4.895   5.306  14.596 -0.4813 -0.0449 -0.7884
14680TIP3    H265532   5.023   5.370  14.546  0.3479 -0.3101  0.9084
14681TIP3   OH265533   0.826   1.965   3.496  0.2823  0.3531  0.4181
14681TIP3    H165534   0.812   1.939   3.405  0.7598  3.3980 -0.6531
14681TIP3    H265535   0.760   1.918   3.546 -1.3135  0.1189 -1.8061
14682TIP3   OH265536   6.310   4.742  16.113 -0.7731  0.1455  0.2973
14682TIP3    H165537   6.327   4.836  16.112 -2.0894  0.4124  0.8947
14682TIP3    H265538   6.323   4.714  16.022 -1.2272  1.0649 -0.0571
14683TIP3   OH265539   3.728   5.372  15.566 -0.4010 -0.2616 -0.1989
14683TIP3    H165540   3.722   5.376  15.471 -0.7023 -0.7657 -0.2039
14683TIP3    H265541   3.717   5.463  15.594 -0.1498 -0.0898 -0.6520
14684TIP3   OH265542   3.494   6.153   6.097  0.4038 -0.5722 -0.4464
14684TIP3    H165543   3.438   6.107   6.160 -0.4043 -1.2758 -1.6259
14684TIP3    H265544   3.433   6.208   6.048  1.0144 -0.0696 -0.6418
14685TIP3   OH265545   1.693   4.492  11.511  0.1096  0.0962  0.0608
14685TIP3    H165546   1.658   4.501  11.423  0.4245  2.2926  0.0960
14685TIP3    H265547   1.766   4.432  11.502 -1.0270 -1.2265 -0.7835
14686TIP3   OH265548   0.621   5.947  14.592  0.4624 -0.0142  0.0155
14686TIP3    H165549   0.600   5.963  14.500  0.2874  2.2958  0.3934
14686TIP3    H265550   0.589   6.025  14.637  1.5317 -0.6044  1.8857
14687TIP3   OH265551   3.074   2.662   0.187 -0.1698 -0.1803 -0.1200
14687TIP3    H165552   3.055   2.569   0.199  0.2076 -0.0460  2.0403
14687TIP3    H265553   3.030   2.686   0.106 -1.5064 -1.9064  0.0473
14688TIP3   OH265554   5.319   3.333   4.451  0.5649  0.1427  0.7041
14688TIP3    H165555   5.281   3.352   4.537 -0.6414 -2.4438  0.8132
14688TIP3    H265556   5.253   3.363   4.389 -0.1118 -1.0549  0.8102
14689TIP3   OH265557   2.760   2.970  12.876  0.1031 -0.1241  0.1014
14689TIP3    H165558   2.846   2.928  12.886 -0.2694 -0.5865  1.4949
14689TIP3    H265559   2.781   3.064  12.867  0.7502 -0.2146  0.5442
14690TIP3   OH265560   5.892   1.699  14.915  0.1921 -0.1466  0.8506
14690TIP3    H165561   5.881   1.680  14.822  0.2768 -0.8595  0.9779
14690TIP3    H265562   5.976   1.745  14.921 -0.3471  0.9230  0.4520
14691TIP3   OH265563   5.649   5.770  11.542 -0.3343 -0.0601 -0.3125
14691TIP3    H165564   5.621   5.741  11.456  1.8701  0.8149 -1.3980
14691TIP3    H265565   5.604   5.854  11.555  0.1801  0.3530 -1.1336
14692TIP3   OH265566   6.581   5.794  15.449  0.5393  0.1100 -0.4838
14692TIP3    H165567   6.536   5.799  15.533  2.6064 -2.3856  0.9308
14692TIP3    H265568   6.540   5.719  15.404  2.9203 -2.0997  0.7626
14693TIP3   OH265569   2.910   5.586   1.773 -0.0359  0.3618  0.3652
14693TIP3    H165570   2.832   5.533   1.752  0.9243 -1.3878  0.9566
14693TIP3    H265571   2.880   5.676   1.765 -1.1459 -0.1375 -3.1262
14694TIP3   OH265572   0.684   5.387  15.986 -0.0388 -0.2101 -0.0693
14694TIP3    H165573   0.712   5.418  15.900  0.0169 -0.9331 -0.3201
14694TIP3    H265574   0.742   5.432  16.048 -0.8659  1.2347 -0.3144
14695TIP3   OH265575   4.273   5.729  14.188  0.4796 -0.3179 -0.6559
14695TIP3    H165576   4.180   5.746  14.179  0.4616  0.8815  1.2959
14695TIP3    H265577   4.295   5.673  14.113 -1.7108 -0.3456 -1.3275
14696TIP3   OH265578   5.499   2.848  13.948 -0.0053  0.1511 -0.2400
14696TIP3    H165579   5.528   2.937  13.967  2.0894 -0.2924 -1.0980
14696TIP3    H265580   5.572   2.809  13.900 -1.0479 -1.9011 -0.2477
14697TIP3   OH265581   5.459   0.830   0.648 -0.5651  0.4311 -0.0736
14697TIP3    H165582   5.496   0.753   0.691  0.6754  1.6565  1.1701
14697TIP3    H265583   5.452   0.896   0.717 -0.8146  1.6986 -1.2542
14698TIP3   OH265584   6.445   6.700  17.120 -0.2614 -0.1043  0.5481
14698TIP3    H165585   6.494   6.780  17.140  1.2903 -0.7516 -0.4799
14698TIP3    H265586   6.445   6.695  17.024 -0.6509 -1.1557  0.5880
14699TIP3   OH265587   6.786   5.025  11.037  0.0262  0.9063 -0.0008
14699TIP3    H165588   6.710   5.081  11.020 -0.2764  0.5713  0.2265
14699TIP3    H265589   6.823   5.058  11.119 -0.4483  0.4700  0.4005
14700TIP3   OH265590   6.685   0.152   2.596  0.0293  0.4618 -0.4213
14700TIP3    H165591   6.657   0.077   2.650  0.1097 -0.1773 -1.2477
14700TIP3    H265592   6.778   0.135   2.579  0.6250  1.8655  1.1647
14701TIP3   OH265593   6.303   5.069   2.484  0.0093  0.7014  0.1601
14701TIP3    H165594   6.304   5.128   2.408  0.4365  1.6642  0.9040
14701TIP3    H265595   6.259   5.119   2.553  0.8642  0.3746  0.9660
14702TIP3   OH265596   5.649   1.265   4.661 -0.0686 -0.4866 -0.3102
14702TIP3    H165597   5.657   1.349   4.614  0.1675  0.0106  0.6007
14702TIP3    H265598   5.737   1.249   4.695 -0.8471  0.7792  2.6419
14703TIP3   OH265599   5.581   4.745  15.615 -0.2163  0.3974 -0.4304
14703TIP3    H165600   5.661   4.789  15.646 -0.7293  1.8322 -1.0727
14703TIP3    H265601   5.516   4.766  15.682 -0.2263 -0.2136 -0.2471
14704TIP3   OH265602   2.492   2.390  12.980  0.1195  0.2187  0.3786
14704TIP3    H165603   2.413   2.443  12.991  0.4957  0.4985  2.0757
14704TIP3    H265604   2.478   2.315  13.038  1.6327  0.9504  1.7823
14705TIP3   OH265605   1.673   3.655   2.597  0.0716 -0.2511 -0.1405
14705TIP3    H165606   1.714   3.638   2.512  1.9983 -1.7953  1.0169
14705TIP3    H265607   1.735   3.711   2.643 -0.8526  0.3811  0.3745
14706TIP3   OH265608   6.479   4.018  17.035  0.2731 -0.2059  0.4331
14706TIP3    H165609   6.413   3.951  17.020  1.1207 -0.5587 -2.1790
14706TIP3    H265610   6.431   4.090  17.075 -1.4022 -0.9729 -0.1077
14707TIP3   OH265611   1.009   1.762   4.280 -0.0268 -0.3625 -0.5931
14707TIP3    H165612   1.082   1.727   4.331 -0.4162 -0.1033  0.1714
14707TIP3    H265613   0.932   1.722   4.320 -0.6271  2.4318  1.3227
14708TIP3   OH265614   0.763   1.482  12.344  1.1891  0.4463  0.1576
14708TIP3    H165615   0.706   1.525  12.408 -0.3362  2.3927 -2.3411
14708TIP3    H265616   0.842   1.536  12.342  1.9858 -0.5909  1.5130
14709TIP3   OH265617   4.529   1.747  12.883 -0.1170  0.2406  0.0709
14709TIP3    H165618   4.609   1.696  12.892  0.5950  1.3067 -0.0451
14709TIP3    H265619   4.460   1.682  12.867  0.9527 -0.5961 -1.3504
14710TIP3   OH265620   0.924   3.224   3.918 -0.1488 -0.0298 -0.4449
14710TIP3    H165621   0.870   3.194   3.844  0.2086 -0.5316 -0.5142
14710TIP3    H265622   0.922   3.319   3.912  0.2409 -0.0611 -1.3847
14711TIP3   OH265623   1.150   0.227  10.865 -0.7175 -0.1945  0.1731
14711TIP3    H165624   1.074   0.181  10.829  0.8602 -2.5358 -0.3550
14711TIP3    H265625   1.177   0.286  10.795 -0.3752 -1.4522 -0.8032
14712TIP3   OH265626   0.068   5.035  16.935 -0.0866  0.1708 -0.3290
14712TIP3    H165627   0.062   5.130  16.926 -0.0586  0.0664 -1.6746
14712TIP3    H265628   0.127   5.008  16.864  1.7664 -0.6483  1.4170
14713TIP3   OH265629   0.146   1.685  11.760  0.4525 -0.2934 -0.1740
14713TIP3    H165630   0.070   1.640  11.797  0.3590  0.3725  0.4786
14713TIP3    H265631   0.114   1.774  11.742  0.6709 -0.4260 -1.2949
14714TIP3   OH265632   1.741   1.446   0.186  0.1741  0.7249 -0.2166
14714TIP3    H165633   1.692   1.517   0.147  0.5398  0.6418 -0.8368
14714TIP3    H265634   1.682   1.409   0.252 -0.4925  0.7847 -0.7746
14715TIP3   OH265635   3.148   2.001  13.599  0.1480 -0.0489 -0.3127
14715TIP3    H165636   3.166   2.011  13.505  1.8438  0.2813  0.0030
14715TIP3    H265637   3.209   1.933  13.627 -0.5198 -0.3169  0.5081
14716TIP3   OH265638   6.406   4.035  14.708  0.2535  0.3231 -0.2309
14716TIP3    H165639   6.355   3.978  14.650 -0.3018 -0.9158  1.3870
14716TIP3    H265640   6.350   4.046  14.785  2.0816 -0.3917  1.2504
14717TIP3   OH265641   6.213   0.161   0.766  0.1195 -0.4585 -0.2838
14717TIP3    H165642   6.211   0.065   0.756 -0.5197 -0.4973  0.1670
14717TIP3    H265643   6.131   0.191   0.727  0.3357 -0.0861 -0.4571
14718TIP3   OH265644   0.010   2.802   2.496 -0.4691  0.2346  0.1364
14718TIP3    H165645  -0.001   2.722   2.548  0.3425 -0.2495 -0.4308
14718TIP3    H265646   0.085   2.785   2.440  1.3424  2.3173  1.7590
14719TIP3   OH265647   2.245   1.777   0.823  0.0685 -0.5504  0.0920
14719TIP3    H165648   2.204   1.804   0.905 -0.3332 -0.0845 -0.2518
14719TIP3    H265649   2.327   1.736   0.849 -0.4715 -1.2338  0.7872
14720TIP3   OH265650   5.685   6.036  12.237 -0.2533  0.7630 -0.2233
14720TIP3    H165651   5.669   6.012  12.328  0.2070 -0.3479 -0.4174
14720TIP3    H265652   5.712   6.128  12.240 -0.8511  0.9151  0.6898
14721TIP3   OH265653   4.075   5.505   0.533  0.3714  0.1335 -0.7967
14721TIP3    H165654   4.143   5.515   0.599 -0.5338  0.1187  0.1699
14721TIP3    H265655   4.098   5.426   0.486  1.2352  0.3467 -0.7385
14722TIP3   OH265656   0.751   0.395   1.410  0.3302 -0.0458  0.0974
14722TIP3    H165657   0.661   0.363   1.402  1.1402 -2.7422  0.8647
14722TIP3    H265658   0.796   0.327   1.460  2.6687  1.5302  0.2636
14723TIP3   OH265659   0.038   2.426   3.769  0.2940  0.4668  0.2576
14723TIP3    H165660  -0.049   2.388   3.781 -0.8147  2.3246 -1.3443
14723TIP3    H265661   0.077   2.374   3.698 -0.5647  1.1909 -0.7856
14724TIP3   OH265662   5.583   5.221   0.855  0.0005 -0.0908 -0.6195
14724TIP3    H165663   5.499   5.204   0.897  0.6146  0.8219  1.0729
14724TIP3    H265664   5.561   5.265   0.774 -1.1447  0.7372  0.1169
14725TIP3   OH265665   4.214   4.846  16.871 -0.2426  0.4223 -0.2986
14725TIP3    H165666   4.223   4.751  16.874  0.8031  0.4903 -0.8340
14725TIP3    H265667   4.176   4.869  16.956  1.5368 -0.2655  0.7338
14726TIP3   OH265668   1.470   6.424  16.562 -0.0674 -0.0658  0.0830
14726TIP3    H165669   1.463   6.519  16.549  0.0314 -0.0062  0.4581
14726TIP3    H265670   1.380   6.394  16.567 -0.1384 -0.2445 -1.8001
14727TIP3   OH265671   1.308   5.246   1.595 -0.1295  0.3566 -0.3787
14727TIP3    H165672   1.372   5.214   1.531 -0.5471 -1.8401  0.2274
14727TIP3    H265673   1.244   5.176   1.603 -1.5091  1.6440  0.5789
14728TIP3   OH265674   4.312   0.526   0.812  0.1668  0.5982  0.4230
14728TIP3    H165675   4.242   0.517   0.876 -1.7144  0.7286 -1.5057
14728TIP3    H265676   4.371   0.453   0.831  0.2581  1.2271  2.8930
14729TIP3   OH265677   6.478   6.553   0.879 -0.3033  0.4405 -0.6361
14729TIP3    H165678   6.512   6.526   0.794 -1.3131 -0.8367 -0.6751
14729TIP3    H265679   6.434   6.636   0.863 -0.3097  0.3070 -1.3282
14730TIP3   OH265680   4.683   3.377   4.292 -0.5810  0.0251 -0.0901
14730TIP3    H165681   4.607   3.434   4.289 -0.1626  0.5936 -0.0277
14730TIP3    H265682   4.695   3.357   4.385  2.0585  3.6885  0.5671
14731TIP3   OH265683   4.917   0.845  14.344 -0.3163  0.3646 -0.1719
14731TIP3    H165684   4.898   0.894  14.264 -1.3022 -0.0652 -0.2135
14731TIP3    H265685   5.011   0.858  14.359 -0.1265  0.4632 -1.3867
14732TIP3   OH265686   2.474   0.086  16.079 -0.1638 -0.3058 -0.4769
14732TIP3    H165687   2.519   0.164  16.048 -1.0515  0.1814 -0.5942
14732TIP3    H265688   2.493   0.083  16.173  2.6588 -1.8763 -1.0063
14733TIP3   OH265689   3.644   3.330  15.225 -0.0784  0.0191 -0.1518
14733TIP3    H165690   3.599   3.255  15.263  0.2687  0.7200  1.7300
14733TIP3    H265691   3.615   3.331  15.133 -0.1556 -2.3260 -0.2092
14734TIP3   OH265692   3.721   4.108  13.379  0.3888 -0.1556  0.2975
14734TIP3    H165693   3.693   4.121  13.469  3.3146 -0.7564  1.4010
14734TIP3    H265694   3.644   4.070  13.336 -0.9429 -0.3116  2.6300
14735TIP3   OH265695   2.433   3.263   4.100 -0.1252 -0.4426  0.4068
14735TIP3    H165696   2.491   3.260   4.175 -0.6349  1.9581  0.9725
14735TIP3    H265697   2.411   3.356   4.089 -1.7068 -0.9495 -1.4335
14736TIP3   OH265698   5.735   2.292   6.290  0.5905 -0.3854 -0.0064
14736TIP3    H165699   5.687   2.332   6.362  0.8291  1.5646 -0.8683
14736TIP3    H265700   5.814   2.257   6.330  0.2909 -0.1507  0.8107
14737TIP3   OH265701   3.630   0.924  14.974  0.6390 -0.8390 -0.2382
14737TIP3    H165702   3.676   0.961  15.049 -0.1083 -0.5237  0.0831
14737TIP3    H265703   3.558   0.874  15.013  0.9018 -1.6053 -0.7122
14738TIP3   OH265704   0.577   6.747  11.458 -0.2804 -0.6391 -0.2204
14738TIP3    H165705   0.505   6.808  11.441 -0.0646  0.4000  2.2165
14738TIP3    H265706   0.648   6.802  11.489  0.8102 -1.9059 -0.3940
14739TIP3   OH265707   0.211   6.141   3.230 -0.3342  0.3323  0.4733
14739TIP3    H165708   0.172   6.132   3.143 -0.9947 -0.3531  0.8349
14739TIP3    H265709   0.213   6.236   3.245 -0.4821  0.4455 -0.1637
14740TIP3   OH265710   0.876   1.907  17.057 -0.1015  0.4276 -0.2620
14740TIP3    H165711   0.970   1.900  17.040 -0.2544  1.7869 -1.9341
14740TIP3    H265712   0.865   1.995  17.093 -0.9416  1.1029 -2.0510
14741TIP3   OH265713   0.957   3.178   6.556 -0.7015  0.5030  0.4589
14741TIP3    H165714   0.893   3.131   6.501 -2.6951  0.7449  2.4193
14741TIP3    H265715   0.914   3.262   6.575  1.6513  2.0833 -0.7801
14742TIP3   OH265716   1.305   4.244   1.651 -0.0606  0.1529 -0.3656
14742TIP3    H165717   1.345   4.325   1.621 -0.4068  1.7127  2.9183
14742TIP3    H265718   1.379   4.187   1.672  0.3793  1.2142  1.1396
14743TIP3   OH265719   4.079   5.401   4.659 -0.0893 -0.6976 -0.2104
14743TIP3    H165720   4.070   5.423   4.752 -0.5240  0.0795 -0.4204
14743TIP3    H265721   3.995   5.428   4.621 -0.5928 -2.5900 -0.5435
14744TIP3   OH265722   4.731   0.104   3.427  0.0554 -0.1312  0.3677
14744TIP3    H165723   4.793   0.034   3.405  1.1947 -0.0578  2.9797
14744TIP3    H265724   4.777   0.184   3.403  0.0366 -0.1555  0.2489
14745TIP3   OH265725   5.974   0.897   1.736  0.0979 -0.6917  0.2163
14745TIP3    H165726   6.062   0.878   1.703 -0.4051  0.3032 -1.9247
14745TIP3    H265727   5.937   0.811   1.757  1.3652 -1.1680  0.5393
14746TIP3   OH265728   2.096   3.134   2.125 -0.1760  0.3593  0.4750
14746TIP3    H165729   2.075   3.040   2.126  0.4560  0.2080  1.2061
14746TIP3    H265730   2.190   3.136   2.107 -0.4973  0.9438 -1.2934
14747TIP3   OH265731   6.272   4.944   0.874  0.0931 -0.0756  0.1620
14747TIP3    H165732   6.302   5.032   0.850  0.1515 -0.3470 -0.8113
14747TIP3    H265733   6.241   4.906   0.791 -0.0694 -0.9196  0.5989
14748TIP3   OH265734   3.657   0.143  16.801 -0.8610  0.0457  0.2176
14748TIP3    H165735   3.591   0.076  16.782 -0.8473  0.5262 -1.7392
14748TIP3    H265736   3.616   0.200  16.865 -1.2319 -1.2840  1.2083
14749TIP3   OH265737   0.471   2.183  11.671 -0.2679  0.3894  0.3726
14749TIP3    H165738   0.508   2.238  11.740 -0.1326 -0.2414  0.8130
14749TIP3    H265739   0.439   2.245  11.605  1.7731  0.9924 -0.1437
14750TIP3   OH265740   3.414   4.471   4.790  0.0042 -0.0044  0.0254
14750TIP3    H165741   3.478   4.515   4.846  1.5577 -2.7802  0.6061
14750TIP3    H265742   3.355   4.428   4.851 -0.4090 -0.1919 -0.5047
14751TIP3   OH265743   6.123   0.522   3.943 -0.6999  0.0732  0.4949
14751TIP3    H165744   6.041   0.486   3.907 -0.3720 -1.9760  1.6338
14751TIP3    H265745   6.102   0.542   4.034 -0.2840  0.8638  0.4263
14752TIP3   OH265746   3.423   6.554  14.412 -0.0149  0.4102  0.6607
14752TIP3    H165747   3.486   6.489  14.378  4.6775  3.5977  2.2575
14752TIP3    H265748   3.386   6.594  14.333  0.3182 -1.2321 -0.3863
14753TIP3   OH265749   4.772   2.530   3.532 -0.3397  0.1034 -0.0351
14753TIP3    H165750   4.826   2.496   3.603 -1.2719 -1.4631 -0.0422
14753TIP3    H265751   4.698   2.571   3.575 -0.0728  0.6433 -0.0777
14754TIP3   OH265752   1.811   0.586   1.413 -0.2281 -0.2940 -0.4333
14754TIP3    H165753   1.840   0.554   1.498  0.8782  0.7288 -0.3999
14754TIP3    H265754   1.834   0.517   1.352 -0.8043 -0.9280  0.0549
14755TIP3   OH265755   2.835   5.216   5.064  0.3764  0.3923  0.4458
14755TIP3    H165756   2.830   5.305   5.101 -0.3064  0.1591  0.9287
14755TIP3    H265757   2.748   5.180   5.077  0.1401  0.2613 -1.3495
14756TIP3   OH265758   5.085   5.407  15.108  0.1442  0.3700 -0.2765
14756TIP3    H165759   5.025   5.399  15.182 -0.2733 -1.3863 -0.7365
14756TIP3    H265760   5.028   5.431  15.034  0.4091  1.1983 -0.2120
14757TIP3   OH265761   2.964   3.175  15.123  0.2344  0.0788 -0.0945
14757TIP3    H165762   3.050   3.161  15.162 -0.8296 -1.5374  1.8589
14757TIP3    H265763   2.945   3.268  15.139  0.8740  0.0240  1.0815
14758TIP3   OH265764   2.226   2.593  13.729  0.1898  0.4509  0.2290
14758TIP3    H165765   2.194   2.572  13.816  0.3640 -3.1321 -0.4254
14758TIP3    H265766   2.150   2.579  13.672 -0.0854  3.2914 -0.2714
14759TIP3   OH265767   1.115   2.840  14.909 -0.4940  0.2192 -0.6803
14759TIP3    H165768   1.157   2.926  14.908  0.2411 -0.1127  0.2432
14759TIP3    H265769   1.040   2.849  14.852 -0.5910  1.5696 -0.3577
14760TIP3   OH265770   3.030   1.668  17.079  0.3091 -0.5489 -0.0948
14760TIP3    H165771   2.948   1.651  17.033 -0.2700 -1.0713  1.0954
14760TIP3    H265772   3.011   1.744  17.135  0.7710 -0.3955 -0.1416
14761TIP3   OH265773   1.336   3.405   5.816  0.2174  0.5246 -0.0633
14761TIP3    H165774   1.289   3.488   5.823 -0.7271  0.0466 -0.4522
14761TIP3    H265775   1.395   3.404   5.892 -0.7764  0.9397  0.7452
14762TIP3   OH265776   1.217   6.620  11.878  0.1472 -0.2787 -0.0105
14762TIP3    H165777   1.255   6.621  11.965  0.1406 -0.4770 -0.0048
14762TIP3    H265778   1.276   6.565  11.826 -0.0953 -0.5401 -0.0155
14763TIP3   OH265779   6.617   1.347   4.558 -0.2566  0.0234 -0.2779
14763TIP3    H165780   6.532   1.390   4.556 -0.2379  0.1795  0.9972
14763TIP3    H265781   6.619   1.292   4.480 -2.7300 -2.1846  1.0379
14764TIP3   OH265782   6.290   1.554   3.477 -0.6157 -0.4076 -0.3023
14764TIP3    H165783   6.305   1.469   3.518 -2.3443 -0.6488 -0.1151
14764TIP3    H265784   6.237   1.602   3.540  0.7543  1.0441 -0.1815
14765TIP3   OH265785   6.069   2.153  12.344 -0.4248  0.2650 -0.7783
14765TIP3    H165786   6.075   2.116  12.432 -0.6580 -1.3507 -1.4086
14765TIP3    H265787   5.999   2.104  12.301 -0.4807  1.1862 -1.7997
14766TIP3   OH265788   1.646   6.333   5.894  0.1479  0.6128 -0.6923
14766TIP3    H165789   1.580   6.286   5.945 -0.1396  1.3982 -0.3072
14766TIP3    H265790   1.624   6.314   5.803 -0.5542  0.7769 -0.5637
14767TIP3   OH265791   0.909   1.833  15.239 -0.2574  0.2817  0.1003
14767TIP3    H165792   0.848   1.863  15.307 -1.0039 -0.1361 -0.3781
14767TIP3    H265793   0.995   1.853  15.275 -0.6776  1.3267  0.5863
14768TIP3   OH265794   6.628   4.049   5.686 -0.4694  0.2194  0.7430
14768TIP3    H165795   6.657   3.989   5.618 -0.5144  0.6029  0.3859
14768TIP3    H265796   6.630   4.136   5.645  0.5859  0.5979  1.5563
14769TIP3   OH265797   3.916   5.566  14.055 -0.3668 -0.1125 -0.1368
14769TIP3    H165798   3.991   5.511  14.036 -0.0210 -0.4588  1.9104
14769TIP3    H265799   3.953   5.652  14.077 -0.3348 -0.6446  2.2583
14770TIP3   OH265800   5.179   6.649  16.330 -0.0420  0.1397  0.4763
14770TIP3    H165801   5.202   6.728  16.281 -0.7942 -0.4564 -0.9124
14770TIP3    H265802   5.221   6.578  16.281  1.9187 -0.2514  2.5447
14771TIP3   OH265803   3.649   5.730  11.746  0.2114  0.3971  0.2050
14771TIP3    H165804   3.611   5.696  11.828  0.0308 -1.8578 -0.7375
14771TIP3    H265805   3.617   5.820  11.741 -2.5086 -0.4138  1.0198
14772TIP3   OH265806   5.101   4.430  14.098  0.5445  0.1521  0.6359
14772TIP3    H165807   5.038   4.362  14.126  0.8572 -0.0459  0.8665
14772TIP3    H265808   5.143   4.457  14.180  0.9281  0.1161  0.4488
14773TIP3   OH265809   4.217   5.157  12.055  0.4708  0.0557 -0.0146
14773TIP3    H165810   4.170   5.240  12.062 -0.1962 -0.1246 -1.7902
14773TIP3    H265811   4.172   5.110  11.985  2.4422 -0.7143 -0.8334
14774TIP3   OH265812   0.874   5.779   1.314  0.4753 -0.2092  0.0807
14774TIP3    H165813   0.931   5.713   1.276  0.6553  0.7601 -1.4022
14774TIP3    H265814   0.897   5.860   1.269 -0.4418  0.6701  1.1325
14775TIP3   OH265815   1.973   4.599  13.153  0.0274  0.3027 -0.2430
14775TIP3    H165816   1.931   4.681  13.128  1.6445  0.9210 -1.0164
14775TIP3    H265817   1.988   4.607  13.247 -2.8018 -0.5397  0.3893
14776TIP3   OH265818   4.202   1.761  13.808 -0.7030  0.2934 -0.0780
14776TIP3    H165819   4.204   1.793  13.899 -1.8383 -2.3413  0.9664
14776TIP3    H265820   4.115   1.724  13.797  0.3747 -2.1495 -1.1896
14777TIP3   OH265821   2.993   0.303  12.671 -0.3726 -0.2802 -0.6531
14777TIP3    H165822   2.927   0.243  12.705 -0.6118  0.1762 -0.3008
14777TIP3    H265823   3.073   0.279  12.718 -0.2232 -0.9819 -1.2421
14778TIP3   OH265824   0.496   1.757  17.061 -0.1515  0.2646  0.8385
14778TIP3    H165825   0.504   1.814  16.985  0.6514  0.2949  0.9360
14778TIP3    H265826   0.436   1.803  17.120  1.3358  1.5822  1.4118
14779TIP3   OH265827   0.156   3.394  11.380  0.0601 -0.1871  1.3145
14779TIP3    H165828   0.093   3.463  11.400  0.5943  1.2262 -1.3097
14779TIP3    H265829   0.241   3.433  11.398  0.3193 -0.7456  1.3194
14780TIP3   OH265830   5.262   5.951   4.870  0.4421  0.8744 -0.3416
14780TIP3    H165831   5.239   5.940   4.777  0.2166 -0.8679 -0.1157
14780TIP3    H265832   5.179   5.948   4.916  0.7255 -2.3584  0.2124
14781TIP3   OH265833   0.694   0.167   2.461  0.5414 -0.2213  0.1360
14781TIP3    H165834   0.769   0.215   2.497 -0.7226  2.4645 -0.5853
14781TIP3    H265835   0.639   0.149   2.537  0.4496  0.6038  0.2743
14782TIP3   OH265836   4.103   5.252   4.360  0.1303 -0.5093 -0.0454
14782TIP3    H165837   4.161   5.201   4.303  0.3497 -1.2947  0.8591
14782TIP3    H265838   4.043   5.297   4.299  0.3654 -1.3088 -0.8891
14783TIP3   OH265839   4.985   0.236  16.127  0.0806  0.4077  0.1100
14783TIP3    H165840   4.915   0.205  16.184 -0.2621  0.5741 -0.2185
14783TIP3    H265841   4.946   0.308  16.077  0.6327  0.8338  0.2848
14784TIP3   OH265842   0.237   1.411  13.471  0.1936 -0.0366 -0.2413
14784TIP3    H165843   0.257   1.406  13.565  0.0558  2.0066 -0.0611
14784TIP3    H265844   0.298   1.477  13.438  1.5412 -2.0309 -2.0198
14785TIP3   OH265845   2.107   0.517   3.063 -0.0928 -0.2477 -0.4853
14785TIP3    H165846   2.085   0.451   2.997  1.0443 -0.5734 -0.5555
14785TIP3    H265847   2.173   0.572   3.022  2.5329 -1.9548  1.1696
14786TIP3   OH265848   0.555   1.223  13.676  0.8448  0.5866  0.2546
14786TIP3    H165849   0.535   1.209  13.583 -0.7240 -2.8104  0.9649
14786TIP3    H265850   0.648   1.200  13.684  0.0184 -3.4927  0.0802
14787TIP3   OH265851   5.867   1.818   1.750 -0.2664  0.4676 -0.2512
14787TIP3    H165852   5.846   1.811   1.843 -0.6450  0.0692 -0.3627
14787TIP3    H265853   5.783   1.807   1.706 -0.4523  2.6865 -0.5772
14788TIP3   OH265854   5.540   4.148   6.634  0.1754  0.3117  0.0838
14788TIP3    H165855   5.446   4.160   6.619  0.1530 -0.2751 -0.2909
14788TIP3    H265856   5.550   4.054   6.647  0.8016  0.2789 -0.5625
14789TIP3   OH265857   4.693   4.913   1.674 -0.1144 -0.1862 -0.0084
14789TIP3    H165858   4.621   4.959   1.716 -0.6616 -1.3130  0.3147
14789TIP3    H265859   4.764   4.916   1.739 -0.4300 -0.5456  0.3542
14790TIP3   OH265860   4.606   3.951   2.979  0.2590 -0.2912 -0.0908
14790TIP3    H165861   4.611   3.966   2.884  1.6796  1.1830  0.1674
14790TIP3    H265862   4.697   3.958   3.009 -0.4384  2.4450  1.7812
14791TIP3   OH265863   0.857   2.406  13.606 -0.1059  0.2970  0.1464
14791TIP3    H165864   0.805   2.378  13.531  0.0893 -3.1758  1.1270
14791TIP3    H265865   0.823   2.493  13.627 -3.3177 -0.4657 -1.2018
14792TIP3   OH265866   3.934   1.159  16.610 -0.2152  0.3586  0.2400
14792TIP3    H165867   3.970   1.151  16.698  0.4576 -0.9650 -0.1275
14792TIP3    H265868   3.847   1.119  16.615  0.4499 -1.1719 -0.0361
14793TIP3   OH265869   2.264   1.209  16.167 -0.7808 -0.1365  0.1122
14793TIP3    H165870   2.175   1.198  16.135 -1.0789  0.3543  0.7347
14793TIP3    H265871   2.265   1.297  16.205 -0.4433 -0.6514  1.3668
14794TIP3   OH265872   1.992   5.901   2.287  0.3153  0.2871  0.8549
14794TIP3    H165873   2.049   5.975   2.307 -1.7109  1.9660  0.8471
14794TIP3    H265874   1.949   5.880   2.370  0.0668 -0.1469  0.6251
14795TIP3   OH265875   3.953   0.916   0.630  0.2407 -0.3408 -0.1755
14795TIP3    H165876   3.871   0.870   0.649  1.2555 -2.7835 -1.2753
14795TIP3    H265877   3.989   0.871   0.554  1.8929  1.6536 -0.6658
14796TIP3   OH265878   6.320   4.107  16.219  0.3707 -0.4638 -0.9087
14796TIP3    H165879   6.340   4.114  16.126 -0.3467 -0.7363 -1.0963
14796TIP3    H265880   6.397   4.142  16.264  0.7585 -0.4161 -1.6014
14797TIP3   OH265881   4.066   6.154  12.541  0.2905 -0.4944  0.5722
14797TIP3    H165882   4.087   6.150  12.634 -2.2481  2.0376  1.4015
14797TIP3    H265883   4.007   6.080  12.527 -2.8529  1.4721  2.2100
14798TIP3   OH265884   5.018   4.535  16.204  0.1965 -0.0944 -0.2804
14798TIP3    H165885   5.027   4.442  16.180 -1.8689 -0.8123  1.3608
14798TIP3    H265886   5.064   4.542  16.288 -0.6535  0.0475  0.1843
14799TIP3   OH265887   0.090   2.344   5.412 -0.5654 -0.0442  0.0846
14799TIP3    H165888   0.012   2.398   5.400 -0.7611 -0.1005  0.9862
14799TIP3    H265889   0.057   2.255   5.420 -0.4645 -0.0159  0.9375
14800TIP3   OH265890   0.162   1.404   5.451 -0.1523  0.1325  0.0527
14800TIP3    H165891   0.078   1.402   5.497  0.3691 -0.3082  0.9939
14800TIP3    H265892   0.143   1.452   5.370 -0.8666  1.7087  1.1085
14801TIP3   OH265893   4.104   0.414  13.203  0.0253 -0.9635  0.3320
14801TIP3    H165894   4.027   0.440  13.153 -0.3128 -3.0921 -0.3848
14801TIP3    H265895   4.097   0.318  13.209  2.5226 -1.2138  0.3721
14802TIP3   OH265896   5.569   6.100   5.191  0.3785  0.0710  0.0589
14802TIP3    H165897   5.528   6.029   5.143 -1.7767  1.3961 -0.1897
14802TIP3    H265898   5.566   6.074   5.282 -3.5002  1.1227  0.3961
14803TIP3   OH265899   3.792   6.223   5.691  0.5086  0.2172  0.0829
14803TIP3    H165900   3.817   6.306   5.733  1.1339 -0.3960  0.9582
14803TIP3    H265901   3.777   6.163   5.764 -1.3070 -0.0873 -0.4889
14804TIP3   OH265902   2.315   5.891   5.095  0.2681 -0.2756  0.7603
14804TIP3    H165903   2.296   5.863   5.006 -0.8223  0.2355  0.8202
14804TIP3    H265904   2.261   5.833   5.150  0.8172 -0.4870  1.0828
14805TIP3   OH265905   4.519   5.234  14.641 -0.4510  0.5048 -0.0965
14805TIP3    H165906   4.460   5.297  14.599 -0.7344  1.6439  1.8839
14805TIP3    H265907   4.465   5.194  14.709 -0.4322 -2.3266 -1.5892
14806TIP3   OH265908   6.649   2.292  12.591 -0.1376  0.5302  0.2496
14806TIP3    H165909   6.678   2.309  12.502  0.1336  0.9399  0.4127
14806TIP3    H265910   6.656   2.376  12.636  0.0741  0.2537  0.7510
14807TIP3   OH265911   0.298   0.192   0.878  0.0918  0.0422  0.0407
14807TIP3    H165912   0.346   0.203   0.959 -1.5321  2.7977  0.7883
14807TIP3    H265913   0.343   0.250   0.816 -0.7363  0.7154  0.0470
14808TIP3   OH265914   3.038   0.603   6.319  0.0207 -0.8324 -0.0635
14808TIP3    H165915   2.965   0.658   6.290 -0.6357 -0.4802  2.0851
14808TIP3    H265916   3.029   0.522   6.269 -1.0321 -0.2767 -0.8088
14809TIP3   OH265917   0.625   2.088  12.019  0.3141  0.1726 -0.1068
14809TIP3    H165918   0.591   2.028  11.952 -2.2036 -0.4818  1.6291
14809TIP3    H265919   0.719   2.069  12.023 -0.2364 -3.1359 -0.2131
14810TIP3   OH265920   2.717   2.073  16.098 -0.2044 -0.5801  0.1787
14810TIP3    H165921   2.783   2.140  16.117 -1.4667  0.7322  0.1371
14810TIP3    H265922   2.634   2.118  16.112 -1.1019 -2.4636  1.1953
14811TIP3   OH265923   6.664   3.737  10.701  0.7993 -0.0244 -0.4325
14811TIP3    H165924   6.634   3.774  10.618 -1.7077  0.7697  0.7522
14811TIP3    H265925   6.683   3.813  10.756 -0.4608 -0.4978  0.6942
14812TIP3   OH265926   4.511   5.001   0.984 -0.1726  0.3417 -0.4286
14812TIP3    H165927   4.502   5.053   1.064  1.4235  3.0773 -1.8722
14812TIP3    H265928   4.586   4.944   1.000 -0.7736 -0.2079  0.5084
14813TIP3   OH265929   1.740   0.929   5.039 -0.1053  0.1979  0.2561
14813TIP3    H165930   1.816   0.981   5.065  0.7566 -0.9659  0.1414
14813TIP3    H265931   1.733   0.942   4.944  1.2648 -1.3099 -0.1008
14814TIP3   OH265932   3.722   1.958   5.358 -0.4282 -0.0857  0.8476
14814TIP3    H165933   3.695   1.976   5.268 -2.1813 -0.9488  1.1503
14814TIP3    H265934   3.760   2.040   5.390  0.3254  0.1926 -0.6930
14815TIP3   OH265935   3.622   0.810   5.884 -0.3283  0.0479  0.1781
14815TIP3    H165936   3.535   0.772   5.876 -0.1770 -0.4138  0.6236
14815TIP3    H265937   3.623   0.850   5.971 -0.4368  0.9583 -0.2289
14816TIP3   OH265938   3.122   3.340   3.045 -0.2410  0.1056  0.4304
14816TIP3    H165939   3.061   3.296   3.104 -0.7733 -1.1987 -1.0227
14816TIP3    H265940   3.076   3.420   3.019 -2.2901 -1.7024 -2.0766
14817TIP3   OH265941   6.689   4.693   1.283  0.1785 -0.5469 -0.7147
14817TIP3    H165942   6.768   4.702   1.337  0.4572 -2.1843 -0.8029
14817TIP3    H265943   6.618   4.688   1.346  0.2783 -0.4373 -0.5901
14818TIP3   OH265944   0.035   6.514   1.735 -0.2986 -0.8421 -0.1611
14818TIP3    H165945   0.063   6.477   1.818  0.7330 -0.0322 -0.1373
14818TIP3    H265946  -0.019   6.589   1.759 -0.1730 -0.7310 -0.2299
14819TIP3   OH265947   6.081   2.609   2.878 -0.1635  0.1691  0.0891
14819TIP3    H165948   6.001   2.589   2.927  1.5090 -2.9604  1.8818
14819TIP3    H265949   6.142   2.638   2.945  1.0230 -0.3170 -0.7591
14820TIP3   OH265950   2.711   2.271  16.558 -0.5204 -0.0264  0.4671
14820TIP3    H165951   2.659   2.294  16.635  1.6472 -1.8892  2.6863
14820TIP3    H265952   2.680   2.184  16.533 -0.3228  0.0130  0.0796
14821TIP3   OH265953   2.605   4.156  16.654 -0.6096  0.2890 -0.1482
14821TIP3    H165954   2.694   4.122  16.662 -0.5984  0.6121  1.5157
14821TIP3    H265955   2.553   4.080  16.626 -0.1491 -0.4637  0.9438
14822TIP3   OH265956   6.357   4.935   0.373 -0.5722  0.0064 -0.3245
14822TIP3    H165957   6.318   4.874   0.310  0.9072  1.6840 -3.0700
14822TIP3    H265958   6.445   4.901   0.388 -0.9399 -0.4215  0.9594
14823TIP3   OH265959   0.838   0.555  16.689  0.1403 -0.7227 -0.4001
14823TIP3    H165960   0.866   0.640  16.723  1.0015 -1.1535 -0.0052
14823TIP3    H265961   0.840   0.565  16.594  0.6078 -0.4114 -0.3601
14824TIP3   OH265962   6.505   4.182  13.792 -0.1543  0.2185 -0.6029
14824TIP3    H165963   6.468   4.184  13.704 -0.1304  0.9458 -0.6022
14824TIP3    H265964   6.595   4.214  13.781  0.1046 -0.4493 -0.4350
14825TIP3   OH265965   6.192   5.780   0.153 -0.3593  0.0435 -0.2338
14825TIP3    H165966   6.213   5.708   0.094  1.3799  1.1373 -1.0354
14825TIP3    H265967   6.116   5.823   0.112 -0.1149 -0.1166 -0.8652
14826TIP3   OH265968   1.151   3.204   4.227 -0.3203  0.6211  0.2433
14826TIP3    H165969   1.066   3.243   4.204 -1.0820 -1.0817  0.0062
14826TIP3    H265970   1.213   3.246   4.167 -1.6823 -1.0720 -2.5702
14827TIP3   OH265971   6.657   0.667   0.555  0.4703  0.4763  0.1049
14827TIP3    H165972   6.739   0.618   0.552  0.9285  1.2567 -2.0123
14827TIP3    H265973   6.598   0.612   0.606  2.3113 -0.0673  1.7533
14828TIP3   OH265974   0.828   5.491  16.487  0.2025  0.6080  0.2636
14828TIP3    H165975   0.763   5.560  16.471 -0.6317 -0.1719  0.1818
14828TIP3    H265976   0.841   5.491  16.582 -0.1843  0.5363  0.3168
14829TIP3   OH265977   2.076   2.724  13.113 -0.3808  0.6286  0.0614
14829TIP3    H165978   2.110   2.812  13.102  3.0336 -0.7267 -1.8181
14829TIP3    H265979   2.148   2.675  13.153 -1.9157 -1.4474  0.4599
14830TIP3   OH265980   3.815   6.490   4.917 -0.0397 -0.0064 -0.3887
14830TIP3    H165981   3.871   6.451   4.850  0.3930  0.2299 -0.1691
14830TIP3    H265982   3.832   6.439   4.996  1.7753  1.6273  0.3296
14831TIP3   OH265983   1.659   5.510   2.412 -0.7736 -0.2920  0.0075
14831TIP3    H165984   1.697   5.535   2.497 -1.0327 -0.0617  0.0576
14831TIP3    H265985   1.728   5.459   2.369  0.0691  1.1383 -0.4031
14832TIP3   OH265986   4.442   0.516   5.913  0.3672  0.2107  0.0586
14832TIP3    H165987   4.515   0.570   5.882  1.6951 -1.5091  0.0143
14832TIP3    H265988   4.365   0.570   5.900  1.4339  1.4259 -1.6383
14833TIP3   OH265989   3.699   3.670  14.032 -0.1676 -0.3531  0.7792
14833TIP3    H165990   3.688   3.603  14.099 -0.8861 -1.0358 -0.0057
14833TIP3    H265991   3.707   3.621  13.950  1.8723  0.4120  0.4771
14834TIP3   OH265992   4.235   0.567   2.693 -0.2794  0.4663 -0.0905
14834TIP3    H165993   4.146   0.556   2.660 -0.8252  0.2926  1.3975
14834TIP3    H265994   4.226   0.625   2.769  0.3978 -2.0887  2.0978
14835TIP3   OH265995   3.681   5.183  12.620  0.3409  0.1038  0.4104
14835TIP3    H165996   3.696   5.227  12.536  0.0908 -0.8578 -0.1558
14835TIP3    H265997   3.765   5.142  12.641 -0.2282 -1.6743 -0.6027
14836TIP3   OH265998   4.283   3.835  10.923 -0.2457  0.5624  0.5267
14836TIP3    H165999   4.300   3.742  10.937 -0.4471  0.5959  1.0142
14836TIP3    H266000   4.201   3.838  10.874 -0.1818  0.4773  0.4160
14837TIP3   OH266001   3.219   2.155  12.356 -0.1832  0.0841 -0.0466
14837TIP3    H166002   3.215   2.073  12.308  0.7968 -0.4192  0.6881
14837TIP3    H266003   3.268   2.214  12.298  1.8862 -0.8186  0.6746
14838TIP3   OH266004   0.348   1.205   2.509  0.0187 -0.4201 -0.2426
14838TIP3    H166005   0.329   1.227   2.418 -1.7064 -0.8757 -0.0287
14838TIP3    H266006   0.375   1.113   2.505  1.5827  0.0170 -0.4564
14839TIP3   OH266007   3.059   5.637   1.394 -0.3519 -0.2784 -0.0950
14839TIP3    H166008   2.974   5.610   1.427  0.2591  0.6057  2.4696
14839TIP3    H266009   3.121   5.612   1.462  1.6306 -1.6373 -2.2296
14840TIP3   OH266010   0.952   2.608  14.403 -0.0007  0.9613  0.4054
14840TIP3    H166011   0.990   2.690  14.372  0.2352  0.7109  0.0369
14840TIP3    H266012   0.871   2.599  14.354 -0.5167  1.4558  1.1357
14841TIP3   OH266013   5.389   4.798   5.841  0.1039  0.0904 -0.3959
14841TIP3    H166014   5.479   4.767   5.832  0.0144 -0.1745 -0.3922
14841TIP3    H266015   5.397   4.890   5.865  0.3695  0.1354 -0.6572
14842TIP3   OH266016   0.861   5.268  12.359  0.1662  0.0641 -0.0607
14842TIP3    H166017   0.932   5.225  12.407  0.2245 -1.1719 -1.1913
14842TIP3    H266018   0.802   5.300  12.427  0.8646 -0.5378  0.8569
14843TIP3   OH266019   1.934   6.414  13.615 -0.0181 -0.0625 -0.4593
14843TIP3    H166020   2.017   6.447  13.648  0.7764 -1.8821 -0.5551
14843TIP3    H266021   1.889   6.382  13.693 -1.1326  1.8274 -0.2514
14844TIP3   OH266022   4.258   4.157   1.759  0.1076 -0.1105 -0.5470
14844TIP3    H166023   4.234   4.076   1.803 -1.2158  0.7577  0.4167
14844TIP3    H266024   4.176   4.188   1.720  0.1610  1.6751  0.6467
14845TIP3   OH266025   2.690   0.540  15.728 -0.1713 -0.7225  0.1074
14845TIP3    H166026   2.643   0.584  15.799 -1.1372 -1.3593 -0.1229
14845TIP3    H266027   2.765   0.598  15.710 -1.7310  1.1915 -0.6275
14846TIP3   OH266028   1.552   4.137  11.243 -0.2061  0.2234 -0.1125
14846TIP3    H166029   1.636   4.176  11.221 -0.4577  1.3811  0.8769
14846TIP3    H266030   1.487   4.188  11.196 -0.5148  0.8450  0.9472
14847TIP3   OH266031   2.547   2.307   2.050 -1.0451  0.6064  0.3939
14847TIP3    H166032   2.514   2.307   1.960  0.3713  0.3709 -0.1616
14847TIP3    H266033   2.622   2.247   2.047 -0.8368  0.7856  1.6732
14848TIP3   OH266034   0.533   1.168   2.139  0.6041 -0.0354  0.3748
14848TIP3    H166035   0.593   1.202   2.205  1.6184  0.1851 -0.6300
14848TIP3    H266036   0.586   1.107   2.088 -0.3941 -0.8388  0.2761
14849TIP3   OH266037   2.136   0.200  11.233 -0.0134 -0.0814 -0.1203
14849TIP3    H166038   2.074   0.243  11.291 -0.3640  0.1045 -0.6264
14849TIP3    H266039   2.099   0.113  11.218 -1.0521  0.6151 -1.7860
14850TIP3   OH266040   5.612   1.459   0.879 -0.2609  0.0528  0.4343
14850TIP3    H166041   5.518   1.443   0.888 -0.2466 -0.3522 -0.0591
14850TIP3    H266042   5.626   1.459   0.784  0.6114 -2.1776  0.5116
14851TIP3   OH266043   2.663   2.508  16.133 -0.1523  0.4848  0.4813
14851TIP3    H166044   2.642   2.469  16.218 -0.3206  0.5693  0.4792
14851TIP3    H266045   2.579   2.543  16.102 -0.4293 -0.9352 -0.4453
14852TIP3   OH266046   3.898   2.535   1.035  0.4802 -0.2073 -0.1858
14852TIP3    H166047   3.821   2.491   1.071  0.8938  0.2647  1.3697
14852TIP3    H266048   3.971   2.478   1.057  0.5551 -0.9058 -2.1092
14853TIP3   OH266049   5.533   4.634   0.171 -0.1504  0.1994  0.1150
14853TIP3    H166050   5.516   4.561   0.112 -0.6786 -0.4230  1.0138
14853TIP3    H266051   5.447   4.657   0.206 -0.0858  1.6773 -0.6214
14854TIP3   OH266052   5.310   6.249   4.933 -0.3332  0.2528 -0.6991
14854TIP3    H166053   5.231   6.284   4.974 -0.3879 -0.6170 -0.0020
14854TIP3    H266054   5.312   6.157   4.960 -0.0801 -0.2322 -2.2553
14855TIP3   OH266055   1.840   3.895   6.186  0.3615 -0.5576 -0.3354
14855TIP3    H166056   1.915   3.898   6.245 -1.2704  0.6916  1.8163
14855TIP3    H266057   1.784   3.966   6.215 -1.6052 -1.3436 -1.9711
14856TIP3   OH266058   6.422   4.422   0.223  0.9736 -0.6423 -0.9356
14856TIP3    H166059   6.345   4.389   0.269  0.5606  0.4676 -0.8007
14856TIP3    H266060   6.487   4.435   0.292  0.4877  0.6383 -0.6883
14857TIP3   OH266061   3.054   5.767   4.225  0.1456 -0.3348  0.0374
14857TIP3    H166062   2.991   5.709   4.182  0.1397  1.7425 -3.0699
14857TIP3    H266063   3.139   5.727   4.207  0.3301  1.3566 -3.8645
14858TIP3   OH266064   3.864   4.425  11.107 -0.3122  0.9967  0.4607
14858TIP3    H166065   3.905   4.390  11.028  1.0944 -0.3875  1.7383
14858TIP3    H266066   3.840   4.514  11.083  0.8125  0.8979 -1.2717
14859TIP3   OH266067   4.979   6.147  12.906 -0.1797  0.5756  0.8697
14859TIP3    H166068   4.999   6.090  12.980 -1.3603  0.8031  1.3993
14859TIP3    H266069   4.891   6.180  12.926 -0.0583  1.5074 -0.0954
14860TIP3   OH266070   3.186   1.269  15.806  0.1033  0.5538 -0.2012
14860TIP3    H166071   3.199   1.269  15.711  1.6881  1.3700 -0.0151
14860TIP3    H266072   3.270   1.299  15.842 -0.4272  0.1468  1.4679
14861TIP3   OH266073   6.723   3.004  16.218 -0.2340  0.3832 -0.0523
14861TIP3    H166074   6.722   3.087  16.266 -0.7275  1.0033 -1.0911
14861TIP3    H266075   6.633   2.971  16.224 -0.5580  0.9594 -1.3288
14862TIP3   OH266076   0.356   6.662  16.376 -0.6139 -0.3501 -0.0742
14862TIP3    H166077   0.310   6.715  16.441  2.9011 -0.4654  2.8122
14862TIP3    H266078   0.435   6.711  16.356 -0.6982 -1.2295 -2.9805
14863TIP3   OH266079   0.715   0.473  11.163 -0.0125  0.2411  0.2196
14863TIP3    H166080   0.665   0.448  11.241 -0.1002  0.3459  0.1974
14863TIP3    H266081   0.710   0.569  11.161 -0.4278  0.2130 -0.1922
14864TIP3   OH266082   6.381   3.317  12.999  0.2966 -0.2793  0.1843
14864TIP3    H166083   6.357   3.253  12.932 -0.8357 -2.3758  2.4478
14864TIP3    H266084   6.307   3.377  13.002  0.7147  0.3349 -0.9359
14865TIP3   OH266085   3.429   4.097   5.718 -0.4212 -0.3959 -0.2620
14865TIP3    H166086   3.409   4.140   5.801 -2.2195  1.9555 -1.8120
14865TIP3    H266087   3.512   4.135   5.690 -0.5578 -0.0785 -0.2361
14866TIP3   OH266088   0.561   2.160   0.440  0.1496 -0.3475  0.4011
14866TIP3    H166089   0.612   2.163   0.521 -1.9899 -0.4151  1.8250
14866TIP3    H266090   0.518   2.075   0.441 -0.5028 -0.0494 -0.4019
14867TIP3   OH266091   2.328   0.365  15.949  0.0800  0.1196 -0.2396
14867TIP3    H166092   2.379   0.386  16.027 -0.2367 -0.7638  0.2028
14867TIP3    H266093   2.285   0.448  15.926  1.2394  0.7395 -0.2879
14868TIP3   OH266094   0.555   4.253   3.460  0.0806 -0.2597 -0.6027
14868TIP3    H166095   0.601   4.329   3.425 -0.5950  0.9151  0.9037
14868TIP3    H266096   0.467   4.286   3.481  0.0862 -1.1622  1.0353
14869TIP3   OH266097   3.478   0.281   5.178  0.4513  0.3350  0.4533
14869TIP3    H166098   3.461   0.215   5.111  2.7830 -1.0829  1.1725
14869TIP3    H266099   3.526   0.235   5.246  1.7826  2.6847  1.2104
14870TIP3   OH266100   4.524   4.513   4.313  0.0832 -0.8374 -0.4776
14870TIP3    H166101   4.504   4.424   4.284 -1.4933 -0.4872 -0.5568
14870TIP3    H266102   4.477   4.569   4.251 -0.0303  0.0208  0.3670
14871TIP3   OH266103   0.370   2.817   3.475  0.1692  0.1490  0.2540
14871TIP3    H166104   0.307   2.887   3.458 -0.2724  0.2841  2.2260
14871TIP3    H266105   0.328   2.763   3.542  1.4948 -0.6603  0.4590
14872TIP3   OH266106   4.207   5.457   1.200 -0.7809  0.4517 -0.0378
14872TIP3    H166107   4.139   5.473   1.265  0.5387  2.7970  0.8736
14872TIP3    H266108   4.173   5.495   1.119 -1.4059 -0.2795 -0.1275
14873TIP3   OH266109   0.002   0.574  15.827  0.1170  0.1040  0.4568
14873TIP3    H166110  -0.022   0.484  15.805 -2.0642  1.1775 -2.1019
14873TIP3    H266111   0.040   0.610  15.747 -1.4517  2.1650  0.5412
14874TIP3   OH266112   4.939   6.508  12.280  0.5333  0.0137 -0.2348
14874TIP3    H166113   4.985   6.434  12.321 -0.0755 -0.7571 -0.9036
14874TIP3    H266114   4.920   6.568  12.352  1.6042 -0.1718  0.2234
14875TIP3   OH266115   5.497   3.048   1.474 -0.2500  0.0229 -0.4453
14875TIP3    H166116   5.414   3.092   1.490 -0.6640 -1.3865  1.7505
14875TIP3    H266117   5.485   3.005   1.389 -1.3234  0.7549 -0.6842
14876TIP3   OH266118   3.913   1.489   2.240  0.0452 -0.0117  0.7375
14876TIP3    H166119   3.877   1.472   2.327 -0.5713 -0.0336  0.4863
14876TIP3    H266120   3.971   1.415   2.223  1.1803  0.6419  1.6516
14877TIP3   OH266121   0.429   5.934  16.460 -0.3021  0.3494  0.6229
14877TIP3    H166122   0.394   5.869  16.522 -3.9808  1.5357  0.0236
14877TIP3    H266123   0.429   5.888  16.376 -1.4854  0.6436  0.4509
14878TIP3   OH266124   4.808   1.189  16.235 -0.2908 -0.6293 -0.2841
14878TIP3    H166125   4.745   1.252  16.270  0.5682  1.0133 -1.5682
14878TIP3    H266126   4.866   1.170  16.308 -0.6200  0.0044  0.1514
14879TIP3   OH266127   0.833   3.921  10.500  0.0213  0.4713  0.0737
14879TIP3    H166128   0.784   3.847  10.536  0.2823  0.4893  0.4773
14879TIP3    H266129   0.770   3.967  10.445 -0.1932  0.0499 -0.0387
14880TIP3   OH266130   1.554   1.799   4.156 -0.3739  0.6993  0.2471
14880TIP3    H166131   1.618   1.774   4.090  0.4612  1.6744  0.6458
14880TIP3    H266132   1.469   1.790   4.113  0.0709  0.0389 -0.5143
14881TIP3   OH266133   3.345   5.891   5.172 -0.0505  0.3333  0.1604
14881TIP3    H166134   3.273   5.922   5.118  0.3769 -1.5155 -1.5829
14881TIP3    H266135   3.305   5.826   5.230  0.1788 -0.7717 -0.8805
14882TIP3   OH266136   1.465   2.062   4.847  0.7448 -0.0379  0.2105
14882TIP3    H166137   1.453   2.087   4.939  1.7909 -0.5288  0.4859
14882TIP3    H266138   1.381   2.021   4.823 -0.3907  2.1198  0.2470
14883TIP3   OH266139   1.762   2.504  13.971 -0.1610 -0.5549 -0.2748
14883TIP3    H166140   1.789   2.493  14.062  1.1892  1.5470 -0.3458
14883TIP3    H266141   1.763   2.599  13.957 -0.2647 -0.8206 -2.4880
14884TIP3   OH266142   4.306   5.607  14.682 -0.6348 -0.0222 -0.6781
14884TIP3    H166143   4.242   5.536  14.683 -1.0539  0.3403 -1.1209
14884TIP3    H266144   4.295   5.651  14.766  0.7660 -1.4558  0.3179
14885TIP3   OH266145   5.566   4.140   3.305 -0.1347 -0.0211 -0.6151
14885TIP3    H166146   5.565   4.061   3.250 -1.1729 -1.1753  0.9787
14885TIP3    H266147   5.550   4.108   3.394 -0.0133  1.9484  0.1712
14886TIP3   OH266148   4.785   5.617   3.910 -0.3579 -0.3947 -0.1142
14886TIP3    H166149   4.795   5.628   3.816 -0.6900 -0.4905 -0.1627
14886TIP3    H266150   4.751   5.528   3.920  0.2088 -0.5837  0.1299
14887TIP3   OH266151   6.485   3.588   5.785  0.0325  0.0390 -0.0864
14887TIP3    H166152   6.508   3.667   5.833 -0.0227 -0.7308  1.2710
14887TIP3    H266153   6.544   3.521   5.820 -1.1113 -0.9168  0.0801
14888TIP3   OH266154   6.265   3.907   0.183 -0.4824 -0.4572 -0.3936
14888TIP3    H166155   6.249   3.831   0.240 -1.5113 -0.5466 -0.7798
14888TIP3    H266156   6.192   3.966   0.200 -0.3481 -0.1043 -1.0056
14889TIP3   OH266157   5.392   2.253  13.525  0.2344 -0.1048  0.0611
14889TIP3    H166158   5.372   2.162  13.501 -0.3055 -0.0493  0.2902
14889TIP3    H266159   5.307   2.296  13.529  0.5466  0.6032 -0.7924
14890TIP3   OH266160   3.914   0.881  15.827 -0.7261  0.0036  0.4864
14890TIP3    H166161   3.891   0.795  15.790 -1.5902  0.6642 -0.5925
14890TIP3    H266162   3.867   0.944  15.771  0.5999  1.2289  0.7029
14891TIP3   OH266163   1.778   1.814  11.959  0.1091  0.4873 -0.2311
14891TIP3    H166164   1.786   1.868  11.880 -0.0624  1.4116  0.3722
14891TIP3    H266165   1.868   1.801  11.989  0.1839  0.0358 -0.6271
14892TIP3   OH266166   4.407   4.606  15.082 -0.2353  0.1707  0.0599
14892TIP3    H166167   4.353   4.685  15.085 -1.4736 -0.5729 -1.3620
14892TIP3    H266168   4.366   4.552  15.015  2.2724 -0.4620 -1.0556
14893TIP3   OH266169   1.480   4.088   1.230  0.4398  0.3640 -0.1380
14893TIP3    H166170   1.507   4.161   1.174  1.3359 -1.5211 -2.3182
14893TIP3    H266171   1.541   4.092   1.304 -0.1417  2.3384  0.3101
14894TIP3   OH266172   3.868   3.936   4.037 -0.0403 -0.0912  0.4908
14894TIP3    H166173   3.833   4.014   3.994  1.7776  0.6888  0.3169
14894TIP3    H266174   3.873   3.960   4.129 -1.2375 -0.7149  0.7337
14895TIP3   OH266175   5.163   5.944  11.618  0.3733  0.3094  0.0990
14895TIP3    H166176   5.122   6.031  11.623  1.4371  0.7494  1.9920
14895TIP3    H266177   5.101   5.886  11.661  0.2336  0.3514 -0.0432
14896TIP3   OH266178   5.488   5.947   0.244 -0.6701 -0.2453  1.0312
14896TIP3    H166179   5.418   6.012   0.249  0.3884  1.0697 -0.2712
14896TIP3    H266180   5.472   5.901   0.162 -0.5776 -0.6287  1.2263
14897TIP3   OH266181   3.368   2.293  12.146  0.4874 -0.0303 -0.6277
14897TIP3    H166182   3.309   2.335  12.083  0.1227 -0.5122 -0.6108
14897TIP3    H266183   3.395   2.364  12.205  0.4975  0.3387 -1.0708
14898TIP3   OH266184   0.367   0.271   3.928  0.0726  0.2436 -0.1845
14898TIP3    H166185   0.338   0.344   3.982 -1.1986  0.7856 -1.5232
14898TIP3    H266186   0.461   0.265   3.944 -0.3490 -0.1283  2.6391
14899TIP3   OH266187   2.269   4.508  13.874  0.3755 -0.4109 -0.4529
14899TIP3    H166188   2.185   4.483  13.835 -1.1847  0.9458  1.7901
14899TIP3    H266189   2.267   4.604  13.876  0.4743 -0.3695  2.5164
14900TIP3   OH266190   0.711   2.389   4.623  0.0938  0.1365 -0.0278
14900TIP3    H166191   0.685   2.481   4.630  1.9830  0.7671 -0.6052
14900TIP3    H266192   0.783   2.380   4.686  1.2980 -0.3639 -1.4039
14901TIP3   OH266193   1.610   0.308   1.750 -0.1439 -0.0332  0.1307
14901TIP3    H166194   1.626   0.234   1.808 -0.2782  0.4028  0.7330
14901TIP3    H266195   1.551   0.365   1.799  1.6624  1.5419  0.5965
14902TIP3   OH266196   4.753   1.673  11.471 -0.3311 -0.2650 -0.2567
14902TIP3    H166197   4.663   1.669  11.438  0.2639  1.7645 -2.4692
14902TIP3    H266198   4.787   1.585  11.457 -1.6757 -0.8082 -0.3046
14903TIP3   OH266199   5.280   5.325  13.501  0.2195 -0.1266 -0.5209
14903TIP3    H166200   5.368   5.300  13.528 -0.2626  0.7213  2.0647
14903TIP3    H266201   5.280   5.421  13.505 -0.8015 -0.1113 -0.5859
14904TIP3   OH266202   4.285   3.815   5.369  0.4478 -0.3235  0.1926
14904TIP3    H166203   4.349   3.758   5.411 -0.8166 -1.2203  0.9692
14904TIP3    H266204   4.335   3.863   5.303  1.6163 -2.1790 -0.3454
14905TIP3   OH266205   6.277   0.223  15.458 -0.2622  0.4982 -0.6727
14905TIP3    H166206   6.305   0.132  15.462 -2.9161 -0.5117 -2.2219
14905TIP3    H266207   6.343   0.266  15.404  0.2560 -0.8577 -1.1695
14906TIP3   OH266208   4.554   2.403  15.268 -0.3862  0.2385 -0.5521
14906TIP3    H166209   4.466   2.371  15.251 -0.4136 -0.1470  0.3042
14906TIP3    H266210   4.589   2.423  15.181 -0.5467 -1.6485 -1.0916
14907TIP3   OH266211   3.958   4.848   3.666  0.4070 -0.2900 -0.1311
14907TIP3    H166212   4.041   4.824   3.625  0.9277  2.3025 -0.7521
14907TIP3    H266213   3.965   4.942   3.682 -2.2199 -0.0907  0.3081
14908TIP3   OH266214   1.769   4.536   1.221 -0.4097  0.0021 -0.0705
14908TIP3    H166215   1.683   4.548   1.262 -0.3332 -1.3000  0.5015
14908TIP3    H266216   1.831   4.572   1.284 -0.4394 -0.1637  0.0518
14909TIP3   OH266217   3.177   1.833   1.948  0.3314 -0.0575 -0.6881
14909TIP3    H166218   3.159   1.909   1.893  0.2102  0.0499 -0.5005
14909TIP3    H266219   3.200   1.764   1.886  0.0911  0.0335 -0.8791
14910TIP3   OH266220   3.867   4.704   0.669  0.3179  0.1456 -0.5517
14910TIP3    H166221   3.858   4.713   0.574  1.6154  1.5945 -0.5912
14910TIP3    H266222   3.867   4.794   0.701  4.5206  0.0423  0.2715
14911TIP3   OH266223   1.970   4.861  12.301 -0.4351 -0.1107  0.5303
14911TIP3    H166224   1.882   4.862  12.338 -0.9775  1.3334 -0.6633
14911TIP3    H266225   2.026   4.896  12.371 -1.4064  2.4207  0.1590
14912TIP3   OH266226   6.751   3.181   0.908  0.0900  1.2114 -0.1158
14912TIP3    H166227   6.700   3.248   0.861 -3.0555 -1.9168 -1.7028
14912TIP3    H266228   6.808   3.143   0.841 -1.1552 -0.2950 -0.3901
14913TIP3   OH266229   1.558   1.470  13.115  0.2952  0.0322 -0.5211
14913TIP3    H166230   1.649   1.465  13.145  0.8286  1.3225 -1.8270
14913TIP3    H266231   1.518   1.391  13.150  1.3513  0.4580  1.8856
14914TIP3   OH266232   0.005   6.808   2.270 -0.5416 -0.2328 -0.0894
14914TIP3    H166233  -0.074   6.758   2.293  0.5032 -1.4656  0.9895
14914TIP3    H266234   0.074   6.743   2.266  0.5125  0.8842 -0.6223
14915TIP3   OH266235   1.872   5.331  11.678 -0.0023 -0.4620 -0.3720
14915TIP3    H166236   1.946   5.283  11.714  0.1149 -0.0998 -0.1265
14915TIP3    H266237   1.825   5.266  11.625 -1.0314 -1.4374  1.6197
14916TIP3   OH266238   5.929   2.136  10.651 -0.3203 -0.2076  0.0205
14916TIP3    H166239   5.904   2.208  10.710  0.9837  0.0012  0.3553
14916TIP3    H266240   6.025   2.132  10.658 -0.2324 -0.8521 -1.3222
14917TIP3   OH266241   4.339   3.333  16.545 -0.5969 -0.6698 -0.2351
14917TIP3    H166242   4.262   3.316  16.600 -1.7590  1.1168 -1.2205
14917TIP3    H266243   4.341   3.260  16.483 -1.8242 -0.4738 -0.5266
14918TIP3   OH266244   1.913   4.021  17.015  0.1696 -0.0992  0.5285
14918TIP3    H166245   1.877   4.105  17.043 -0.9168  0.0112 -1.0139
14918TIP3    H266246   1.864   3.956  17.065 -1.2872  0.1118 -0.5395
14919TIP3   OH266247   3.271   0.369  15.776 -0.1178  0.1641 -0.1894
14919TIP3    H166248   3.358   0.336  15.800  0.6818  1.7353 -0.8334
14919TIP3    H266249   3.214   0.341  15.848  1.2977  0.7306  1.2031
14920TIP3   OH266250   4.214   4.330   0.039 -0.2596 -0.5293 -0.3910
14920TIP3    H166251   4.261   4.353  -0.041  1.2929 -0.5398  0.4733
14920TIP3    H266252   4.240   4.240   0.056  1.4455  0.2446  1.4301
14921TIP3   OH266253   2.214   1.736  16.525  0.0571  0.1118 -0.1308
14921TIP3    H166254   2.152   1.664  16.510  0.5546 -0.4981  0.7055
14921TIP3    H266255   2.197   1.797  16.453 -1.2992 -0.1964 -0.1009
14922TIP3   OH266256   4.184   6.622  17.150  0.0886 -0.0924  0.3273
14922TIP3    H166257   4.277   6.635  17.169  0.3333 -0.6943 -0.4381
14922TIP3    H266258   4.146   6.597  17.235  1.0103 -1.8741  0.2658
14923TIP3   OH266259   0.783   6.564   1.960 -0.7217 -0.2647 -0.7910
14923TIP3    H166260   0.771   6.625   1.888 -0.8934 -0.7865 -1.2078
14923TIP3    H266261   0.694   6.539   1.986 -0.6911  0.5672  0.1645
14924TIP3   OH266262   6.584   5.806  10.621  0.2405  0.0739  0.2923
14924TIP3    H166263   6.499   5.804  10.666 -0.3533  2.3978 -0.6003
14924TIP3    H266264   6.569   5.756  10.541  0.4369 -1.5027  1.1897
14925TIP3   OH266265   0.885   6.701   3.499  0.0960  0.4826 -0.0495
14925TIP3    H166266   0.959   6.663   3.547 -0.1102 -0.6504 -0.5899
14925TIP3    H266267   0.826   6.732   3.568  0.9659  1.2162  0.3909
14926TIP3   OH266268   5.950   2.389   0.868  0.3209 -0.3472 -0.2965
14926TIP3    H166269   5.950   2.468   0.814  2.1809 -0.0669  0.0679
14926TIP3    H266270   6.040   2.380   0.898  0.5367 -3.4840 -1.5677
14927TIP3   OH266271   0.756   1.269   0.588  0.2484 -0.5234 -0.1401
14927TIP3    H166272   0.765   1.345   0.645  0.7900 -1.2777  0.8145
14927TIP3    H266273   0.683   1.290   0.530 -0.0678  0.4185  0.5884
14928TIP3   OH266274   5.375   0.008  13.213 -0.0508  0.4058  0.0836
14928TIP3    H166275   5.435   0.003  13.288 -0.3120  0.4083  0.2934
14928TIP3    H266276   5.288  -0.006  13.251 -0.2339  0.9119 -0.1495
14929TIP3   OH266277   0.790   3.580  13.734 -0.4969 -0.0309  0.1798
14929TIP3    H166278   0.777   3.652  13.673 -1.5412 -2.0178 -2.0937
14929TIP3    H266279   0.711   3.527  13.726  1.1896 -2.6834 -0.0730
14930TIP3   OH266280   3.930   0.663   2.825 -0.2908  0.2210 -0.4959
14930TIP3    H166281   3.922   0.753   2.795 -0.7120 -0.5625 -2.9481
14930TIP3    H266282   3.864   0.615   2.775 -1.8739 -1.0906  2.5839
14931TIP3   OH266283   3.547   4.891  15.588  0.6537 -0.7985  0.4002
14931TIP3    H166284   3.552   4.856  15.677  2.2401 -0.0043  0.6588
14931TIP3    H266285   3.625   4.945  15.579  0.8888 -1.3993 -1.7219
14932TIP3   OH266286   1.808   0.255  12.092  0.3002 -0.2889 -0.2172
14932TIP3    H166287   1.882   0.196  12.106 -0.2424 -1.8159 -2.9419
14932TIP3    H266288   1.732   0.197  12.080 -0.4370  0.9257 -2.0010
14933TIP3   OH266289   0.832   2.720   2.983  0.0940  0.0794  0.2382
14933TIP3    H166290   0.762   2.761   3.034  0.2637 -0.5830  1.0066
14933TIP3    H266291   0.866   2.791   2.929 -0.3451  0.6946  0.7560
14934TIP3   OH266292   2.445   1.969   2.457 -0.1961 -0.8418  0.6254
14934TIP3    H166293   2.465   2.048   2.406 -2.7824 -1.3494 -1.3801
14934TIP3    H266294   2.531   1.930   2.475  0.9685  0.6919 -1.2228
14935TIP3   OH266295   2.351   2.430   4.781  0.3066  0.1771  0.3676
14935TIP3    H166296   2.417   2.378   4.827 -0.5275  0.0358  1.4580
14935TIP3    H266297   2.316   2.371   4.715  0.9121  0.0949  0.1105
14936TIP3   OH266298   2.608   1.126   0.054 -0.4746  0.5356 -0.5278
14936TIP3    H166299   2.646   1.165  -0.025 -0.8385 -0.0723 -1.0108
14936TIP3    H266300   2.521   1.164   0.060 -1.1390 -0.7475 -1.4472
14937TIP3   OH266301   5.057   5.109   2.348  0.3487  0.3885 -0.5351
14937TIP3    H166302   5.039   5.203   2.350 -1.9356  0.0129  2.3662
14937TIP3    H266303   5.136   5.098   2.401 -0.3082  0.5381  0.4847
14938TIP3   OH266304   6.504   1.987   0.051 -0.6273 -0.3248  0.3004
14938TIP3    H166305   6.563   2.043   0.101  0.3992  0.1225 -1.3405
14938TIP3    H266306   6.444   1.951   0.116  1.2924 -0.6081  2.0087
14939TIP3   OH266307   5.959   1.492   0.035 -0.1607  0.1972  0.2325
14939TIP3    H166308   5.930   1.453   0.118 -0.8437 -0.6017 -0.3607
14939TIP3    H266309   5.901   1.455  -0.031  0.9097  0.1552 -0.7325
14940TIP3   OH266310   0.726   5.391   0.759 -0.5817 -0.7891  0.5305
14940TIP3    H166311   0.764   5.306   0.737 -0.1343 -0.6869  0.9057
14940TIP3    H266312   0.800   5.451   0.760 -0.1132 -1.1904  4.5475
14941TIP3   OH266313   3.603   4.930  12.183  0.2576  0.0011  0.5938
14941TIP3    H166314   3.556   4.881  12.115 -1.8496  0.5542  1.5468
14941TIP3    H266315   3.634   4.863  12.243  0.2037 -0.3613  0.2284
14942TIP3   OH266316   2.027   3.759  15.655 -0.2592 -0.2107  0.4667
14942TIP3    H166317   2.065   3.792  15.736 -0.2665  1.5212 -0.2079
14942TIP3    H266318   2.099   3.759  15.592 -0.8584  1.2178 -0.2826
14943TIP3   OH266319   0.256   3.674  16.517  0.4362 -0.2554 -0.5169
14943TIP3    H166320   0.261   3.750  16.575  0.8357  0.6715 -1.7288
14943TIP3    H266321   0.328   3.617  16.545 -1.0648 -1.2153  1.7275
14944TIP3   OH266322   3.754   4.841   6.135  0.5293  0.7452 -0.1244
14944TIP3    H166323   3.760   4.882   6.222  1.5671 -0.2443  0.2964
14944TIP3    H266324   3.738   4.748   6.154 -2.0594  0.9194 -1.0633
14945TIP3   OH266325   0.550   1.205   5.056 -0.7327  0.3617  0.5545
14945TIP3    H166326   0.586   1.213   4.967 -1.3499 -1.7706  0.0413
14945TIP3    H266327   0.578   1.285   5.101 -0.7383  1.6962 -1.6575
14946TIP3   OH266328   5.340   2.082   3.287  0.3372  0.2303 -0.1083
14946TIP3    H166329   5.369   2.031   3.211 -0.1413 -0.0859 -0.0825
14946TIP3    H266330   5.347   2.173   3.258  0.3799  0.1218 -0.4502
14947TIP3   OH266331   1.512   2.210  13.706 -0.2918  0.3777 -0.1655
14947TIP3    H166332   1.442   2.163  13.751 -1.4643  0.8965 -1.3880
14947TIP3    H266333   1.472   2.293  13.679  0.5837  0.3978 -1.4956
14948TIP3   OH266334   2.596   4.539   0.860 -0.5135  0.2986 -0.1410
14948TIP3    H166335   2.509   4.568   0.833 -0.6384 -1.2394 -1.6378
14948TIP3    H266336   2.655   4.575   0.793 -0.3912 -0.8753 -0.7069
14949TIP3   OH266337   5.798   4.515   4.968  0.5273  0.1063  0.4582
14949TIP3    H166338   5.776   4.608   4.968  1.7910  0.4252  0.3390
14949TIP3    H266339   5.828   4.497   5.057  3.0566  0.5433 -0.2418
14950TIP3   OH266340   2.291   3.157   2.398 -0.5127  0.1069  0.1186
14950TIP3    H166341   2.378   3.197   2.393 -0.0465 -0.9051 -0.1277
14950TIP3    H266342   2.273   3.129   2.308 -0.6504 -0.6084  0.3668
14951TIP3   OH266343   2.743   4.690  14.382  0.2497  0.0036  0.1046
14951TIP3    H166344   2.718   4.675  14.473  2.7768  0.2278  0.8949
14951TIP3    H266345   2.815   4.630  14.366  1.6875  1.8801 -0.8700
14952TIP3   OH266346   2.169   4.148   3.906 -0.2808 -0.1741  0.3052
14952TIP3    H166347   2.207   4.186   3.827 -0.1893 -0.6107  0.1373
14952TIP3    H266348   2.076   4.173   3.902  0.1073  1.5635  1.1183
14953TIP3   OH266349   2.718   4.294  12.370 -0.0601  0.3228 -0.7631
14953TIP3    H166350   2.783   4.274  12.438  0.4723 -0.6838 -1.5486
14953TIP3    H266351   2.758   4.365  12.319 -0.5593  1.2426  0.0781
14954TIP3   OH266352   2.757   4.730  16.364 -0.1478  0.0144 -0.2005
14954TIP3    H166353   2.761   4.648  16.414 -0.6218 -0.4701 -0.9566
14954TIP3    H266354   2.745   4.703  16.273 -0.1880  0.9213 -0.4733
14955TIP3   OH266355   6.777   2.054   5.972 -0.3379  0.3016  0.2721
14955TIP3    H166356   6.835   2.120   6.009  0.1211 -0.0306  0.1599
14955TIP3    H266357   6.832   2.007   5.909 -0.6540 -0.1886  0.3571
14956TIP3   OH266358   2.815   2.744  15.219 -0.4601 -0.3832 -0.1609
14956TIP3    H166359   2.910   2.748  15.209 -0.4264  2.2501  0.3634
14956TIP3    H266360   2.801   2.751  15.313 -1.1770 -1.4675 -0.1766
14957TIP3   OH266361   1.951   3.887  13.669 -0.6534 -0.3124  0.3475
14957TIP3    H166362   1.987   3.827  13.603  0.1830  0.0892  0.4264
14957TIP3    H266363   1.859   3.861  13.677 -0.7842 -0.3499 -1.0090
14958TIP3   OH266364   3.978   3.897  15.991  0.3476  0.0033 -0.0693
14958TIP3    H166365   3.932   3.821  15.955  1.1213 -0.7712  0.5231
14958TIP3    H266366   3.952   3.899  16.083  0.3022  0.4884 -0.0914
14959TIP3   OH266367   1.803   1.943   3.279  0.2897 -0.0075  0.3739
14959TIP3    H166368   1.871   1.895   3.233 -0.1494 -0.1612 -0.1162
14959TIP3    H266369   1.782   2.017   3.222 -0.2398 -0.1872  0.3326
14960TIP3   OH266370   0.241   3.854   4.595  0.0977 -0.2677 -0.3370
14960TIP3    H166371   0.326   3.824   4.563  1.6496  3.0457  0.3146
14960TIP3    H266372   0.257   3.880   4.686 -1.5849  0.4979 -0.2239
14961TIP3   OH266373   6.805   0.322  15.741  0.0371 -0.6237 -0.2171
14961TIP3    H166374   6.743   0.250  15.750 -0.6641 -0.5264 -3.2358
14961TIP3    H266375   6.886   0.289  15.778 -0.2780 -2.9896 -1.4949
14962TIP3   OH266376   2.175   2.804   1.567 -0.0826 -0.3204 -0.4834
14962TIP3    H166377   2.156   2.731   1.508 -3.3274 -0.0014 -0.0074
14962TIP3    H266378   2.246   2.772   1.623 -0.9818 -2.8767 -0.6930
14963TIP3   OH266379   4.539   5.843   6.622 -0.9001 -0.2488  0.0169
14963TIP3    H166380   4.447   5.822   6.608 -1.1167 -0.1884  1.2662
14963TIP3    H266381   4.560   5.903   6.550 -1.8484 -0.2217 -0.2573
14964TIP3   OH266382   1.103   0.487   0.110  0.0768  0.0993 -0.4643
14964TIP3    H166383   1.075   0.552   0.045  1.8921 -0.1346 -1.5497
14964TIP3    H266384   1.149   0.420   0.059 -0.2991 -1.2187  0.8329
14965TIP3   OH266385   6.242   0.828  14.331 -0.1846  0.8056 -0.1037
14965TIP3    H166386   6.332   0.821  14.300 -0.5585 -4.0295 -0.8258
14965TIP3    H266387   6.198   0.882  14.265  1.4912  0.3761 -1.6499
14966TIP3   OH266388   3.504   6.620   2.084  0.3908 -0.1856 -0.6046
14966TIP3    H166389   3.451   6.621   2.004 -2.8721 -0.6961  1.3419
14966TIP3    H266390   3.462   6.685   2.142  2.4478 -0.0251  0.8057
14967TIP3   OH266391   5.184   2.767   5.618  0.0558  0.0574 -0.3799
14967TIP3    H166392   5.259   2.751   5.675  0.2278  2.6231  0.2773
14967TIP3    H266393   5.214   2.746   5.530  0.7950 -1.0754  0.1348
14968TIP3   OH266394   5.948   2.138   6.376 -0.1179  0.8046 -0.2631
14968TIP3    H166395   5.998   2.211   6.339 -1.4308  1.6324 -0.4862
14968TIP3    H266396   6.014   2.072   6.399  0.9517  1.3353 -1.6778
14969TIP3   OH266397   5.813   0.799  14.475 -0.4777  0.4510  0.0799
14969TIP3    H166398   5.816   0.774  14.382  1.0747  0.4482  0.1002
14969TIP3    H266399   5.724   0.832  14.488  0.2221  3.7510 -2.2678
14970TIP3   OH266400   6.443   4.366   5.657  0.3986 -0.2530 -0.4666
14970TIP3    H166401   6.401   4.396   5.576 -0.0388 -2.3145 -1.0512
14970TIP3    H266402   6.394   4.288   5.682  2.5572 -1.5173  0.0203
14971TIP3   OH266403   3.019   1.926   1.425  0.2251 -0.1095 -0.2128
14971TIP3    H166404   2.992   1.921   1.517 -0.5262 -1.5138 -0.4817
14971TIP3    H266405   3.114   1.930   1.428  0.2825 -1.5192  0.6027
14972TIP3   OH266406   6.285   5.506   6.156 -0.7338 -0.3798 -0.1396
14972TIP3    H166407   6.266   5.571   6.224 -0.1343  2.4446 -2.5170
14972TIP3    H266408   6.379   5.491   6.163 -0.4910  0.6796 -0.9333
14973TIP3   OH266409   4.657   5.425   2.304  0.2923  0.2026 -0.1538
14973TIP3    H166410   4.657   5.406   2.210  0.6861  0.8958 -0.3009
14973TIP3    H266411   4.682   5.517   2.310 -0.2210  0.3040  0.6058
14974TIP3   OH266412   5.989   3.042  15.381  0.5000  0.3249  0.0447
14974TIP3    H166413   5.965   2.971  15.321  0.4751  0.3747 -0.0052
14974TIP3    H266414   6.055   3.003  15.439 -0.1192  0.0103  0.5569
14975TIP3   OH266415   2.661   1.958   3.455  0.4107  0.3469  0.1741
14975TIP3    H166416   2.622   1.974   3.369  1.0883  1.1484  0.0073
14975TIP3    H266417   2.733   2.021   3.461 -0.7383  1.5806  2.0601
14976TIP3   OH266418   2.998   4.564  13.594  0.0548  0.4926 -0.1446
14976TIP3    H166419   2.919   4.573  13.541 -1.1074  1.1441  1.6183
14976TIP3    H266420   3.069   4.590  13.536 -0.9246 -0.7643 -1.9831
14977TIP3   OH266421   3.159   4.886   4.806  0.2663 -0.1762  0.9273
14977TIP3    H166422   3.108   4.967   4.814 -0.2290 -0.2181 -1.1290
14977TIP3    H266423   3.092   4.818   4.798  0.6640 -0.5370  0.6888
14978TIP3   OH266424   0.040   5.038  11.910 -0.1721 -0.0315 -0.7942
14978TIP3    H166425   0.130   5.035  11.878  0.3415  0.8914  0.4719
14978TIP3    H266426   0.037   5.116  11.965 -1.8851  0.2096 -1.1732
14979TIP3   OH266427   1.559   2.689  12.956 -0.2327 -0.0298  0.1420
14979TIP3    H166428   1.569   2.750  13.029 -0.2738 -0.1709  0.2669
14979TIP3    H266429   1.637   2.702  12.903  0.0376 -0.2767  0.4715
14980TIP3   OH266430   6.317   4.353   5.404 -0.4727  0.4841  0.4435
14980TIP3    H166431   6.225   4.341   5.382 -0.4199  0.5690  0.1687
14980TIP3    H266432   6.358   4.270   5.383 -0.4806  0.4545  0.5423
14981TIP3   OH266433   4.586   6.685   5.285 -0.0962  0.0847  0.2459
14981TIP3    H166434   4.664   6.703   5.338 -0.8954  0.8126  1.2089
14981TIP3    H266435   4.621   6.663   5.199  1.1744  0.5434  0.6125
14982TIP3   OH266436   3.709   6.565   0.566  0.3604 -0.2514 -0.0418
14982TIP3    H166437   3.732   6.657   0.556 -2.7628  0.6608  0.1865
14982TIP3    H266438   3.630   6.554   0.514  0.5802 -2.8076  0.0457
14983TIP3   OH266439   4.392   4.649  13.729 -0.1220  0.0488  0.0226
14983TIP3    H166440   4.322   4.711  13.709  0.9940  0.8512 -1.6018
14983TIP3    H266441   4.349   4.563  13.724 -0.8069  0.4331 -2.1605
14984TIP3   OH266442   2.272   6.732   5.804  0.2230 -0.1401 -0.1626
14984TIP3    H166443   2.329   6.752   5.730 -0.8459 -1.5758 -1.4499
14984TIP3    H266444   2.310   6.653   5.843  0.9804  0.7983  1.1085
14985TIP3   OH266445   4.490   1.831  15.226 -0.1920  0.3446  0.0079
14985TIP3    H166446   4.584   1.823  15.238 -0.4873 -2.4408  1.0218
14985TIP3    H266447   4.460   1.742  15.207 -2.7145  1.0482  0.3528
14986TIP3   OH266448   4.725   3.905   5.882  0.1554  0.2116  0.7777
14986TIP3    H166449   4.801   3.930   5.936  0.8599 -1.0653  0.4041
14986TIP3    H266450   4.662   3.870   5.945 -0.6443  2.3337  1.2460
14987TIP3   OH266451   5.735   2.582   2.592  0.1623 -0.0579  0.4811
14987TIP3    H166452   5.777   2.503   2.626  0.8950  0.7395  1.5008
14987TIP3    H266453   5.675   2.609   2.662 -2.4586 -1.3802 -1.0816
14988TIP3   OH266454   0.577   1.996   5.641 -0.5705 -0.4397 -0.9154
14988TIP3    H166455   0.639   2.067   5.622 -0.3499 -0.9160 -2.0898
14988TIP3    H266456   0.614   1.920   5.596 -0.3539 -1.5455  1.0387
14989TIP3   OH266457   1.403   3.926  11.931 -0.2848  1.2556 -0.2813
14989TIP3    H166458   1.383   3.852  11.874 -1.1943  2.1069 -1.1020
14989TIP3    H266459   1.409   4.001  11.872 -0.1801  1.9880  0.6283
14990TIP3   OH266460   6.166   4.125  15.231 -0.8137 -0.1921 -0.0970
14990TIP3    H166461   6.170   4.191  15.300 -2.7391 -1.7337  1.6649
14990TIP3    H266462   6.257   4.103  15.213 -0.1500  2.5538 -0.4294
14991TIP3   OH266463   6.036   1.057   5.817 -0.0021 -0.1718 -0.3732
14991TIP3    H166464   5.944   1.083   5.818  0.2173  0.7054 -1.2411
14991TIP3    H266465   6.034   0.962   5.826 -0.9216 -0.0519  0.9942
14992TIP3   OH266466   1.213   2.580   5.906 -0.4250 -0.4663  0.5269
14992TIP3    H166467   1.180   2.531   5.831  2.4886  0.0975 -1.2628
14992TIP3    H266468   1.135   2.615   5.948 -2.1806 -0.2652 -2.6220
14993TIP3   OH266469   3.755   0.518  11.516  0.3222 -0.1056 -0.2810
14993TIP3    H166470   3.836   0.469  11.518  0.1787 -0.3049  1.3844
14993TIP3    H266471   3.704   0.477  11.445  1.6445  0.0530 -1.3706
14994TIP3   OH266472   0.311   4.368   5.676  0.0694  0.0179 -0.5958
14994TIP3    H166473   0.245   4.357   5.744 -0.6736  1.6732 -0.9832
14994TIP3    H266474   0.272   4.326   5.599 -0.6634  1.1639 -0.8774
14995TIP3   OH266475   0.121   5.391  12.115 -0.9754 -0.5930 -0.4844
14995TIP3    H166476   0.147   5.474  12.076  0.3604 -0.7355  0.0507
14995TIP3    H266477   0.042   5.412  12.165 -0.4346  0.4650 -0.0218
14996TIP3   OH266478   6.365   2.477  13.107 -0.2645  0.8525 -0.6001
14996TIP3    H166479   6.379   2.507  13.017  0.5289 -0.2421 -0.8607
14996TIP3    H266480   6.270   2.480  13.119 -0.4344  0.4208 -1.6956
14997TIP3   OH266481   1.082   1.604   0.231  0.3838 -0.1748 -0.1764
14997TIP3    H166482   1.170   1.574   0.206  0.5835  0.2012  0.0679
14997TIP3    H266483   1.064   1.560   0.314 -0.8235 -2.4768 -1.5586
14998TIP3   OH266484   3.586   2.427  16.204 -0.1568 -0.3563 -0.3504
14998TIP3    H166485   3.608   2.520  16.193 -0.9575  0.0862  1.3862
14998TIP3    H266486   3.573   2.417  16.299 -2.0476 -1.7717 -0.6992
14999TIP3   OH266487   0.837   1.976   1.031 -0.4014 -0.3165 -0.1294
14999TIP3    H166488   0.799   1.982   0.943  0.9309 -2.0455 -0.8782
14999TIP3    H266489   0.817   1.887   1.060  2.3287 -1.0874 -0.2970
15000TIP3   OH266490   5.518   0.766  14.731 -0.3266 -0.7953  0.4201
15000TIP3    H166491   5.518   0.716  14.649  0.9681 -0.5147  0.2373
15000TIP3    H266492   5.563   0.847  14.710 -0.4462 -0.4951  1.2875
15001TIP3   OH266493   3.994   6.066   4.364 -0.3138  0.5335  0.1531
15001TIP3    H166494   4.064   6.048   4.302 -0.4988  1.0420 -0.2116
15001TIP3    H266495   3.942   5.986   4.365  0.2106  0.1882  0.3557
15002TIP3   OH266496   5.373   2.190   6.397 -0.1865 -0.2179 -0.0273
15002TIP3    H166497   5.344   2.148   6.478  0.0857 -1.2319 -0.4369
15002TIP3    H266498   5.462   2.221   6.416  1.6519 -4.1958 -1.1144
15003TIP3   OH266499   2.087   1.616   5.067  0.2576  0.5486  0.2470
15003TIP3    H166500   2.058   1.645   5.153  0.0274  0.3281  0.2447
15003TIP3    H266501   2.032   1.541   5.047  1.8166 -0.8496  0.9127
15004TIP3   OH266502   3.485   1.637   1.950 -0.1317  0.4857  0.1934
15004TIP3    H166503   3.439   1.682   2.021 -2.6844 -0.9978 -0.3986
15004TIP3    H266504   3.514   1.555   1.989 -1.4715 -0.2987 -0.3973
15005TIP3   OH266505   6.230   6.308   0.718 -0.7442  0.5956  0.5607
15005TIP3    H166506   6.201   6.218   0.701 -1.2135  1.1743 -2.1862
15005TIP3    H266507   6.167   6.341   0.783 -1.0887 -0.7707  0.9721
15006TIP3   OH266508   4.178   2.172   1.177  0.1547 -0.2168 -0.0003
15006TIP3    H166509   4.118   2.108   1.139 -0.5876  2.2195 -3.4585
15006TIP3    H266510   4.127   2.216   1.245 -0.8355 -0.4005 -0.6011
15007TIP3   OH266511   3.865   5.791   4.751 -0.3082  0.2128  0.1639
15007TIP3    H166512   3.948   5.759   4.787 -0.3020  1.3495  1.2172
15007TIP3    H266513   3.800   5.767   4.816 -0.2373  2.6508  1.2191
15008TIP3   OH266514   6.550   0.961  15.334  0.2923  0.4399  0.0820
15008TIP3    H166515   6.597   1.044  15.346 -0.5061  0.8265  0.5634
15008TIP3    H266516   6.471   0.970  15.387  0.2024 -0.6373  0.1395
15009TIP3   OH266517   6.201   1.603  11.241  0.6382 -0.1382 -0.1554
15009TIP3    H166518   6.139   1.666  11.203 -0.4852  0.1374  1.9410
15009TIP3    H266519   6.146   1.530  11.269  1.5536 -0.8059 -0.0594
15010TIP3   OH266520   3.743   5.278  12.353 -0.5059 -0.4599  0.1821
15010TIP3    H166521   3.795   5.359  12.351 -1.6118  0.2665 -1.2403
15010TIP3    H266522   3.801   5.212  12.315  0.0926 -0.1337  0.5104
15011TIP3   OH266523   4.154   3.751   4.533  0.2055  0.0726  0.4400
15011TIP3    H166524   4.059   3.751   4.519  0.1920 -1.7657  0.2704
15011TIP3    H266525   4.173   3.663   4.565  1.7639  0.6740  1.2692
15012TIP3   OH266526   1.082   4.560  16.293  0.5410  0.1056 -0.3456
15012TIP3    H166527   1.112   4.471  16.311  0.0890 -0.1926 -1.0310
15012TIP3    H266528   0.987   4.553  16.288  0.5891  0.2845 -2.1208
15013TIP3   OH266529   2.479   2.669  10.370  0.2061 -0.2269  0.6083
15013TIP3    H166530   2.514   2.607  10.306  1.0727 -0.3388  1.1686
15013TIP3    H266531   2.462   2.749  10.320 -0.7437 -0.8445 -0.0850
15014TIP3   OH266532   1.247   0.764  15.484 -1.2144 -0.6800 -0.2704
15014TIP3    H166533   1.274   0.680  15.520  1.5651 -0.0457 -0.6985
15014TIP3    H266534   1.229   0.746  15.391  2.3792 -0.3773 -1.1597
15015TIP3   OH266535   3.987   1.676  12.661  0.2539  0.3774 -0.7855
15015TIP3    H166536   3.915   1.632  12.707  1.2694 -1.2106 -0.6470
15015TIP3    H266537   3.956   1.683  12.571 -0.0133 -0.4646 -0.7708
15016TIP3   OH266538   2.979   5.353   2.081 -0.2271 -0.7372  0.0891
15016TIP3    H166539   2.966   5.417   2.011 -1.8450 -1.8104 -0.6525
15016TIP3    H266540   2.948   5.398   2.160 -0.9537 -0.4347 -0.3553
15017TIP3   OH266541   5.504   4.935  16.181 -0.3869  0.0129  0.0566
15017TIP3    H166542   5.499   5.025  16.212 -1.6938  0.3644 -1.0608
15017TIP3    H266543   5.591   4.905  16.207 -0.0961  1.4455  0.8275
15018TIP3   OH266544   0.001   2.655   0.549 -0.2371  0.4363  0.1633
15018TIP3    H166545  -0.089   2.659   0.517  0.4121  2.0174 -1.6225
15018TIP3    H266546  -0.002   2.696   0.636 -1.1757  0.8558 -0.0615
15019TIP3   OH266547   3.917   0.282   4.855 -0.1401  0.0608  0.1857
15019TIP3    H166548   3.921   0.221   4.928  0.3448 -0.4216 -0.2282
15019TIP3    H266549   4.002   0.326   4.856  0.5673 -1.1674 -1.0873
15020TIP3   OH266550   2.934   5.565  16.890  0.1500  0.8158  0.0705
15020TIP3    H166551   2.962   5.515  16.814 -0.3841  2.2067 -1.0877
15020TIP3    H266552   2.911   5.499  16.956 -2.0435 -0.5554 -1.9135
15021TIP3   OH266553   4.059   6.064  16.684  0.0341 -0.0123  0.5286
15021TIP3    H166554   4.035   6.106  16.602  0.6781  1.7633  1.1972
15021TIP3    H266555   4.134   6.009  16.663  0.2554  0.5065 -0.0506
15022TIP3   OH266556   1.047   2.499   5.719  0.0782  0.0726 -0.0160
15022TIP3    H166557   1.042   2.524   5.627  0.9805 -0.6644 -0.2788
15022TIP3    H266558   1.060   2.404   5.718 -2.1962 -0.3211  0.9261
15023TIP3   OH266559   6.165   1.146  17.021 -0.3076  0.1491  0.3621
15023TIP3    H166560   6.178   1.189  16.937  0.7983  0.1129  0.4982
15023TIP3    H266561   6.188   1.212  17.086  0.5933 -0.3626  0.5863
15024TIP3   OH266562   6.043   0.145   4.109  0.4591 -0.1336 -0.1855
15024TIP3    H166563   6.017   0.092   4.184 -0.2693 -0.6998 -0.8107
15024TIP3    H266564   5.965   0.149   4.054  0.9701  0.2712 -0.9093
15025TIP3   OH266565   2.457   5.194   5.495  0.2971  0.1242 -0.3265
15025TIP3    H166566   2.375   5.240   5.512 -0.2234 -0.4339 -1.2510
15025TIP3    H266567   2.515   5.260   5.458  0.7642  0.8566  1.5647
15026TIP3   OH266568   1.773   4.480  15.152 -0.1136 -0.8888 -0.8418
15026TIP3    H166569   1.796   4.430  15.231  0.4203 -1.2192 -1.1957
15026TIP3    H266570   1.767   4.571  15.182  0.1599 -1.0028 -0.4305
15027TIP3   OH266571   4.990   1.763  13.096  0.0943 -0.2213 -0.6919
15027TIP3    H166572   4.969   1.814  13.017  1.5422 -0.0788 -1.0109
15027TIP3    H266573   5.057   1.701  13.067  2.2674  1.2552  0.8530
15028TIP3   OH266574   1.298   5.193   2.187  0.2188  0.3687 -0.0449
15028TIP3    H166575   1.275   5.126   2.252  0.9869  2.1987  2.2645
15028TIP3    H266576   1.225   5.255   2.190  0.6750  0.9265 -0.2841
15029TIP3   OH266577   4.277   0.593   4.444 -0.5696 -0.1963  0.2239
15029TIP3    H166578   4.306   0.535   4.514  2.0907 -1.0677 -1.4522
15029TIP3    H266579   4.245   0.534   4.375 -0.5115  0.4668 -0.3834
15030TIP3   OH266580   0.323   5.266  13.265  0.1792  0.2827  0.0449
15030TIP3    H166581   0.267   5.203  13.310 -0.2999  1.0383  0.5044
15030TIP3    H266582   0.327   5.342  13.323 -1.9379  2.0553 -1.9247
15031TIP3   OH266583   4.108   1.475   5.009  0.4071  0.2625  0.0958
15031TIP3    H166584   4.083   1.554   5.056 -3.1335 -1.9617  2.5098
15031TIP3    H266585   4.176   1.435   5.063 -1.1393 -0.5372  1.5446
15032TIP3   OH266586   0.948   3.860  10.745 -0.3047 -0.2757 -0.1396
15032TIP3    H166587   0.922   3.894  10.659 -0.4971 -1.0847 -0.4130
15032TIP3    H266588   0.868   3.866  10.798 -0.3780 -0.4125 -0.2304
15033TIP3   OH266589   1.331   1.552   1.170 -0.4955 -0.3761  0.2081
15033TIP3    H166590   1.370   1.507   1.245  0.6377 -1.1259 -0.8060
15033TIP3    H266591   1.400   1.612   1.139 -0.7288 -0.5049 -0.5862
15034TIP3   OH266592   4.350   5.285   4.979 -0.1112 -0.6373  0.0823
15034TIP3    H166593   4.387   5.202   4.951  1.6603 -0.1831  0.9142
15034TIP3    H266594   4.265   5.263   5.017  0.5699 -2.1521  0.8046
15035TIP3   OH266595   4.052   5.647  16.587 -0.2986 -0.5486  0.0467
15035TIP3    H166596   4.142   5.648  16.619 -1.0092  1.0441  2.2118
15035TIP3    H266597   4.018   5.562  16.613  0.3178 -0.8271 -0.0364
15036TIP3   OH266598   1.631   5.442   3.179  0.1852  0.0689  0.2629
15036TIP3    H166599   1.647   5.534   3.160 -0.2913 -0.0569 -0.8567
15036TIP3    H266600   1.717   5.404   3.195  0.2936  0.9329  1.9198
15037TIP3   OH266601   4.633   6.458  15.187  0.9025 -0.2994 -0.6890
15037TIP3    H166602   4.564   6.422  15.244  0.0404 -1.6668 -2.4825
15037TIP3    H266603   4.704   6.482  15.246 -0.6694  0.1002  1.1240
15038TIP3   OH266604   6.350   5.378  15.250 -0.1712 -0.0476 -0.4007
15038TIP3    H166605   6.276   5.340  15.296  0.3605  0.4269  0.8958
15038TIP3    H266606   6.387   5.306  15.198 -0.0925 -0.9056  0.8171
15039TIP3   OH266607   4.606   6.719  13.413  0.7329 -0.4510  0.0861
15039TIP3    H166608   4.537   6.786  13.414 -0.5970 -1.7547  1.0503
15039TIP3    H266609   4.558   6.636  13.421  2.3275 -1.5300 -0.9681
15040TIP3   OH266610   0.662   1.123   3.601  0.0934 -0.4898  0.3331
15040TIP3    H166611   0.666   1.171   3.519 -0.8851 -1.4244 -0.2807
15040TIP3    H266612   0.733   1.060   3.597  0.8867  0.3416  0.8053
15041TIP3   OH266613   0.501   4.400   0.679  0.1584  0.4722 -0.3774
15041TIP3    H166614   0.412   4.369   0.695  0.7918 -0.6892  1.1448
15041TIP3    H266615   0.492   4.462   0.607 -1.5147 -1.4692 -1.9520
15042TIP3   OH266616   2.512   2.377  11.540  0.1115 -0.0903 -0.3064
15042TIP3    H166617   2.544   2.290  11.516 -1.6255 -0.0409 -3.1590
15042TIP3    H266618   2.586   2.416  11.587  0.6660 -3.3108  1.9172
15043TIP3   OH266619   2.483   4.489   4.661 -1.1058 -0.0492  0.2994
15043TIP3    H166620   2.565   4.483   4.612 -1.2658  1.6586 -0.2351
15043TIP3    H266621   2.427   4.423   4.621  0.6403 -2.8628  2.1272
15044TIP3   OH266622   2.444   4.401  12.683  0.0168  0.0748 -0.5459
15044TIP3    H166623   2.381   4.337  12.717 -0.3294  0.1744 -0.9891
15044TIP3    H266624   2.474   4.364  12.600  1.4419 -0.5444  0.1981
15045TIP3   OH266625   4.874   6.699  11.436 -0.3763 -0.0085 -0.0156
15045TIP3    H166626   4.905   6.790  11.427 -0.2456 -0.0969 -0.5068
15045TIP3    H266627   4.809   6.703  11.505  0.9168  0.1422  1.2532
15046TIP3   OH266628   1.810   2.001   0.241  1.0472  0.4182 -0.4746
15046TIP3    H166629   1.723   1.997   0.280  0.1961  1.5366 -2.1681
15046TIP3    H266630   1.831   1.910   0.219 -1.4558  0.4647 -3.6542
15047TIP3   OH266631   2.841   2.353   2.088 -0.0170  0.0522  0.2132
15047TIP3    H166632   2.831   2.444   2.059  1.0811  0.1281  0.0600
15047TIP3    H266633   2.842   2.359   2.184 -1.1612  0.0583  0.2427
15048TIP3   OH266634   1.644   2.438   0.961 -0.3930  0.1962 -0.5848
15048TIP3    H166635   1.628   2.508   0.898  1.2180 -0.1607 -1.4234
15048TIP3    H266636   1.684   2.482   1.036 -0.2800  0.3061 -0.7101
15049TIP3   OH266637   4.492   5.472   4.816 -0.7360 -0.1067 -0.0523
15049TIP3    H166638   4.587   5.481   4.818 -0.7018 -0.0901 -1.2251
15049TIP3    H266639   4.471   5.416   4.892 -0.0402  1.7745  1.6077
15050TIP3   OH266640   5.074   3.284  16.315 -0.2076  0.4589  0.0561
15050TIP3    H166641   5.030   3.206  16.281 -0.9732  1.1676 -0.6136
15050TIP3    H266642   5.167   3.270  16.293 -0.3029 -0.3655  0.1549
15051TIP3   OH266643   4.096   4.076   1.383  0.2451  0.5159  0.0978
15051TIP3    H166644   4.150   4.154   1.398 -2.1220  1.8260  2.6912
15051TIP3    H266645   4.058   4.089   1.296  0.9497  1.5798 -0.0658
15052TIP3   OH266646   1.955   6.258  14.182 -0.0437  0.0068  0.1298
15052TIP3    H166647   2.023   6.294  14.126 -0.1915  1.4443  0.8483
15052TIP3    H266648   1.925   6.180  14.135  2.2681 -0.8553 -0.0608
15053TIP3   OH266649   0.532   0.075   6.310  0.0784 -0.5041  0.5962
15053TIP3    H166650   0.456   0.027   6.279  0.4186 -0.6720 -0.0018
15053TIP3    H266651   0.607   0.026   6.275  0.4341  1.5344 -1.7603
15054TIP3   OH266652   5.098   0.621   3.711 -0.3318  0.5267  0.2481
15054TIP3    H166653   5.046   0.583   3.782 -0.4895 -2.3235 -1.2490
15054TIP3    H266654   5.032   0.652   3.648 -0.1966  3.1347  1.2572
15055TIP3   OH266655   1.255   3.058  16.375  0.0253 -0.2556  0.4232
15055TIP3    H166656   1.286   3.103  16.453 -0.8476 -0.0323  0.6558
15055TIP3    H266657   1.240   3.129  16.312 -0.4610 -0.3135  0.4735
15056TIP3   OH266658   1.121   1.446   3.145  0.3117 -0.0241 -0.4949
15056TIP3    H166659   1.084   1.533   3.153 -0.2110 -0.1860 -1.0894
15056TIP3    H266660   1.059   1.398   3.090  1.8367 -0.0506 -2.2805
15057TIP3   OH266661   1.649   0.870  12.158 -0.1409 -0.4810  0.3615
15057TIP3    H166662   1.694   0.787  12.178  0.7688  0.1627  1.1430
15057TIP3    H266663   1.608   0.856  12.073  3.3089 -0.4781 -1.4880
15058TIP3   OH266664   0.914   6.779  16.630  0.6707 -0.4746  0.7670
15058TIP3    H166665   0.909   6.868  16.594 -0.1520 -1.2856 -1.2774
15058TIP3    H266666   0.984   6.737  16.581 -0.2331 -1.5220  0.3494
15059TIP3   OH266667   3.733   6.399   5.977  0.1502  0.2226  0.4838
15059TIP3    H166668   3.721   6.469   5.913 -0.0127 -0.8044 -0.6457
15059TIP3    H266669   3.653   6.400   6.028  0.9524  2.1399  1.8226
15060TIP3   OH266670   1.831   4.135  12.257 -0.4826 -0.0330  0.4434
15060TIP3    H166671   1.885   4.058  12.241 -0.5341  0.1728 -0.7902
15060TIP3    H266672   1.877   4.207  12.214 -2.1063  0.0023 -1.3692
15061TIP3   OH266673   4.767   4.735   3.316 -0.4720  0.3470 -0.6498
15061TIP3    H166674   4.728   4.773   3.395 -2.9113 -0.4670 -1.3886
15061TIP3    H266675   4.771   4.641   3.334 -1.2910  0.1210 -1.5592
15062TIP3   OH266676   6.635   0.065   4.235  0.2519  0.0108  0.6436
15062TIP3    H166677   6.558   0.056   4.179  1.2241  0.7411 -0.8769
15062TIP3    H266678   6.663   0.156   4.221  1.2440 -0.1741  1.3608
15063TIP3   OH266679   0.698   0.831  11.443  0.4982 -0.1008  0.4284
15063TIP3    H166680   0.603   0.840  11.451  0.4969 -0.6452  1.1215
15063TIP3    H266681   0.722   0.766  11.509  1.7017  1.9822  2.1888
15064TIP3   OH266682   5.402   1.135  14.288 -0.7968 -0.8439  0.3895
15064TIP3    H166683   5.363   1.091  14.213  0.2834 -1.0565 -0.0684
15064TIP3    H266684   5.495   1.142  14.266 -0.8415  1.2225  0.6676
15065TIP3   OH266685   0.625   2.687   1.563  0.2230 -0.3207  0.3726
15065TIP3    H166686   0.576   2.737   1.498 -0.7211 -2.0273 -0.3133
15065TIP3    H266687   0.581   2.707   1.646  0.5524  0.7911  0.2953
15066TIP3   OH266688   2.230   1.126   0.818 -0.0802 -0.3468  0.4164
15066TIP3    H166689   2.311   1.132   0.868  0.7919  0.6702 -1.0338
15066TIP3    H266690   2.166   1.173   0.871 -0.1909 -2.5109  2.3499
15067TIP3   OH266691   5.934   1.189   6.113  0.3570 -0.1011  0.1188
15067TIP3    H166692   5.928   1.095   6.134  0.1922  0.0688  0.8542
15067TIP3    H266693   5.846   1.212   6.083  0.7200 -0.4578 -1.3030
15068TIP3   OH266694   2.494   4.734  15.765 -0.3352  0.1782  0.0708
15068TIP3    H166695   2.445   4.676  15.823 -0.9302 -0.2627 -0.8392
15068TIP3    H266696   2.526   4.804  15.821 -3.0617  1.1767  0.5230
15069TIP3   OH266697   5.466   2.208  15.727  0.2928 -0.1341 -0.2180
15069TIP3    H166698   5.403   2.166  15.668  0.2142 -0.8076  0.3281
15069TIP3    H266699   5.416   2.226  15.806  0.2751  1.2030 -0.5153
15070TIP3   OH266700   3.314   5.649   4.882 -0.0060 -0.0809  0.1438
15070TIP3    H166701   3.282   5.562   4.905  2.9497 -1.3510  0.0030
15070TIP3    H266702   3.391   5.661   4.938 -0.7678  2.8264  0.7122
15071TIP3   OH266703   6.407   1.565   0.582  0.8415 -0.1269 -0.4635
15071TIP3    H166704   6.385   1.654   0.554 -0.6024 -0.4377 -0.4251
15071TIP3    H266705   6.437   1.521   0.503  0.5210  0.1000 -0.7122
15072TIP3   OH266706   0.422   6.035   5.993  0.9583 -0.4698 -0.1577
15072TIP3    H166707   0.421   5.958   5.936 -0.7840 -0.8951  0.3989
15072TIP3    H266708   0.392   6.106   5.937 -0.7906 -0.8955  0.1789
15073TIP3   OH266709   1.732   6.387   4.587 -0.1992  0.8267  0.2581
15073TIP3    H166710   1.802   6.324   4.568 -0.1600  1.1084 -0.5576
15073TIP3    H266711   1.706   6.421   4.501 -0.2942  1.8454  0.6766
15074TIP3   OH266712   6.025   6.523  11.693 -0.2319 -0.0774  0.2002
15074TIP3    H166713   6.066   6.517  11.607 -1.7130  0.5542 -0.5833
15074TIP3    H266714   5.989   6.436  11.709  0.4765 -0.3396  0.4311
15075TIP3   OH266715   1.398   2.434   3.617  0.0069  0.2866 -0.3933
15075TIP3    H166716   1.489   2.463   3.615  0.0608  0.6775  2.9094
15075TIP3    H266717   1.398   2.355   3.563  1.9811  1.0055 -1.5575
15076TIP3   OH266718   5.695   3.410   2.450 -0.1371 -0.6490  0.0995
15076TIP3    H166719   5.750   3.466   2.505 -0.1722 -0.4658 -0.0522
15076TIP3    H266720   5.655   3.348   2.512 -0.7865  0.0443  0.3932
15077TIP3   OH266721   4.871   2.797   2.759  0.1188 -0.0174 -0.3654
15077TIP3    H166722   4.947   2.766   2.711  3.0183  1.3753  2.8953
15077TIP3    H266723   4.879   2.893   2.758 -0.7478  0.1180  1.2415
15078TIP3   OH266724   0.417   1.036   0.809  0.3267 -0.5020  0.1238
15078TIP3    H166725   0.472   0.964   0.840  0.6599 -0.6157 -0.7119
15078TIP3    H266726   0.435   1.108   0.870 -0.2778 -1.2249  1.1814
15079TIP3   OH266727   0.989   1.056  15.959  0.1252 -1.1503 -0.7155
15079TIP3    H166728   1.073   1.013  15.976 -0.0457 -1.3717 -0.4299
15079TIP3    H266729   0.989   1.133  16.016  0.2370 -1.0150 -0.8954
15080TIP3   OH266730   3.165   0.848   6.131 -0.1149 -0.6778 -0.3669
15080TIP3    H166731   3.101   0.919   6.128 -0.1418 -0.5381  1.7219
15080TIP3    H266732   3.199   0.850   6.221  0.6818 -2.6134 -0.5653
15081TIP3   OH266733   4.590   0.099  13.218  0.2456 -0.0881 -0.0598
15081TIP3    H166734   4.518   0.037  13.209  1.0197 -1.2134  1.1553
15081TIP3    H266735   4.551   0.184  13.198 -0.9631 -0.8809 -1.2242
15082TIP3   OH266736   6.160   1.967  15.558 -0.4659  0.6517  0.3194
15082TIP3    H166737   6.231   1.954  15.621 -0.6902  0.1080  0.4693
15082TIP3    H266738   6.116   1.882  15.554  0.0121  0.4357 -1.1587
15083TIP3   OH266739   4.266   1.426   4.213  0.2575  0.3014 -0.2658
15083TIP3    H166740   4.354   1.387   4.211 -0.2254 -1.5493  3.8697
15083TIP3    H266741   4.256   1.457   4.303 -3.4203  0.2171 -0.5093
15084TIP3   OH266742   0.811   1.395   2.716  0.4408 -0.3338  0.4016
15084TIP3    H166743   0.728   1.355   2.690  0.2881  0.0001  0.3725
15084TIP3    H266744   0.848   1.429   2.635  0.4991 -0.2855  0.4485
15085TIP3   OH266745   0.392   2.951   1.788  0.7776  0.4181 -0.0987
15085TIP3    H166746   0.381   2.921   1.698 -1.0209  1.7084 -0.3521
15085TIP3    H266747   0.341   2.889   1.841  3.0585 -1.2671  0.3012
15086TIP3   OH266748   1.279   2.841  13.841 -0.3088 -0.0571 -0.4522
15086TIP3    H166749   1.191   2.878  13.837  0.4788  1.8725 -1.3442
15086TIP3    H266750   1.328   2.889  13.774  1.7941  0.0193  1.0320
15087TIP3   OH266751   6.222   1.870  14.299 -0.3888  0.5479 -0.7162
15087TIP3    H166752   6.191   1.958  14.320  2.3728  1.3511  0.4214
15087TIP3    H266753   6.287   1.884  14.230  0.9965 -0.4101  0.3450
15088TIP3   OH266754   1.258   0.473  11.509  0.7022 -0.3198  0.3171
15088TIP3    H166755   1.309   0.415  11.452 -0.0618 -0.1971 -0.5173
15088TIP3    H266756   1.288   0.561  11.487  2.1611 -0.3891  1.8832
15089TIP3   OH266757   0.621   4.824  12.339 -0.0413  0.3068 -0.0612
15089TIP3    H166758   0.598   4.853  12.250 -0.3018  0.5068  0.0736
15089TIP3    H266759   0.619   4.904  12.392  2.2468  0.6101 -0.2912
15090TIP3   OH266760   0.954   1.060   2.827 -0.1072  0.4782 -0.5469
15090TIP3    H166761   0.884   0.998   2.805 -0.3505  0.7242 -0.4818
15090TIP3    H266762   1.013   1.011   2.885 -0.5320  0.4460 -0.1380
15091TIP3   OH266763   0.338   5.437   0.285  0.0350  0.7557  0.7067
15091TIP3    H166764   0.428   5.419   0.312  0.3942 -1.1726 -1.4818
15091TIP3    H266765   0.284   5.400   0.355  0.9275  0.6197  1.3294
15092TIP3   OH266766   1.927   4.048  15.755 -0.2168 -0.3429  0.2413
15092TIP3    H166767   2.000   4.100  15.790  0.0813 -0.7996  0.3095
15092TIP3    H266768   1.946   4.042  15.661 -1.6167  1.8549 -0.2529
15093TIP3   OH266769   1.664   4.715  15.798  0.2825 -0.2305  0.6493
15093TIP3    H166770   1.723   4.748  15.730 -0.4834  1.6324  0.8496
15093TIP3    H266771   1.610   4.649  15.752 -0.5108  1.2906 -0.7048
15094TIP3   OH266772   3.602   6.220   1.486  0.2219 -0.2550 -0.2817
15094TIP3    H166773   3.547   6.148   1.458  0.7878 -1.2509  1.0578
15094TIP3    H266774   3.578   6.235   1.577 -0.4661  1.8342 -0.7491
15095TIP3   OH266775   0.396   5.713  11.936 -0.3566  0.1533 -0.5588
15095TIP3    H166776   0.332   5.661  11.985  0.2007  0.4011  0.4677
15095TIP3    H266777   0.456   5.648  11.900 -0.2298  0.0147 -0.1111
15096TIP3   OH266778   5.842   3.730   6.489  0.0687 -1.1580 -0.7332
15096TIP3    H166779   5.898   3.808   6.487 -1.0151 -0.3489 -0.4932
15096TIP3    H266780   5.903   3.656   6.484  1.3336 -0.3917  1.8565
15097TIP3   OH266781   6.441   1.921  14.513 -0.0217  0.0462 -0.1149
15097TIP3    H166782   6.402   1.860  14.451  1.5540 -0.7641 -0.3525
15097TIP3    H266783   6.376   1.930  14.582 -1.2608 -0.0558 -1.2245
15098TIP3   OH266784   5.551   3.181   2.556  0.0136 -0.1148 -0.3241
15098TIP3    H166785   5.540   3.131   2.636 -1.1435  1.4745  0.5652
15098TIP3    H266786   5.498   3.136   2.491 -0.8598 -0.1496  0.4038
15099TIP3   OH266787   1.424   2.263  16.938  0.6088 -0.3994  0.1868
15099TIP3    H166788   1.484   2.333  16.963 -0.0413 -0.1470  1.1156
15099TIP3    H266789   1.337   2.296  16.963  0.1167 -0.8740 -0.8488
15100TIP3   OH266790   4.047   6.644  14.196 -0.0241 -0.3540 -0.3323
15100TIP3    H166791   3.995   6.677  14.269  1.3418 -0.4127  0.7039
15100TIP3    H266792   4.126   6.698  14.197 -0.9029  1.1973 -3.2088
15101TIP3   OH266793   1.560   5.858   3.911 -0.5529 -0.2409  0.1118
15101TIP3    H166794   1.617   5.803   3.964  2.1424  0.9314 -1.3216
15101TIP3    H266795   1.600   5.945   3.916 -3.3366  1.1189  0.4739
15102TIP3   OH266796   3.375   3.569   2.686 -0.5641 -0.3129 -0.5416
15102TIP3    H166797   3.372   3.499   2.621 -0.9027  0.4302 -1.3447
15102TIP3    H266798   3.327   3.533   2.761  0.2731 -1.3735 -0.4798
15103TIP3   OH266799   3.368   1.654   4.790  0.0875  0.2693 -0.0061
15103TIP3    H166800   3.403   1.568   4.814  1.2331  0.8456  0.4847
15103TIP3    H266801   3.355   1.649   4.695  2.4510  0.3021 -0.4029
15104TIP3   OH266802   2.385   5.005  12.158 -0.1623 -0.0684  0.6848
15104TIP3    H166803   2.331   4.929  12.139 -1.1415  0.9070 -0.5836
15104TIP3    H266804   2.389   5.009  12.254 -1.1083 -0.9914  0.7731
15105TIP3   OH266805   1.677   5.109   4.003 -0.7657 -0.3126  0.0620
15105TIP3    H166806   1.694   5.098   4.097  1.0487 -1.9674 -0.3923
15105TIP3    H266807   1.752   5.159   3.971 -0.5064 -1.2044 -0.7615
15106TIP3   OH266808   2.345   0.220   0.342 -0.4516 -0.5271  0.1314
15106TIP3    H166809   2.272   0.158   0.329 -2.4827  1.5971  0.6964
15106TIP3    H266810   2.321   0.296   0.289  1.4678  0.2044  0.2330
15107TIP3   OH266811   0.596   0.231   4.706 -0.5597  0.4504 -0.1699
15107TIP3    H166812   0.546   0.155   4.735 -0.8528  0.4537 -0.6364
15107TIP3    H266813   0.673   0.233   4.761  0.1277 -0.9765 -1.0260
15108TIP3   OH266814   2.422   5.381  12.316  0.2271  0.0138 -0.6915
15108TIP3    H166815   2.502   5.363  12.267 -0.0589 -0.6500 -0.9233
15108TIP3    H266816   2.351   5.373  12.251 -0.1341 -0.6601 -0.2211
15109TIP3   OH266817   3.063   0.850  12.167 -0.1317 -0.3232  0.3211
15109TIP3    H166818   2.973   0.877  12.185 -0.8554 -1.0741 -1.8335
15109TIP3    H266819   3.076   0.871  12.074  2.3563  0.8647  0.8517
15110TIP3   OH266820   0.905   1.512  16.826  1.3558 -0.0592  0.0526
15110TIP3    H166821   0.933   1.477  16.742 -1.0710 -1.6591 -0.1976
15110TIP3    H266822   0.874   1.435  16.875 -0.2761  1.2028  1.1385
15111TIP3   OH266823   4.149   0.142  11.823 -0.8420  0.5001 -0.3159
15111TIP3    H166824   4.192   0.121  11.906  0.2680 -0.1893 -1.0431
15111TIP3    H266825   4.168   0.236  11.811 -1.5188  0.7528  0.4859
15112TIP3   OH266826   6.710   2.550   5.561 -0.3086 -0.1212 -0.2823
15112TIP3    H166827   6.723   2.642   5.537  2.1502 -0.7880 -1.7686
15112TIP3    H266828   6.640   2.520   5.503 -0.3888  0.5002 -0.5216
15113TIP3   OH266829   0.591   3.757   2.276 -0.2345  0.0646  0.1076
15113TIP3    H166830   0.678   3.786   2.249 -0.8043  0.4018 -1.4753
15113TIP3    H266831   0.604   3.719   2.363  0.9559  2.8196  1.2242
15114TIP3   OH266832   3.731   1.213  10.762 -0.2224  0.5444  0.3191
15114TIP3    H166833   3.710   1.193  10.670  0.8168  1.5365 -0.1511
15114TIP3    H266834   3.646   1.234  10.801 -0.7371 -0.2849 -0.2923
15115TIP3   OH266835   1.276   2.790   6.462 -0.0257  0.2564  0.1893
15115TIP3    H166836   1.245   2.877   6.484 -0.1452  0.6162 -1.2873
15115TIP3    H266837   1.252   2.735   6.537 -0.4378  1.3726  0.8851
15116TIP3   OH266838   0.565   1.708   6.052 -0.0631  0.3982 -0.3424
15116TIP3    H166839   0.572   1.798   6.021  0.2168  0.1905 -0.8901
15116TIP3    H266840   0.477   1.701   6.089  1.0790  1.9617  3.0581
15117TIP3   OH266841   3.706   2.125   0.958 -0.5200 -0.5182  0.0798
15117TIP3    H166842   3.729   2.032   0.952 -0.9660 -0.7787  1.9058
15117TIP3    H266843   3.660   2.144   0.877 -0.7769 -2.0025 -0.1448
15118TIP3   OH266844   1.475   4.640   2.905 -0.0078  0.3376  0.6790
15118TIP3    H166845   1.439   4.584   2.836 -0.2331  0.5333  0.6376
15118TIP3    H266846   1.470   4.586   2.984  0.5726 -0.0125  0.4801
15119TIP3   OH266847   4.846   5.908  15.699  0.4786  0.1959  0.2548
15119TIP3    H166848   4.872   5.963  15.625 -0.6548 -1.5040 -1.4984
15119TIP3    H266849   4.854   5.819  15.667  1.2597 -0.6925  2.6712
15120TIP3   OH266850   5.363   1.661  16.884 -0.7474  0.1692  0.3346
15120TIP3    H166851   5.319   1.591  16.835  0.2806 -0.3812  0.1690
15120TIP3    H266852   5.298   1.690  16.948 -1.5907 -0.1326 -0.3606
15121TIP3   OH266853   1.832   6.068  14.543 -0.0851 -0.1444  0.0966
15121TIP3    H166854   1.901   6.042  14.482  0.1783  0.7327  0.0177
15121TIP3    H266855   1.751   6.039  14.501 -0.0214  1.5169 -1.2912
15122TIP3   OH266856   5.013   0.471   6.794  0.4963  0.0436  0.5062
15122TIP3    H166857   5.086   0.506   6.743  1.1419 -0.3994  1.1121
15122TIP3    H266858   5.043   0.386   6.824  0.0463  0.2089  1.4512
15123TIP3   OH266859   0.271   3.626  16.950 -0.6437 -0.3709  0.0682
15123TIP3    H166860   0.179   3.648  16.935 -1.0186 -0.8897  1.4336
15123TIP3    H266861   0.268   3.545  17.001  0.3885  1.5425  3.5005
15124TIP3   OH266862   2.268   0.188  12.403  0.1543 -0.3156  0.6053
15124TIP3    H166863   2.306   0.202  12.490 -0.3896  0.5846  0.7103
15124TIP3    H266864   2.175   0.203  12.415  0.2978  1.7482 -0.5046
15125TIP3   OH266865   3.713   6.113  16.875  0.0655 -0.1410  0.1487
15125TIP3    H166866   3.670   6.033  16.905  0.3947 -0.0336  0.9383
15125TIP3    H266867   3.769   6.084  16.803 -1.0963 -0.3245 -0.7097
15126TIP3   OH266868   3.608   4.321  15.252  0.2066 -0.5780  0.3451
15126TIP3    H166869   3.610   4.393  15.189 -0.1322 -1.1545 -0.3304
15126TIP3    H266870   3.590   4.243  15.200 -0.6174 -0.9928  1.2131
15127TIP3   OH266871   5.630   5.186   3.123  0.0303 -0.4197  0.0396
15127TIP3    H166872   5.655   5.268   3.166 -0.8525 -0.0433 -0.1467
15127TIP3    H266873   5.571   5.213   3.053 -0.1187 -1.2044 -0.1400
15128TIP3   OH266874   6.428   3.486  13.419 -0.3632  0.2883 -0.4991
15128TIP3    H166875   6.458   3.573  13.448  0.1175  0.5664 -1.7665
15128TIP3    H266876   6.392   3.446  13.498  0.1778  1.3157  0.2986
15129TIP3   OH266877   4.508   4.949  15.405 -0.1320  0.6295 -0.1966
15129TIP3    H166878   4.563   4.949  15.327  1.0482 -0.8017  0.6006
15129TIP3    H266879   4.536   4.873  15.455 -1.3887  1.0748  1.2755
15130TIP3   OH266880   5.008   6.451  10.563 -0.1391  0.4487 -0.3616
15130TIP3    H166881   4.919   6.454  10.598  0.0590 -1.3704  0.4241
15130TIP3    H266882   5.053   6.387  10.619  1.2392  0.2218 -1.6701
15131TIP3   OH266883   4.228   6.714  14.971  0.3478 -0.4283 -0.0668
15131TIP3    H166884   4.160   6.652  14.944 -0.6431  0.6330 -0.0432
15131TIP3    H266885   4.270   6.740  14.889  1.4085 -1.8137 -0.0044
15132TIP3   OH266886   0.587   4.668  16.884  0.8187 -0.2455  0.3348
15132TIP3    H166887   0.617   4.730  16.817  0.8836  1.9301  2.2771
15132TIP3    H266888   0.603   4.582  16.844  2.4924  0.9079 -1.7421
15133TIP3   OH266889   3.721   4.730   3.597 -0.6869  0.1531 -0.0065
15133TIP3    H166890   3.815   4.739   3.614 -0.2135 -0.6612 -1.9756
15133TIP3    H266891   3.714   4.727   3.502 -2.4114 -2.6334  0.1111
15134TIP3   OH266892   4.523   5.335   0.334  0.6768 -0.2080  0.2871
15134TIP3    H166893   4.534   5.252   0.380  1.3957 -0.0155  0.4746
15134TIP3    H266894   4.587   5.332   0.263 -0.8336 -0.7649 -1.1260
15135TIP3   OH266895   1.942   2.163  16.302  0.5052  0.8084 -0.0169
15135TIP3    H166896   1.960   2.095  16.238 -0.0146 -0.0335  0.7032
15135TIP3    H266897   1.889   2.119  16.369  1.0215  1.6594  0.9777
15136TIP3   OH266898   0.799   0.967   0.220  0.0616  0.3853  0.2888
15136TIP3    H166899   0.809   0.947   0.127 -1.0729 -0.5825  0.3609
15136TIP3    H266900   0.802   0.882   0.264 -0.3182  0.7585  1.0549
15137TIP3   OH266901   6.343   3.866   4.660  0.1169  0.4369 -0.4212
15137TIP3    H166902   6.269   3.916   4.693 -0.7770 -0.2602 -1.3022
15137TIP3    H266903   6.318   3.775   4.671  1.0305  0.1824 -0.3379
15138TIP3   OH266904   6.096   0.150   6.177  0.3828  0.1806 -0.4095
15138TIP3    H166905   6.131   0.078   6.124  0.3079 -0.0209 -0.1878
15138TIP3    H266906   6.079   0.110   6.262 -1.4768 -0.0218 -0.8342
15139TIP3   OH266907   3.664   4.942  13.365 -0.1554 -0.5196  0.4985
15139TIP3    H166908   3.727   4.972  13.300  0.7852 -0.5830  1.3670
15139TIP3    H266909   3.660   4.847  13.353 -0.9575 -0.3970 -0.3131
15140TIP3   OH266910   3.308   6.705   6.256  0.1618 -0.0313 -0.2393
15140TIP3    H166911   3.317   6.794   6.290 -0.3007 -0.3100  0.6290
15140TIP3    H266912   3.288   6.717   6.163  1.1548  0.7406 -0.3736
15141TIP3   OH266913   5.812   3.431   1.547  0.0076 -0.6275 -0.3987
15141TIP3    H166914   5.780   3.510   1.503 -2.3447 -0.8374  0.8173
15141TIP3    H266915   5.806   3.363   1.480 -0.0844 -0.2268 -0.8078
15142TIP3   OH266916   4.877   5.222   4.614 -0.5164  0.0888 -0.9131
15142TIP3    H166917   4.919   5.265   4.689 -2.6392  1.5689 -0.4896
15142TIP3    H266918   4.919   5.261   4.537 -0.7085  1.1143 -0.5087
15143TIP3   OH266919   0.575   3.294   2.471  0.4020  0.0116 -0.4254
15143TIP3    H166920   0.664   3.273   2.498  0.7361  0.3333 -1.2743
15143TIP3    H266921   0.584   3.358   2.401 -0.4655 -0.5107 -1.0462
15144TIP3   OH266922   6.162   3.578  16.888  0.0239  0.8296 -0.7920
15144TIP3    H166923   6.108   3.507  16.923 -0.9091  1.7757 -0.2285
15144TIP3    H266924   6.238   3.535  16.850 -0.6726 -0.4821 -0.7361
15145TIP3   OH266925   2.013   2.099  16.865  0.0680 -0.2785  0.1908
15145TIP3    H166926   2.080   2.057  16.917  1.3563 -0.7580 -1.7305
15145TIP3    H266927   1.949   2.030  16.848  0.4177 -0.5412 -0.0847
15146TIP3   OH266928   4.594   5.377  13.620  0.1194 -0.2827  0.1336
15146TIP3    H166929   4.567   5.462  13.585 -2.2117 -0.3600  1.5491
15146TIP3    H266930   4.576   5.315  13.549  0.7330  0.2234 -0.4815
15147TIP3   OH266931   2.547   3.145   5.558 -0.1698  0.3745  0.0933
15147TIP3    H166932   2.539   3.240   5.572 -1.4481  0.0969  1.5145
15147TIP3    H266933   2.578   3.137   5.468  0.3000  2.1507  0.0466
15148TIP3   OH266934   0.061   3.625  15.947 -0.3668 -0.2703  0.2389
15148TIP3    H166935   0.058   3.721  15.951  0.7514 -0.2410  0.4743
15148TIP3    H266936   0.043   3.604  15.855 -0.3603  0.1707  0.1348
15149TIP3   OH266937   4.182   6.760   0.869  0.2493 -0.7504  0.1717
15149TIP3    H166938   4.182   6.848   0.907 -1.6529 -1.5020  2.1332
15149TIP3    H266939   4.263   6.721   0.900  0.2418 -0.2789  0.8190
15150TIP3   OH266940   4.482   1.034   6.192  0.1393  0.4473  0.1450
15150TIP3    H166941   4.411   1.074   6.242 -0.2064  0.8137 -0.6249
15150TIP3    H266942   4.496   0.949   6.233 -1.3778 -0.0198 -0.2598
15151TIP3   OH266943   0.383   2.278   0.010 -0.0376  0.0408 -0.2066
15151TIP3    H166944   0.323   2.294   0.083 -0.1800 -0.4760 -0.2091
15151TIP3    H266945   0.427   2.362  -0.003 -0.5068  0.3286  0.0245
15152TIP3   OH266946   0.026   3.475  14.906 -0.3930 -0.1328  0.1268
15152TIP3    H166947   0.041   3.551  14.962  0.6956 -0.4476  0.2875
15152TIP3    H266948   0.048   3.400  14.960 -2.5228 -0.6555  0.3237
15153TIP3   OH266949   0.902   6.677  11.618 -0.9008 -0.1538  0.3685
15153TIP3    H166950   0.989   6.680  11.579 -0.8520  0.5860  0.5209
15153TIP3    H266951   0.849   6.735  11.562 -2.2246 -3.2525 -1.9254
15154TIP3   OH266952   0.208   0.927   2.787  0.0947  0.3744 -0.4164
15154TIP3    H166953   0.181   1.003   2.735 -0.0639  0.9628  0.5026
15154TIP3    H266954   0.234   0.861   2.722 -1.3327  0.6215 -1.2620
15155TIP3   OH266955   0.848   6.208  13.981 -0.1601 -0.3579 -0.0432
15155TIP3    H166956   0.755   6.185  13.981 -0.2320 -0.0676  0.2379
15155TIP3    H266957   0.889   6.138  13.931 -0.8453  0.7686 -2.3675
15156TIP3   OH266958   5.824   3.082   4.290  0.5038  0.7105 -0.0551
15156TIP3    H166959   5.865   3.166   4.307 -1.2298  1.6175 -0.1139
15156TIP3    H266960   5.773   3.096   4.210  1.3012 -0.8287 -0.8830
15157TIP3   OH266961   1.773   5.371  17.114 -0.1078 -0.5048 -0.5286
15157TIP3    H166962   1.706   5.356  17.048  0.1368 -1.0197 -0.6658
15157TIP3    H266963   1.830   5.294  17.109  0.3844 -0.1660 -0.2856
15158TIP3   OH266964   4.675   4.200   3.742 -0.3616  0.3280  0.6879
15158TIP3    H166965   4.749   4.240   3.787 -1.0296 -0.6436  2.7956
15158TIP3    H266966   4.634   4.272   3.695  1.6618  0.9557 -0.2066
15159TIP3   OH266967   6.651   0.856  14.577  0.3630  0.6372 -0.1024
15159TIP3    H166968   6.695   0.868  14.661 -0.0078  0.5082  0.1106
15159TIP3    H266969   6.601   0.937  14.564  0.8516  0.8889 -0.4636
15160TIP3   OH266970   1.016   4.001  14.361 -0.3237 -0.1588  0.4452
15160TIP3    H166971   0.928   3.966  14.346 -0.4364  0.6557 -0.9414
15160TIP3    H266972   1.074   3.926  14.344 -0.5474  0.2518 -2.7372
15161TIP3   OH266973   2.841   6.533  15.325  0.2243 -0.3583  0.0738
15161TIP3    H166974   2.866   6.447  15.358 -0.9721 -0.9269 -0.4330
15161TIP3    H266975   2.871   6.534  15.234 -0.3417 -0.5182 -0.1235
15162TIP3   OH266976   4.973   0.299  14.236 -0.3302  0.3282  0.8708
15162TIP3    H166977   4.942   0.385  14.262 -0.0855  0.5916  0.2960
15162TIP3    H266978   5.049   0.283  14.292 -1.1382 -0.0780  1.8836
15163TIP3   OH266979   3.627   4.961   3.714 -0.6200 -0.0217  0.2311
15163TIP3    H166980   3.676   4.894   3.665 -1.4990  0.8326 -1.9723
15163TIP3    H266981   3.558   4.913   3.759 -0.6143 -0.7196 -0.4780
15164TIP3   OH266982   3.328   4.897  11.914  0.3947  0.2931  0.0235
15164TIP3    H166983   3.280   4.965  11.961  1.9817  1.8385 -0.4744
15164TIP3    H266984   3.420   4.921  11.925  0.9823 -1.5572 -0.5471
15165TIP3   OH266985   1.166   4.049   6.212 -0.3973 -0.1210  0.4947
15165TIP3    H166986   1.070   4.044   6.214 -0.4961  1.3378  2.4575
15165TIP3    H266987   1.195   3.983   6.275 -0.0896 -0.6927 -0.2388
15166TIP3   OH266988   5.164   6.137   2.507  0.3192 -0.3012  0.2900
15166TIP3    H166989   5.190   6.163   2.419  2.3084 -1.6990  0.4241
15166TIP3    H266990   5.218   6.191   2.565  0.0523 -0.4150  0.6497
15167TIP3   OH266991   3.956   1.466   1.129 -0.5842 -0.1418 -0.5784
15167TIP3    H166992   3.960   1.373   1.104 -0.6203 -0.7595  1.5106
15167TIP3    H266993   4.031   1.506   1.085  0.0671 -1.3982 -0.6636
15168TIP3   OH266994   5.194   0.890  14.367  0.1156 -0.5621  0.2904
15168TIP3    H166995   5.259   0.923  14.429  1.6974 -1.5406 -0.8016
15168TIP3    H266996   5.181   0.962  14.305  0.4616 -0.5110  0.2757
15169TIP3   OH266997   4.866   3.974  13.151 -0.3800 -0.1509 -0.3336
15169TIP3    H166998   4.819   4.039  13.203  0.6302  0.0786  0.3202
15169TIP3    H266999   4.855   3.892  13.200  0.2361 -0.0152  0.0364
15170TIP3   OH267000   4.259   1.940  12.917  0.3004  0.0499  0.0800
15170TIP3    H167001   4.337   1.987  12.887 -0.2198  0.2402 -1.0349
15170TIP3    H267002   4.200   2.008  12.949  0.6090 -0.0991  0.9834
15171TIP3   OH267003   4.004   6.449   1.859 -0.0656  0.2740 -0.5955
15171TIP3    H167004   3.922   6.415   1.894  0.0249  0.4180 -0.2435
15171TIP3    H267005   4.020   6.395   1.781 -0.1084 -0.2573 -0.2466
15172TIP3   OH267006   4.564   6.650   3.072  0.3447  0.0706  1.1729
15172TIP3    H167007   4.560   6.745   3.084  0.8222  0.0150  1.7804
15172TIP3    H267008   4.473   6.625   3.055  0.3186  0.7225  0.2724
15173TIP3   OH267009   0.017   3.784  11.833 -0.5478  0.2303 -0.1055
15173TIP3    H167010  -0.014   3.833  11.756  0.4740 -0.3561 -0.9261
15173TIP3    H267011  -0.059   3.780  11.891 -1.1909  1.1664 -0.8450
15174TIP3   OH267012   0.728   1.650   4.295 -0.1770 -0.0035  0.3204
15174TIP3    H167013   0.641   1.688   4.308  0.7130  1.6638  2.0188
15174TIP3    H267014   0.743   1.598   4.374  0.2624 -0.4771 -0.0697
15175TIP3   OH267015   3.442   3.611   0.610  0.0750 -0.1662 -0.1421
15175TIP3    H167016   3.352   3.580   0.601 -0.1944 -0.2887  2.2024
15175TIP3    H267017   3.487   3.578   0.533 -1.4158 -1.8762 -0.3516
15176TIP3   OH267018   1.328   1.317   2.189  0.3397 -0.3190 -0.1631
15176TIP3    H167019   1.351   1.318   2.282 -1.3330  0.3503  0.2892
15176TIP3    H267020   1.398   1.366   2.146  0.4760  0.4956  0.9376
15177TIP3   OH267021   3.994   4.029  16.657 -0.1706 -0.4564  0.1386
15177TIP3    H167022   3.922   4.062  16.711 -0.5601  0.4933 -0.9319
15177TIP3    H267023   4.071   4.077  16.687 -0.3850  0.0622 -0.1227
15178TIP3   OH267024   3.812   1.628  17.070 -0.2165  0.2282 -0.3381
15178TIP3    H167025   3.893   1.596  17.109  0.0993  1.9679  0.5206
15178TIP3    H267026   3.840   1.680  16.994 -0.5561  0.4423 -0.3221
15179TIP3   OH267027   6.144   2.625  12.522  0.0723 -0.0183  0.4068
15179TIP3    H167028   6.095   2.543  12.531 -2.8932  1.4019 -1.1254
15179TIP3    H267029   6.159   2.634  12.428 -0.0588  1.3680  0.4922
15180TIP3   OH267030   4.318   4.311   0.352 -0.5396 -0.5625  0.2296
15180TIP3    H167031   4.234   4.322   0.309  0.9750 -1.1010 -3.2049
15180TIP3    H267032   4.354   4.399   0.359  0.7584 -0.6486 -3.3751
15181TIP3   OH267033   1.950   0.007   2.251  0.8583 -0.1008  0.0035
15181TIP3    H167034   2.033   0.036   2.212  1.2573  0.6018  1.3296
15181TIP3    H267035   1.976  -0.059   2.315  0.5356  1.0153  1.3245
15182TIP3   OH267036   0.147   6.086   2.935 -0.1828 -0.0062  0.0518
15182TIP3    H167037   0.094   6.147   2.884 -0.1149  0.0053 -0.0048
15182TIP3    H267038   0.179   6.022   2.871 -0.6732 -0.4000  0.1952
15183TIP3   OH267039   2.418   2.190   5.773 -0.0638  0.1176  0.1152
15183TIP3    H167040   2.415   2.285   5.784 -1.1925  0.0097  0.9360
15183TIP3    H267041   2.351   2.157   5.834 -1.3066 -1.0534 -1.7951
15184TIP3   OH267042   5.510   2.138   5.756 -0.2133  0.1267  0.1573
15184TIP3    H167043   5.512   2.218   5.704  0.0406  0.6314  0.9183
15184TIP3    H267044   5.595   2.097   5.743 -0.3989 -0.0975 -0.3510
15185TIP3   OH267045   4.840   5.605   0.458  0.1818  0.2211 -0.1165
15185TIP3    H167046   4.786   5.674   0.496 -0.0866  0.1305 -0.3255
15185TIP3    H267047   4.794   5.523   0.480  0.2192  0.1456 -0.3159
15186TIP3   OH267048   1.038   6.254   5.415 -0.2624 -0.5843 -0.4695
15186TIP3    H167049   1.048   6.191   5.485 -1.9945  0.6125  0.9428
15186TIP3    H267050   1.058   6.339   5.456  1.0967 -0.0720 -2.0666
15187TIP3   OH267051   4.107   2.627   5.633  0.1312 -0.0458 -0.1589
15187TIP3    H167052   4.144   2.577   5.706 -1.5517  1.8505  2.1538
15187TIP3    H267053   4.081   2.561   5.569  2.5494 -1.7297  0.4584
15188TIP3   OH267054   0.193   3.451   2.463  0.0682  0.1877  0.6264
15188TIP3    H167055   0.106   3.482   2.439  0.9398  4.4770  2.1708
15188TIP3    H267056   0.253   3.502   2.407  1.7685 -3.2948 -1.0893
15189TIP3   OH267057   0.302   5.031  16.792  0.4320  0.0467 -0.4877
15189TIP3    H167058   0.324   4.948  16.834 -2.0288 -0.2102  0.4456
15189TIP3    H267059   0.333   5.098  16.853 -0.7933 -0.2871  0.5380
15190TIP3   OH267060   6.014   0.958   0.218  0.1072 -0.2707  0.4921
15190TIP3    H167061   6.106   0.947   0.194 -0.3275 -1.9959 -0.6168
15190TIP3    H267062   5.976   1.004   0.143  0.1002  0.6697  1.0631
15191TIP3   OH267063   1.592   1.175   2.701  0.2655 -0.0323  0.3718
15191TIP3    H167064   1.582   1.102   2.640  0.7920 -0.3619  0.6716
15191TIP3    H267065   1.669   1.222   2.669  0.0224  0.3014  0.2736
15192TIP3   OH267066   5.593   3.036  14.511  0.1505  0.4115  0.3543
15192TIP3    H167067   5.556   2.970  14.453  2.7569  0.3618 -1.3805
15192TIP3    H267068   5.604   3.113  14.456  1.2510  0.8716  1.1900
15193TIP3   OH267069   1.904   4.045  12.848 -0.1351  0.7095  0.3581
15193TIP3    H167070   1.953   4.126  12.862 -1.0501  1.2061  0.8100
15193TIP3    H267071   1.935   3.985  12.915  1.9814 -0.0429 -1.1759
15194TIP3   OH267072   0.951   1.498   2.281 -0.2417  0.2175 -0.4691
15194TIP3    H167073   0.977   1.474   2.369  0.5470 -1.6624 -1.1598
15194TIP3    H267074   0.912   1.586   2.290  1.0540  0.6498  1.4917
15195TIP3   OH267075   2.333   6.626   4.628  0.1450 -0.2026  0.1017
15195TIP3    H167076   2.328   6.542   4.673  0.3699 -0.3973 -0.2313
15195TIP3    H267077   2.385   6.608   4.549 -0.4499  0.0705 -0.3658
15196TIP3   OH267078   1.306   6.547   1.755  0.1280 -0.0237  0.1705
15196TIP3    H167079   1.231   6.584   1.802 -0.3309 -0.8871  0.1572
15196TIP3    H267080   1.295   6.577   1.664  1.1206  1.8025  0.6113
15197TIP3   OH267081   0.921   0.135  14.003 -0.0723 -0.1918  0.3086
15197TIP3    H167082   0.935   0.216  14.051 -3.0479  0.9888 -0.5794
15197TIP3    H267083   0.867   0.081  14.061  0.5344 -0.8951  0.2464
15198TIP3   OH267084   6.279   0.508   4.679  0.2547  0.3022  0.4313
15198TIP3    H167085   6.356   0.503   4.623  0.0491 -0.3287  0.1933
15198TIP3    H267086   6.271   0.420   4.717 -1.2185 -0.1098 -0.7379
15199TIP3   OH267087   5.629   0.485   1.283  0.1956  0.2124  0.3553
15199TIP3    H167088   5.707   0.521   1.323  0.5368 -0.4578  0.3005
15199TIP3    H267089   5.576   0.562   1.260  0.9654  0.6829  0.1251
15200TIP3   OH267090   1.456   3.017  16.179 -0.2006  0.0109  0.0219
15200TIP3    H167091   1.445   3.070  16.257  1.3384  1.2579 -0.5584
15200TIP3    H267092   1.429   2.929  16.205 -0.1771  0.5031  1.7963
15201TIP3   OH267093   4.350   4.457  13.246 -0.0886  0.3665  0.1835
15201TIP3    H167094   4.281   4.392  13.231  0.2155  0.2815 -0.8853
15201TIP3    H267095   4.364   4.498  13.161  0.3953  1.1782  0.6395
15202TIP3   OH267096   5.138   4.712   5.923 -0.5627 -0.0163  0.4338
15202TIP3    H167097   5.227   4.733   5.894 -1.6127  1.7664 -1.8344
15202TIP3    H267098   5.126   4.620   5.898 -0.3422  0.5859 -2.2399
15203TIP3   OH267099   1.040   3.401   0.569 -0.1535 -0.2167  0.0062
15203TIP3    H167100   1.087   3.451   0.636  0.6310 -0.1562 -0.5695
15203TIP3    H267101   1.109   3.366   0.513 -0.8263  0.6336 -1.4067
15204TIP3   OH267102   3.014   1.507  14.783 -0.2338 -0.5296  0.3303
15204TIP3    H167103   2.978   1.448  14.849 -1.6533  0.3947  0.4137
15204TIP3    H267104   2.990   1.595  14.813  0.0861 -0.0280 -0.8249
15205TIP3   OH267105   3.242   0.686  16.141 -0.1136  0.0619  0.9722
15205TIP3    H167106   3.163   0.697  16.193 -1.2013  0.6664 -0.7113
15205TIP3    H267107   3.235   0.597  16.105 -0.7294  0.5845 -0.2426
15206TIP3   OH267108   4.388   1.535   2.760  0.1801 -0.0329 -0.6279
15206TIP3    H167109   4.442   1.601   2.804  1.1773 -0.9356 -0.4728
15206TIP3    H267110   4.299   1.556   2.788  0.4393  1.4033 -0.7828
15207TIP3   OH267111   1.784   1.323   2.054  0.3855 -0.2585 -0.4058
15207TIP3    H167112   1.765   1.302   2.145 -1.1336  0.0600 -0.6243
15207TIP3    H267113   1.810   1.415   2.055 -0.3270 -0.0484 -0.3618
15208TIP3   OH267114   6.078   4.302   5.281 -0.1569  0.2596 -0.4629
15208TIP3    H167115   6.032   4.379   5.315  0.8158  0.9656 -0.6922
15208TIP3    H267116   6.010   4.248   5.241 -1.3083 -0.3924  2.1544
15209TIP3   OH267117   6.490   4.354  12.714 -0.0963  0.0100 -0.1159
15209TIP3    H167118   6.511   4.420  12.780 -0.4493 -0.2626  0.2744
15209TIP3    H267119   6.575   4.327  12.679  0.1042  0.0143  0.3680
15210TIP3   OH267120   0.238   6.016   2.301 -0.2826 -0.0063  0.3830
15210TIP3    H167121   0.245   6.111   2.314 -4.3442  0.6325 -0.6739
15210TIP3    H267122   0.281   6.000   2.217  0.7973  0.7559  0.7568
15211TIP3   OH267123   4.680   0.000   0.713  0.4273  0.3057  0.0793
15211TIP3    H167124   4.586  -0.010   0.699  0.3491  0.9776  0.0528
15211TIP3    H267125   4.706  -0.078   0.762 -0.3111  0.5011  0.8196
15212TIP3   OH267126   3.216   6.248   2.182  0.2668 -0.3247  0.4274
15212TIP3    H167127   3.201   6.249   2.277 -2.1209 -1.9591  0.1734
15212TIP3    H267128   3.167   6.325   2.150  0.5565 -0.1245  0.4650
15213TIP3   OH267129   3.573   5.390   6.180 -0.5185 -0.5848  0.3625
15213TIP3    H167130   3.627   5.377   6.259 -1.1810  0.7540  1.0595
15213TIP3    H267131   3.577   5.484   6.163 -0.7343 -0.7947 -0.9776
15214TIP3   OH267132   6.745   0.589  14.666  0.0565 -0.1647  0.1901
15214TIP3    H167133   6.721   0.557  14.753 -0.1967 -2.3012 -0.5906
15214TIP3    H267134   6.664   0.625  14.630 -0.6167 -1.9601 -0.2095
15215TIP3   OH267135   3.110   1.218   1.830 -0.7346  0.1145 -0.2597
15215TIP3    H167136   3.191   1.208   1.778  0.7131 -1.6381  2.1489
15215TIP3    H267137   3.112   1.310   1.858 -1.2605  0.9549 -2.6635
15216TIP3   OH267138   1.819   4.156  13.659 -0.1645 -0.3974 -0.3168
15216TIP3    H167139   1.895   4.101  13.677 -2.1238 -2.6401  1.8652
15216TIP3    H267140   1.781   4.120  13.579 -0.5531 -1.1998  0.2243
15217TIP3   OH267141   0.865   1.710   1.174  0.9311  0.4165 -0.1135
15217TIP3    H167142   0.928   1.638   1.160  1.1116  0.6967 -0.7903
15217TIP3    H267143   0.827   1.692   1.260 -0.2122 -1.3915 -0.9462
15218TIP3   OH267144   4.041   3.083  16.497 -0.5316  0.3951 -0.2110
15218TIP3    H167145   3.953   3.067  16.464 -0.6752  1.0547 -0.1694
15218TIP3    H267146   4.047   3.179  16.504  0.0722  0.3414  0.0990
15219TIP3   OH267147   4.110   2.608   2.757  0.3089 -0.2090  0.3381
15219TIP3    H167148   4.110   2.529   2.812 -0.7450 -0.8456 -0.5360
15219TIP3    H267149   4.202   2.632   2.750  0.9674 -2.8563 -1.4635
15220TIP3   OH267150   2.793   1.759  11.375 -0.5248  0.2827  0.1767
15220TIP3    H167151   2.848   1.680  11.371 -0.2808  0.4477  0.2629
15220TIP3    H267152   2.730   1.748  11.303 -0.4144  0.0670  0.1125
15221TIP3   OH267153   2.166   0.437   0.191  0.2820  0.1289  0.1021
15221TIP3    H167154   2.098   0.489   0.234 -0.5221  0.4294 -1.4561
15221TIP3    H267155   2.118   0.377   0.134  1.3017  0.4730 -1.1845
15222TIP3   OH267156   5.635   5.567  16.180 -0.1869 -0.0852  0.4385
15222TIP3    H167157   5.616   5.580  16.273 -1.4499  2.9837 -0.1048
15222TIP3    H267158   5.701   5.634  16.160 -0.0603 -0.5801 -0.9243
15223TIP3   OH267159   6.580   0.981  12.386  0.1109 -0.3569  0.5757
15223TIP3    H167160   6.574   0.976  12.482  0.6711 -0.2112  0.6216
15223TIP3    H267161   6.630   1.061  12.369 -2.3816  1.2129  0.0652
15224TIP3   OH267162   6.823   0.014  16.703  0.0249 -0.4453  0.1112
15224TIP3    H167163   6.813  -0.019  16.793 -0.1278  1.1478  0.7119
15224TIP3    H267164   6.782   0.100  16.705 -0.1311 -0.4600 -1.5541
15225TIP3   OH267165   0.248   1.184   0.374  0.0990  0.0544  0.4061
15225TIP3    H167166   0.289   1.124   0.436 -0.3221  0.6476  1.2771
15225TIP3    H267167   0.155   1.178   0.393 -0.2764 -1.3329 -1.5971
15226TIP3   OH267168   1.981   5.586   5.352 -0.2898 -0.3850 -0.2315
15226TIP3    H167169   2.054   5.645   5.365  0.3994 -1.3085  0.2155
15226TIP3    H267170   1.969   5.582   5.257  0.6232 -0.6680 -0.3452
15227TIP3   OH267171   3.447   6.389   0.416 -0.3815 -0.1514  0.2724
15227TIP3    H167172   3.455   6.483   0.401  0.7789 -0.4301 -1.0406
15227TIP3    H267173   3.416   6.354   0.333 -0.9022 -0.9286  0.7788
15228TIP3   OH267174   3.709   2.092   0.193  0.0840  0.2616 -0.3366
15228TIP3    H167175   3.731   2.068   0.103 -0.3701 -1.5721  0.0017
15228TIP3    H267176   3.690   2.186   0.189 -1.0756 -0.0030 -2.3767
15229TIP3   OH267177   0.129   4.397   3.797  0.2505 -0.1003  0.3524
15229TIP3    H167178   0.113   4.358   3.712 -1.7741  0.2926  0.5037
15229TIP3    H267179   0.190   4.337   3.840  0.2826 -0.9844 -0.8849
15230TIP3   OH267180   4.318   2.250  15.198 -0.6470 -0.3340  0.1367
15230TIP3    H167181   4.368   2.188  15.145  0.9508 -0.2757  1.4805
15230TIP3    H267182   4.234   2.207  15.212  0.6592 -2.6101  1.6414
15231TIP3   OH267183   2.480   5.351  11.948 -0.2866 -0.0993 -0.2851
15231TIP3    H167184   2.552   5.367  12.009 -1.0630  1.0452  0.3789
15231TIP3    H267185   2.405   5.397  11.987 -0.7136  0.9987 -2.2681
15232TIP3   OH267186   1.885   5.586   6.452  0.0133  0.5005  0.1350
15232TIP3    H167187   1.888   5.490   6.455  0.4549  0.3392 -2.8358
15232TIP3    H267188   1.792   5.607   6.462 -0.5141 -0.4814 -2.1540
15233TIP3   OH267189   5.251   4.229   4.883  0.2242 -0.4072 -0.5821
15233TIP3    H167190   5.188   4.164   4.850 -0.7562  0.6449 -0.8373
15233TIP3    H267191   5.334   4.204   4.842 -0.0965 -1.5994 -0.5450
15234TIP3   OH267192   6.515   4.917   3.090  0.1542  0.2304  0.2264
15234TIP3    H167193   6.476   4.853   3.150  1.0744  0.0558  0.6551
15234TIP3    H267194   6.459   4.994   3.097 -2.2290 -1.1357 -1.8206
15235TIP3   OH267195   3.543   5.815   4.073 -0.6366  0.0456  0.0075
15235TIP3    H167196   3.537   5.828   3.978 -0.8490 -1.2331 -0.1805
15235TIP3    H267197   3.473   5.868   4.110 -0.5933  0.5045 -0.5623
15236TIP3   OH267198   4.068   1.164   4.716 -0.1855  0.2645 -0.0884
15236TIP3    H167199   4.006   1.237   4.710 -0.6714  0.0037  1.4128
15236TIP3    H267200   4.133   1.194   4.781  0.2149 -0.2062 -0.2667
15237TIP3   OH267201   1.733   1.207   4.118 -0.0087 -0.1026 -0.6664
15237TIP3    H167202   1.718   1.221   4.024  2.0124 -0.6302 -1.0967
15237TIP3    H267203   1.694   1.121   4.136 -2.8147  1.0986 -0.3535
15238TIP3   OH267204   1.622   0.634   5.652 -0.0652 -0.1379 -0.0223
15238TIP3    H167205   1.712   0.613   5.626 -0.6864 -2.0016 -0.9223
15238TIP3    H267206   1.624   0.635   5.747  0.6898 -1.5141  0.0085
15239TIP3   OH267207   0.405   5.316  14.029 -0.0338 -1.0762  0.1574
15239TIP3    H167208   0.338   5.324  14.097 -0.4696 -1.2365 -0.2456
15239TIP3    H267209   0.474   5.263  14.070  0.4626  0.1888  1.0189
15240TIP3   OH267210   0.167   3.005   3.516 -0.1098 -0.0101  0.6502
15240TIP3    H167211   0.140   2.981   3.604 -1.0128  0.3333  0.4845
15240TIP3    H267212   0.098   3.065   3.485  1.4607  1.9052  0.6501
15241TIP3   OH267213   3.568   3.441   5.008 -0.1913  0.3328 -0.8250
15241TIP3    H167214   3.600   3.411   5.093  3.1873  2.7902 -1.0051
15241TIP3    H267215   3.519   3.521   5.027 -0.0375  0.4929 -1.0903
15242TIP3   OH267216   0.793   5.983   4.061  0.2833  0.2938 -0.5566
15242TIP3    H167217   0.875   5.935   4.062  0.0734 -0.0536  0.1011
15242TIP3    H267218   0.799   6.042   4.136 -0.5155 -0.4965  0.1455
15243TIP3   OH267219   1.975   2.294  16.550  0.1752 -0.0130  0.2601
15243TIP3    H167220   1.954   2.234  16.621 -0.2214  0.5915  0.6681
15243TIP3    H267221   1.974   2.240  16.471  1.3488 -0.8399  0.7833
15244TIP3   OH267222   1.645   0.988  13.321  0.1851  0.4821  0.1625
15244TIP3    H167223   1.639   0.892  13.322  0.5860  0.4592  0.3122
15244TIP3    H267224   1.710   1.008  13.254  1.8224  0.5479  1.6935
15245TIP3   OH267225   3.661   5.481   4.726  0.0676  0.4334 -0.2658
15245TIP3    H167226   3.697   5.516   4.808  0.7812  1.6153 -1.0574
15245TIP3    H267227   3.729   5.496   4.661  0.0282 -1.6203 -0.8734
15246TIP3   OH267228   0.604   4.846  12.748 -0.1073 -0.1984  0.3040
15246TIP3    H167229   0.632   4.928  12.789 -0.0001 -0.7331  1.3070
15246TIP3    H267230   0.545   4.874  12.678 -0.4899  0.7165  0.9723
15247TIP3   OH267231   1.020   1.621  10.517  0.6299 -0.5607 -0.4243
15247TIP3    H167232   0.982   1.705  10.542  0.7277 -1.3309  2.8234
15247TIP3    H267233   0.948   1.559  10.526  0.4174 -0.8674 -3.2872
15248TIP3   OH267234   0.374   2.812   0.489 -0.3096  0.7483  0.4440
15248TIP3    H167235   0.327   2.825   0.406 -1.9278 -2.0810  0.7924
15248TIP3    H267236   0.307   2.821   0.556 -0.0459 -1.4923  1.0844
15249TIP3   OH267237   1.354   3.702   4.212 -0.7857 -0.3586  0.0299
15249TIP3    H167238   1.397   3.684   4.295  1.0073 -0.1077 -0.8013
15249TIP3    H267239   1.369   3.796   4.197  1.1505 -0.8946 -1.7456
15250TIP3   OH267240   4.619   6.378   4.788  0.0709  0.4647 -0.1830
15250TIP3    H167241   4.572   6.348   4.866 -0.0608  2.1520  0.4178
15250TIP3    H267242   4.571   6.340   4.715  0.9528 -2.2450  0.5285
15251TIP3   OH267243   1.282   0.737   4.731 -0.1322  0.5706  0.2649
15251TIP3    H167244   1.293   0.694   4.816 -2.7930 -0.6481  0.1004
15251TIP3    H267245   1.346   0.694   4.675 -0.1609 -0.5473  1.0360
15252TIP3   OH267246   2.343   0.303  14.329 -0.2861  0.1178 -0.0167
15252TIP3    H167247   2.326   0.321  14.237 -0.7161  1.8130  0.3600
15252TIP3    H267248   2.376   0.386  14.364  0.6889 -0.7341  1.1760
15253TIP3   OH267249   3.534   6.230   3.077 -0.6713  0.4236 -0.2340
15253TIP3    H167250   3.519   6.219   3.171 -2.4015 -2.1531 -0.7266
15253TIP3    H267251   3.628   6.223   3.067 -0.3336  1.7842  1.3651
15254TIP3   OH267252   3.446   4.327   2.845  0.2807 -0.2728 -0.1648
15254TIP3    H167253   3.390   4.265   2.893  0.5009 -0.3050  0.0520
15254TIP3    H267254   3.436   4.409   2.893 -2.1526  0.6353 -1.9826
15255TIP3   OH267255   4.131   2.621  15.652 -0.6563  0.4347  0.3044
15255TIP3    H167256   4.184   2.568  15.593 -0.9386  1.2618 -0.7414
15255TIP3    H267257   4.066   2.561  15.688 -2.1701  0.3637 -2.2871
15256TIP3   OH267258   6.001   6.491   2.464  0.1582 -0.0311 -0.3330
15256TIP3    H167259   5.968   6.500   2.375 -1.0994 -1.0766  0.0011
15256TIP3    H267260   5.985   6.577   2.504 -0.3088  0.0955 -0.7794
15257TIP3   OH267261   3.338   2.368  13.159 -0.3946 -0.1203  0.6934
15257TIP3    H167262   3.430   2.391  13.143  0.1443 -0.8604  2.4989
15257TIP3    H267263   3.341   2.301  13.227 -2.3024 -0.0142  0.9481
15258TIP3   OH267264   1.056   0.211   3.687 -0.1836 -0.3057 -0.4549
15258TIP3    H167265   1.096   0.286   3.642  2.3839 -0.0385  1.9662
15258TIP3    H267266   1.128   0.149   3.698 -1.3948 -1.5490  0.7783
15259TIP3   OH267267   0.373   5.466  16.633 -0.3189 -0.1318  0.4507
15259TIP3    H167268   0.387   5.431  16.545  1.7194 -1.6070  1.2917
15259TIP3    H267269   0.282   5.496  16.632  0.3019  2.2836 -2.8985
15260TIP3   OH267270   3.396   1.560   3.845 -0.2658 -0.2535  0.4428
15260TIP3    H167271   3.454   1.635   3.855 -0.3693 -0.2102  0.7279
15260TIP3    H267272   3.440   1.504   3.781  1.6272 -1.6602  2.8091
15261TIP3   OH267273   0.544   2.951  11.831  0.3202 -0.4030  0.2224
15261TIP3    H167274   0.523   2.972  11.922  0.3904 -1.9852  0.6345
15261TIP3    H267275   0.636   2.924  11.834  0.1644 -1.0045 -0.1969
15262TIP3   OH267276   3.874   1.641   3.951 -0.8921  0.0369 -0.2558
15262TIP3    H167277   3.898   1.630   3.860 -0.4448 -0.4943 -0.0736
15262TIP3    H267278   3.861   1.553   3.984 -1.7035  0.2516  0.0238
15263TIP3   OH267279   6.079   5.658  11.260  0.5408 -0.0742 -0.2005
15263TIP3    H167280   5.990   5.676  11.228  0.1529 -1.9101 -0.2376
15263TIP3    H267281   6.093   5.724  11.328 -0.2186  1.2509 -1.2544
15264TIP3   OH267282   2.091   1.314  11.103  0.2636  0.3278  0.4102
15264TIP3    H167283   2.069   1.319  11.196 -2.0361 -0.0412 -0.0625
15264TIP3    H267284   2.063   1.227  11.076  0.4950  0.5889 -0.7297
15265TIP3   OH267285   2.620   6.068  15.406  0.6495  0.1035  0.3488
15265TIP3    H167286   2.685   6.091  15.472 -0.1769  1.1057  0.8401
15265TIP3    H267287   2.660   5.997  15.356  3.1933  2.2973 -0.9912
15266TIP3   OH267288   2.903   6.350   4.050  0.0537  0.0141 -0.1321
15266TIP3    H167289   2.889   6.444   4.061  1.5252  0.3401 -0.8402
15266TIP3    H267290   2.905   6.315   4.139  1.4154  0.9621  0.2291
15267TIP3   OH267291   2.017   2.159  12.065  0.3953 -0.1316 -0.2931
15267TIP3    H167292   2.100   2.164  12.113 -0.0016 -0.0407  0.3916
15267TIP3    H267293   2.014   2.069  12.032  1.2821  0.1807 -1.2688
15268TIP3   OH267294   0.898   1.244  13.067 -0.5026  0.1572  0.1173
15268TIP3    H167295   0.903   1.237  13.163 -1.0571  0.2306  0.1560
15268TIP3    H267296   0.839   1.173  13.041 -0.3322  0.1224 -0.1731
15269TIP3   OH267297   1.648   4.324  16.532  0.2554  0.3382 -0.1066
15269TIP3    H167298   1.662   4.418  16.531 -0.7369  0.7137  3.7303
15269TIP3    H267299   1.559   4.313  16.498  0.9982  0.4994 -2.2446
15270TIP3   OH267300   0.016   1.862   4.370 -0.1460 -0.3325 -0.1062
15270TIP3    H167301   0.021   1.767   4.380 -0.5223 -0.4893 -1.2686
15270TIP3    H267302  -0.059   1.887   4.423 -0.2316 -0.7152 -0.0395
15271TIP3   OH267303   4.133   3.040  15.191 -0.1688  0.0719 -0.3186
15271TIP3    H167304   4.157   3.059  15.281  0.5188  0.3875 -0.5649
15271TIP3    H267305   4.101   3.123  15.156  0.9339  0.3156 -0.7913
15272TIP3   OH267306   2.797   1.302  13.745 -0.3831  0.0809  0.0635
15272TIP3    H167307   2.859   1.230  13.735 -1.8108 -1.1580 -0.2208
15272TIP3    H267308   2.827   1.349  13.824 -0.9649 -2.4784  1.9412
15273TIP3   OH267309   4.421   1.653   0.992  0.4436 -0.1853 -0.4170
15273TIP3    H167310   4.355   1.584   0.996 -0.3999  0.6525  1.3154
15273TIP3    H267311   4.436   1.677   1.084  1.4767  1.2212 -0.9166
15274TIP3   OH267312   0.496   5.385  14.633  0.5225  0.1995 -0.1632
15274TIP3    H167313   0.565   5.437  14.592  0.2492  1.3966  0.8383
15274TIP3    H267314   0.415   5.416  14.593  0.3307  0.7761  0.6618
15275TIP3   OH267315   6.483   1.710   4.892 -0.1823  0.0087 -0.3724
15275TIP3    H167316   6.462   1.705   4.985 -2.6148 -1.4334 -0.9011
15275TIP3    H267317   6.411   1.760   4.853 -1.0088 -2.1308 -1.8459
15276TIP3   OH267318   6.761   0.646   1.659 -0.1700  0.1644 -0.3669
15276TIP3    H167319   6.766   0.552   1.679 -1.3492  0.2115  0.2406
15276TIP3    H267320   6.820   0.686   1.723  1.3156 -0.2429 -1.4342
15277TIP3   OH267321   5.819   6.533   0.249 -0.0268 -0.0993  0.0645
15277TIP3    H167322   5.835   6.627   0.248 -1.2172  0.1289 -0.4601
15277TIP3    H267323   5.731   6.524   0.212 -1.3386 -1.1433  3.0807
15278TIP3   OH267324   5.360   6.393  15.878  0.1566 -0.1216 -0.7454
15278TIP3    H167325   5.311   6.431  15.805 -0.2787  0.6351 -0.0808
15278TIP3    H267326   5.450   6.419  15.862  0.4635 -1.9053 -2.2203
15279TIP3   OH267327   4.507   3.363  13.836  0.2459  0.2292  0.3956
15279TIP3    H167328   4.538   3.397  13.752  1.7135 -0.0688  0.7780
15279TIP3    H267329   4.488   3.441  13.887 -2.2041  0.4332 -0.6900
15280TIP3   OH267330   0.063   5.344  16.460  0.7694  0.0447 -0.3159
15280TIP3    H167331   0.067   5.373  16.369 -2.1739  1.0379 -0.2467
15280TIP3    H267332   0.127   5.272  16.465  1.1474  0.0601 -3.0914
15281TIP3   OH267333   2.376   5.256  12.762 -0.0282  0.4075 -0.4837
15281TIP3    H167334   2.323   5.237  12.686 -0.6457  0.5913 -0.1039
15281TIP3    H267335   2.382   5.352  12.765  1.5638  0.3798 -1.3583
15282TIP3   OH267336   3.349   4.720  10.285 -0.4322  0.3121 -0.2917
15282TIP3    H167337   3.395   4.789  10.333 -0.4400  2.1513 -2.7701
15282TIP3    H267338   3.268   4.707  10.335  0.1867  1.0746  0.9815
15283TIP3   OH267339   2.672   4.823  14.620 -0.4339  0.0489  1.0836
15283TIP3    H167340   2.642   4.797  14.707 -2.3946  0.8823  0.7244
15283TIP3    H267341   2.608   4.889  14.592  0.4883  0.2263 -0.7552
15284TIP3   OH267342   4.668   1.890   5.524  0.3887 -0.8493 -0.3405
15284TIP3    H167343   4.616   1.818   5.559  0.6954 -0.7822  0.2717
15284TIP3    H267344   4.701   1.857   5.441  0.8702 -1.5889  0.1250
15285TIP3   OH267345   6.595   0.347  16.342  0.1870 -0.3673 -0.4783
15285TIP3    H167346   6.504   0.318  16.341  0.5279 -1.4591 -0.9380
15285TIP3    H267347   6.597   0.418  16.277 -0.2268 -0.6742 -0.8371
15286TIP3   OH267348   4.762   5.967   5.833 -0.0637 -0.0470 -0.3749
15286TIP3    H167349   4.765   6.029   5.761 -1.6674 -1.5446 -1.8566
15286TIP3    H267350   4.754   6.021   5.911  0.2934  1.6089 -1.4306
15287TIP3   OH267351   6.397   1.982   2.046 -0.0937 -0.2892  0.6313
15287TIP3    H167352   6.302   1.992   2.043 -0.0185  0.5466  0.6662
15287TIP3    H267353   6.431   2.072   2.042  0.6832 -0.5508  0.9895
15288TIP3   OH267354   1.774   4.773   4.288  0.1015  0.1139  0.3144
15288TIP3    H167355   1.778   4.800   4.196 -1.8063  3.0022  0.9375
15288TIP3    H267356   1.702   4.710   4.292 -1.0751  1.4201  0.0854
15289TIP3   OH267357   1.141   3.875  15.479  0.0197 -0.5913 -0.2546
15289TIP3    H167358   1.111   3.817  15.549  0.4418  0.2397  0.6465
15289TIP3    H267359   1.221   3.835  15.447  0.8428 -0.0474  1.0203
15290TIP3   OH267360   6.819   3.812   4.280 -0.6193 -0.6084 -0.8475
15290TIP3    H167361   6.805   3.888   4.337  1.0022 -0.2853 -0.8314
15290TIP3    H267362   6.754   3.822   4.211 -0.4073  0.8444 -0.8724
15291TIP3   OH267363   0.296   1.295   2.247 -0.0747  0.0807 -0.9043
15291TIP3    H167364   0.215   1.274   2.201  0.8706  1.3691 -3.3294
15291TIP3    H267365   0.356   1.325   2.179  1.0111  3.4513  1.2805
15292TIP3   OH267366   5.154   2.258  12.353 -0.7298  1.0030  0.0405
15292TIP3    H167367   5.231   2.251  12.296 -1.3839  2.5261 -1.1150
15292TIP3    H267368   5.176   2.206  12.430 -0.4486 -2.6234 -2.2399
15293TIP3   OH267369   1.547   3.738  16.582 -0.3570 -0.2158  0.7165
15293TIP3    H167370   1.639   3.750  16.560 -0.5141 -0.5101 -0.1617
15293TIP3    H267371   1.505   3.820  16.555 -0.6117 -0.7195 -0.4997
15294TIP3   OH267372   3.932   4.883   2.701 -0.0153  0.1110  0.3346
15294TIP3    H167373   3.937   4.978   2.688  0.7379  0.0242 -0.0636
15294TIP3    H267374   4.008   4.862   2.755 -0.2316 -0.2509  0.5025
15295TIP3   OH267375   2.440   3.155  16.522 -0.0658 -0.2098 -0.4117
15295TIP3    H167376   2.360   3.108  16.497  1.3196 -2.6067 -0.5758
15295TIP3    H267377   2.463   3.206  16.444 -0.7734 -0.4440 -0.7876
15296TIP3   OH267378   6.116   2.703  16.672  0.1976  0.4187 -0.3992
15296TIP3    H167379   6.080   2.777  16.623 -0.3363 -0.2719 -1.0512
15296TIP3    H267380   6.175   2.660  16.610  1.3292  0.8931  0.3085
15297TIP3   OH267381   0.914   2.229   1.729  0.7238  0.1017 -0.3043
15297TIP3    H167382   0.890   2.264   1.643  0.6038  0.0733 -0.2824
15297TIP3    H267383   0.957   2.303   1.773 -1.9962  1.1619  0.7927
15298TIP3   OH267384   5.506   3.459   1.457 -0.2429 -0.2323 -0.0807
15298TIP3    H167385   5.566   3.463   1.383  0.0452  0.4371  0.1804
15298TIP3    H267386   5.465   3.546   1.460 -1.3752 -0.7339 -0.3690
15299TIP3   OH267387   3.112   3.176  14.429 -0.3722  0.5824 -0.3516
15299TIP3    H167388   3.027   3.220  14.425 -0.4285  0.5224  0.1240
15299TIP3    H267389   3.174   3.247  14.446 -0.0757  0.9045 -2.4752
15300TIP3   OH267390   5.020   2.919   3.938  1.1813  0.4090 -0.2780
15300TIP3    H167391   5.053   2.920   4.028  1.7635  3.3496 -0.4453
15300TIP3    H267392   4.929   2.946   3.946  0.8664 -0.5504 -0.4912
15301TIP3   OH267393   1.034   1.248  17.078  0.4353 -0.5344  0.1449
15301TIP3    H167394   0.986   1.222  17.157  0.4246  2.0362  1.0654
15301TIP3    H267395   0.967   1.288  17.022  0.9208  0.0999  0.0142
15302TIP3   OH267396   0.126   4.745   1.650  0.0579 -0.2259  0.3317
15302TIP3    H167397   0.119   4.764   1.556  2.5206  0.1703  0.1632
15302TIP3    H267398   0.125   4.832   1.692  0.5088 -0.3058  0.5168
15303TIP3   OH267399   3.598   3.943  10.601  0.2500  0.5866  0.1333
15303TIP3    H167400   3.621   3.860  10.644  3.0437  0.0871 -2.0623
15303TIP3    H267401   3.515   3.924  10.556  0.2673 -0.6373  0.5709
15304TIP3   OH267402   3.489   1.633   3.051  0.1964 -0.1288  0.5130
15304TIP3    H167403   3.412   1.659   3.100  0.2720  1.0105  0.0515
15304TIP3    H267404   3.454   1.595   2.970  0.1150  0.6342  0.1843
15305TIP3   OH267405   4.718   0.940   0.423 -0.3915 -1.1034 -0.0158
15305TIP3    H167406   4.684   0.854   0.398 -0.2187 -1.1488 -0.0917
15305TIP3    H267407   4.793   0.921   0.479 -2.2653 -1.0444  2.7099
15306TIP3   OH267408   2.009   6.031  16.102  0.0213 -0.0595  0.0176
15306TIP3    H167409   1.998   6.073  16.188 -0.6832  0.8594 -0.5039
15306TIP3    H267410   2.008   6.104  16.040 -0.1597 -0.7743 -0.8338
15307TIP3   OH267411   1.141   0.627  11.946 -0.3014  0.1242 -0.5151
15307TIP3    H167412   1.110   0.550  11.994 -0.4050 -0.1016 -0.9401
15307TIP3    H267413   1.186   0.680  12.012 -1.2700  0.2774  0.0331
15308TIP3   OH267414   4.875   3.188   4.664 -0.0993 -0.3565 -0.1785
15308TIP3    H167415   4.906   3.174   4.753  0.1926  0.7330 -0.0937
15308TIP3    H267416   4.893   3.280   4.647 -0.6210 -0.4302 -1.1837
15309TIP3   OH267417   3.412   2.923   3.678  0.0670  0.2984 -0.0942
15309TIP3    H167418   3.340   2.893   3.733  1.5557 -1.0342  1.2413
15309TIP3    H267419   3.384   2.901   3.589 -0.4016 -2.0025  0.5460
15310TIP3   OH267420   1.136   4.196   3.672 -0.3755 -0.1537  0.0121
15310TIP3    H167421   1.081   4.201   3.750  0.1679 -0.7998  0.4416
15310TIP3    H267422   1.096   4.128   3.618 -0.2936 -0.2591  0.0850
15311TIP3   OH267423   1.616   2.797  13.693  0.1508  0.1823  0.0672
15311TIP3    H167424   1.703   2.808  13.732 -0.7208  0.2522  2.1435
15311TIP3    H267425   1.589   2.886  13.669  0.1137  0.3609  0.7341
15312TIP3   OH267426   3.245   4.624  12.115 -0.2797 -0.4559 -0.2032
15312TIP3    H167427   3.339   4.620  12.100  0.0004 -0.5836  1.3567
15312TIP3    H267428   3.209   4.550  12.066  0.3821 -0.2480 -1.0278
15313TIP3   OH267429   5.294   2.470  14.762 -0.1815  0.0780 -0.0228
15313TIP3    H167430   5.362   2.520  14.809  1.6929 -0.8329 -1.6249
15313TIP3    H267431   5.277   2.521  14.683  0.2312 -0.7399 -0.6593
15314TIP3   OH267432   5.065   0.417  15.532 -0.5329  0.0788  0.6705
15314TIP3    H167433   5.154   0.453  15.529 -0.9640  1.3360 -3.1349
15314TIP3    H267434   5.078   0.324  15.549  1.4153  0.4413  1.4348
15315TIP3   OH267435   5.578   1.902  14.785  0.4264 -0.4307  0.2435
15315TIP3    H167436   5.603   1.897  14.693  1.3995 -2.3076  0.5672
15315TIP3    H267437   5.537   1.818  14.804 -0.7847  0.3559  1.2652
15316TIP3   OH267438   4.197   2.793  12.158  0.1640  0.2862  0.4519
15316TIP3    H167439   4.115   2.754  12.127  1.2642 -0.2232 -2.0835
15316TIP3    H267440   4.203   2.766  12.249 -1.6678 -1.1141  0.2192
15317TIP3   OH267441   4.736   1.373   5.548  0.4162 -0.3718 -0.4659
15317TIP3    H167442   4.771   1.292   5.585  2.0163  1.8396  3.4251
15317TIP3    H267443   4.653   1.386   5.592  1.9138  1.8377  1.9674
15318TIP3   OH267444   5.154   2.880   2.327 -0.3769 -0.0265  0.1545
15318TIP3    H167445   5.108   2.944   2.273 -0.1936 -0.3749 -0.4154
15318TIP3    H267446   5.112   2.888   2.413 -2.4353 -1.2634 -0.6612
15319TIP3   OH267447   6.101   4.997   1.108  0.2368 -0.2995  0.2592
15319TIP3    H167448   6.151   4.929   1.064  0.8634  0.0936  0.3386
15319TIP3    H267449   6.091   5.066   1.042  0.5836 -0.0016  0.5063
15320TIP3   OH267450   6.246   6.242  16.546 -0.2550 -0.0367  0.1397
15320TIP3    H167451   6.316   6.294  16.586 -2.2993  1.9174  1.3913
15320TIP3    H267452   6.200   6.304  16.490 -1.7012 -0.9558  0.2778
15321TIP3   OH267453   5.513   5.627  16.417 -0.4581 -0.7395 -0.1041
15321TIP3    H167454   5.466   5.604  16.497  0.1191  0.5021  0.6208
15321TIP3    H267455   5.445   5.663  16.359 -0.8656 -1.5766 -0.1646
15322TIP3   OH267456   2.000   4.089  10.734 -0.1296  0.0193 -0.2316
15322TIP3    H167457   2.024   3.996  10.731 -1.0980 -0.2323 -0.5757
15322TIP3    H267458   2.018   4.122  10.646 -1.9708 -0.4339 -0.8210
15323TIP3   OH267459   2.641   5.072   3.518 -0.0997  0.5692 -0.6149
15323TIP3    H167460   2.706   5.119   3.466  1.6930 -0.9068  0.1726
15323TIP3    H267461   2.682   4.988   3.537 -1.9174 -0.0931  0.6423
15324TIP3   OH267462   5.909   5.218   3.868 -0.2103  0.1244 -0.0175
15324TIP3    H167463   5.825   5.179   3.891 -0.7160  1.3038  0.2321
15324TIP3    H267464   5.903   5.236   3.774  0.7384 -2.0451 -0.5331
15325TIP3   OH267465   5.997   5.472  13.475  0.6933  0.0755  0.2997
15325TIP3    H167466   6.018   5.518  13.556  0.8600 -1.3855  1.1221
15325TIP3    H267467   5.915   5.511  13.446  0.5100  0.4673  1.3006
15326TIP3   OH267468   4.418   2.338   2.157  0.3364  0.3334 -0.2254
15326TIP3    H167469   4.423   2.314   2.064  0.8756  0.8228 -0.3230
15326TIP3    H267470   4.401   2.432   2.158 -0.1867  0.2400  0.1720
15327TIP3   OH267471   0.679   5.314   1.722  0.0966  0.6695 -0.4190
15327TIP3    H167472   0.586   5.293   1.715  0.3750 -0.9294  0.0792
15327TIP3    H267473   0.688   5.357   1.807 -0.0960  0.1039 -0.1036
15328TIP3   OH267474   5.623   2.877   2.534 -0.2022  0.3794  0.2472
15328TIP3    H167475   5.577   2.876   2.450  1.3117 -1.0336 -0.6205
15328TIP3    H267476   5.607   2.790   2.572  3.5461 -1.1878 -1.2257
15329TIP3   OH267477   4.977   1.685  14.343  0.0606 -0.1823 -0.0465
15329TIP3    H167478   4.942   1.740  14.413  0.8540  1.5656 -0.9338
15329TIP3    H267479   4.928   1.603  14.349 -2.7334  1.3639  0.0520
15330TIP3   OH267480   3.806   5.276  14.578 -0.2226 -0.1333  0.1071
15330TIP3    H167481   3.717   5.243  14.597  0.0580 -1.3044 -0.4907
15330TIP3    H267482   3.821   5.253  14.487  0.3771  0.8486 -0.0548
15331TIP3   OH267483   0.401   3.906   0.918 -0.6176 -0.9027 -0.1533
15331TIP3    H167484   0.375   3.866   0.835  1.6064 -0.2211 -1.2377
15331TIP3    H267485   0.488   3.872   0.935  0.3485  1.5483  0.1627
15332TIP3   OH267486   2.848   3.994  16.669 -0.2185 -0.3987  0.3708
15332TIP3    H167487   2.928   4.040  16.693 -0.3312 -0.4441  0.8486
15332TIP3    H267488   2.850   3.914  16.722 -0.4854 -0.4879  0.2447
15333TIP3   OH267489   4.173   5.420  12.194  0.3646  0.1973 -0.9498
15333TIP3    H167490   4.156   5.354  12.261 -0.1503 -0.0909 -1.3578
15333TIP3    H267491   4.178   5.502  12.241 -0.6357  0.0817 -0.6357
15334TIP3   OH267492   2.049   3.985   6.334  1.2394  0.6096  0.3888
15334TIP3    H167493   2.120   4.001   6.271 -0.0784  0.8133 -1.0835
15334TIP3    H267494   2.015   4.073   6.354  0.0365  0.3813 -0.5648
15335TIP3   OH267495   5.578   0.225   1.242 -0.4849 -0.1596 -0.6836
15335TIP3    H167496   5.575   0.320   1.240  0.3043  0.0468  2.5751
15335TIP3    H267497   5.504   0.200   1.297 -0.4297 -1.4067 -1.1424
15336TIP3   OH267498   1.363   5.611   2.397 -0.0576 -0.3811  0.2180
15336TIP3    H167499   1.301   5.540   2.413 -1.7935  0.7372 -1.2558
15336TIP3    H267500   1.387   5.642   2.485 -1.9446 -0.5431  0.8377
15337TIP3   OH267501   6.249   4.332   3.738  0.6688 -0.2997  0.2852
15337TIP3    H167502   6.254   4.382   3.657  3.0273  2.0156  1.6593
15337TIP3    H267503   6.164   4.355   3.776  0.3924  0.1809 -0.6099
15338TIP3   OH267504   1.268   4.104  16.070  0.3983 -0.3487 -0.4400
15338TIP3    H167505   1.255   4.060  15.986  0.1037  2.2537 -1.8808
15338TIP3    H267506   1.363   4.101  16.084  1.1214  2.8791 -3.2379
15339TIP3   OH267507   2.881   0.625  14.828  0.0080 -0.4037  0.5396
15339TIP3    H167508   2.798   0.651  14.790  1.3946  0.3140 -2.2212
15339TIP3    H267509   2.869   0.533  14.851 -0.9657 -0.9219 -1.7610
15340TIP3   OH267510   3.244   4.830   3.769  0.1837  0.2241 -0.2988
15340TIP3    H167511   3.183   4.760   3.794 -1.0248  1.1790 -0.4790
15340TIP3    H267512   3.329   4.800   3.801 -0.0836 -1.8626 -1.3684
15341TIP3   OH267513   4.123   3.531   3.564 -0.1238  0.2179 -0.1199
15341TIP3    H167514   4.050   3.581   3.601 -0.5142 -0.1600 -0.3591
15341TIP3    H267515   4.089   3.441   3.558  0.4139  0.0112 -0.0995
15342TIP3   OH267516   2.830   4.660   2.459 -1.0239  0.1065  0.5684
15342TIP3    H167517   2.908   4.657   2.514 -1.2699  1.1854  1.0041
15342TIP3    H267518   2.839   4.585   2.401  0.0860 -0.0761  0.9466
15343TIP3   OH267519   5.524   4.082  10.387 -0.6680 -0.3717  0.0112
15343TIP3    H167520   5.556   3.992  10.378  0.0547 -0.7071  4.0002
15343TIP3    H267521   5.596   4.137  10.358 -1.3091 -0.9353 -2.9929
15344TIP3   OH267522   1.805   1.818  14.421 -0.3218  0.0670  0.2965
15344TIP3    H167523   1.886   1.769  14.406  1.5010  3.7375 -4.5711
15344TIP3    H267524   1.830   1.887  14.483 -0.0813  0.3752 -0.1376
15345TIP3   OH267525   6.088   5.710  15.633  0.2775 -0.4116  0.1161
15345TIP3    H167526   6.081   5.803  15.612  1.7913 -0.6255 -1.5409
15345TIP3    H267527   6.181   5.696  15.650 -0.1278 -1.3726  1.7687
15346TIP3   OH267528   1.640   1.695  13.825  0.4671  0.3660  0.1419
15346TIP3    H167529   1.629   1.613  13.873 -0.1618  0.2532 -0.1765
15346TIP3    H267530   1.556   1.707  13.780  0.0404  1.8727  1.2473
15347TIP3   OH267531   2.010   0.298   4.616  0.2471 -0.5594  0.3871
15347TIP3    H167532   2.082   0.301   4.680  0.3468 -0.8607  0.2897
15347TIP3    H267533   2.048   0.257   4.539  0.9071  2.2385 -0.8813
15348TIP3   OH267534   6.035   3.233  12.704  0.0059 -0.0048  0.1015
15348TIP3    H167535   6.039   3.315  12.654  1.3593  0.8287  1.4977
15348TIP3    H267536   5.947   3.233  12.743 -0.0329  0.7434  0.0240
15349TIP3   OH267537   1.327   3.075   6.383  0.1996 -0.0009  0.0523
15349TIP3    H167538   1.284   3.057   6.466  0.2918 -1.2447 -0.1369
15349TIP3    H267539   1.258   3.065   6.317  0.7019 -2.0565 -0.2573
15350TIP3   OH267540   3.687   1.818  15.150  0.3478  0.0606 -0.1782
15350TIP3    H167541   3.748   1.777  15.088 -2.3347 -0.6063 -2.6038
15350TIP3    H267542   3.618   1.753  15.162 -0.4084  1.1293  1.7142
15351TIP3   OH267543   4.076   5.451   2.779 -0.1520 -0.0322  0.4750
15351TIP3    H167544   4.095   5.527   2.724  0.0232  0.1819  0.8325
15351TIP3    H267545   3.987   5.425   2.753  0.4663 -0.8480 -0.9786
15352TIP3   OH267546   0.543   4.403   6.177 -0.1197 -0.0031  0.3356
15352TIP3    H167547   0.577   4.461   6.245  2.4130 -0.4062 -0.5104
15352TIP3    H267548   0.613   4.341   6.160 -1.0245 -0.4761 -2.0228
15353TIP3   OH267549   2.676   5.448  16.499  0.8033 -0.6179 -0.3776
15353TIP3    H167550   2.741   5.476  16.435  0.7139 -0.4254 -0.3857
15353TIP3    H267551   2.610   5.517  16.497  0.8820 -0.5299  0.0374
15354TIP3   OH267552   5.877   1.997  12.742 -0.7373  0.1178  0.1895
15354TIP3    H167553   5.883   1.934  12.814 -0.3430  0.1423  0.1803
15354TIP3    H267554   5.822   2.067  12.776 -2.1703 -0.7582 -0.1970
15355TIP3   OH267555   1.145   3.642   1.978  0.2378 -0.3197  0.6968
15355TIP3    H167556   1.087   3.704   2.022  1.6197  1.9622 -0.5147
15355TIP3    H267557   1.222   3.638   2.035  0.1225 -1.0624  0.8153
15356TIP3   OH267558   2.348   4.039   4.546  0.7748  0.2684 -0.1572
15356TIP3    H167559   2.358   4.070   4.636  1.6692  1.3673 -0.6090
15356TIP3    H267560   2.436   4.012   4.520  0.9768  1.9198 -1.3636
15357TIP3   OH267561   2.915   5.663   3.746 -0.2353 -0.2378 -0.0087
15357TIP3    H167562   2.930   5.734   3.808  0.1763 -0.1008 -0.2566
15357TIP3    H267563   3.003   5.631   3.725 -0.4520 -2.4365  1.9443
15358TIP3   OH267564   0.328   5.582   3.911  0.0051 -0.7951  0.6607
15358TIP3    H167565   0.398   5.568   3.975 -0.4430 -0.2598  1.2833
15358TIP3    H267566   0.313   5.496   3.873  1.2505 -0.8518  0.2499
15359TIP3   OH267567   1.046   5.790  16.228 -0.1138  0.4574  0.0757
15359TIP3    H167568   1.048   5.874  16.183  1.1026  0.9075  0.9042
15359TIP3    H267569   1.128   5.788  16.278 -0.4742 -0.8959  0.6570
15360TIP3   OH267570   3.349   6.230   6.374 -0.1990  0.4696  0.1789
15360TIP3    H167571   3.313   6.310   6.334 -0.5100 -0.0516 -0.6118
15360TIP3    H267572   3.273   6.183   6.407  0.1000  1.2082  2.0614
15361TIP3   OH267573   3.174   4.004   5.645  0.1525 -0.2901  0.2175
15361TIP3    H167574   3.167   4.033   5.555  1.3042 -0.3144  0.0962
15361TIP3    H267575   3.246   4.056   5.681  0.5892 -1.2194  0.7207
15362TIP3   OH267576   3.711   5.171   2.438  0.1453 -0.4800  0.8217
15362TIP3    H167577   3.770   5.096   2.432  0.4897 -0.1134 -0.7784
15362TIP3    H267578   3.647   5.158   2.368  0.3169  0.7893  0.4003
15363TIP3   OH267579   4.137   6.403   2.835  0.5810  0.0640 -0.2587
15363TIP3    H167580   4.089   6.351   2.771  0.3496  1.5565 -1.3532
15363TIP3    H267581   4.093   6.386   2.918  0.1854 -1.0530 -0.6791
15364TIP3   OH267582   6.749   0.943  13.291  0.0635 -0.4891  0.2798
15364TIP3    H167583   6.746   1.038  13.300  1.7033 -0.3280 -0.5065
15364TIP3    H267584   6.662   0.913  13.319  0.0098  1.0941  1.9752
15365TIP3   OH267585   4.912   5.225   0.406  0.1811  0.0992 -0.2951
15365TIP3    H167586   4.939   5.138   0.433  0.4915  0.6262  1.2293
15365TIP3    H267587   4.976   5.252   0.340  0.0240 -0.8443 -0.8448
15366TIP3   OH267588   3.076   6.084  15.374  0.3066 -0.4536  0.0732
15366TIP3    H167589   3.032   6.140  15.310  1.4419 -0.0742 -0.3894
15366TIP3    H267590   3.122   6.145  15.432  0.5948 -0.8574  0.2753
15367TIP3   OH267591   1.286   5.353  12.025 -0.5675  0.5149 -0.3934
15367TIP3    H167592   1.298   5.327  11.934 -1.5124 -0.6683 -0.1950
15367TIP3    H267593   1.261   5.446  12.020  1.1529  0.9908 -1.1970
15368TIP3   OH267594   0.293   2.462  11.769  0.4048  0.2593 -0.0411
15368TIP3    H167595   0.375   2.508  11.783  0.0996  1.3433 -1.5010
15368TIP3    H267596   0.301   2.424  11.681  0.0443 -1.2195  0.5221
15369TIP3   OH267597   2.206   6.055   0.891 -0.2052  0.0074  0.7466
15369TIP3    H167598   2.216   6.037   0.798  0.9226  0.9015  0.6767
15369TIP3    H267599   2.186   5.969   0.930 -0.1164 -0.4670 -0.2296
15370TIP3   OH267600   3.426   1.966   1.100 -0.2960 -0.0359  0.2411
15370TIP3    H167601   3.354   1.999   1.048 -0.8642 -1.3468  0.1626
15370TIP3    H267602   3.452   1.885   1.057  0.1610 -0.4091  1.1842
15371TIP3   OH267603   5.497   2.940   5.091  0.8996 -0.4580 -0.4111
15371TIP3    H167604   5.473   2.849   5.072 -1.3348 -0.6986  2.7307
15371TIP3    H267605   5.471   2.988   5.013 -1.3237 -2.0913 -0.7855
15372TIP3   OH267606   3.241   5.609  14.322  0.2970 -0.0145  0.3205
15372TIP3    H167607   3.320   5.649  14.287  0.0970 -1.0932 -1.4495
15372TIP3    H267608   3.169   5.651  14.274 -0.1735  0.3412  1.3016
15373TIP3   OH267609   0.159   0.175   3.046  0.3457  0.2953  0.1401
15373TIP3    H167610   0.086   0.236   3.034  1.7730  1.9169 -0.6349
15373TIP3    H267611   0.221   0.221   3.103  0.8353 -1.0216  0.7251
15374TIP3   OH267612   6.243   3.770  11.251 -0.0406 -0.2259  0.1053
15374TIP3    H167613   6.279   3.858  11.262  0.5858 -0.5859  1.0436
15374TIP3    H267614   6.319   3.712  11.252 -0.5156 -0.8589  0.4191
15375TIP3   OH267615   1.533   5.399   3.796 -1.2026 -0.9729  0.0139
15375TIP3    H167616   1.485   5.347   3.731  0.1488 -1.0465 -0.9657
15375TIP3    H267617   1.542   5.485   3.756 -0.7475 -0.8864  0.2927
15376TIP3   OH267618   2.595   1.207  13.032  0.0583 -0.3050  0.0640
15376TIP3    H167619   2.661   1.225  12.965  0.5311 -0.2366  0.5396
15376TIP3    H267620   2.552   1.291  13.047  0.8175 -0.0231  0.7509
15377TIP3   OH267621   6.805   2.499   3.196 -1.0037  0.7014 -0.0519
15377TIP3    H167622   6.854   2.434   3.145  0.9107  1.3692  0.8361
15377TIP3    H267623   6.754   2.547   3.131 -0.1349  0.2503 -1.0979
15378TIP3   OH267624   4.513   5.731  17.157 -0.1340 -0.6256  0.2947
15378TIP3    H167625   4.476   5.704  17.240  2.5828  0.7237  2.1035
15378TIP3    H267626   4.548   5.651  17.118  0.0271 -1.0414  1.2697
15379TIP3   OH267627   3.770   2.987   4.958  0.6229 -0.5688  0.2265
15379TIP3    H167628   3.731   2.900   4.949 -0.4426 -0.1165  0.2937
15379TIP3    H267629   3.862   2.970   4.979  0.5689 -1.6711 -0.3423
15380TIP3   OH267630   4.706   4.772  16.784  0.1501 -0.6208 -0.3155
15380TIP3    H167631   4.687   4.838  16.851  2.1863 -0.0663 -0.2372
15380TIP3    H267632   4.757   4.818  16.718  0.4489 -1.8109 -0.9382
15381TIP3   OH267633   1.195   6.408  14.619 -0.4731 -0.0131  0.4776
15381TIP3    H167634   1.253   6.473  14.579  0.0638 -0.0171  1.2329
15381TIP3    H267635   1.216   6.326  14.575  0.5905 -0.1511  1.2034
15382TIP3   OH267636   3.973   1.023   3.087  0.0840 -0.3641  0.0007
15382TIP3    H167637   3.983   0.971   3.167  1.5957  0.1568  0.1908
15382TIP3    H267638   3.983   1.114   3.116 -0.8388 -0.0657 -0.5753
15383TIP3   OH267639   3.350   6.779   1.017 -0.0932 -0.0460 -0.2761
15383TIP3    H167640   3.254   6.784   1.019 -0.2203 -1.3991 -1.5376
15383TIP3    H267641   3.379   6.870   1.012 -1.4222  0.3221 -2.3206
15384TIP3   OH267642   0.692   0.631  17.074  0.2502  0.3856 -0.0591
15384TIP3    H167643   0.618   0.690  17.064 -0.0697 -0.1037 -0.7152
15384TIP3    H267644   0.677   0.563  17.007  0.1491 -0.9003  1.2134
15385TIP3   OH267645   2.299   4.063   4.808 -0.2292 -0.1069 -0.8546
15385TIP3    H167646   2.211   4.100   4.809  0.2063  0.9586 -0.0783
15385TIP3    H267647   2.286   3.970   4.827 -1.1659  0.0728 -0.5772
15386TIP3   OH267648   4.644   2.054   0.997 -0.0468 -0.0975 -0.2412
15386TIP3    H167649   4.548   2.051   0.990 -0.3244  1.7484  1.7771
15386TIP3    H267650   4.671   2.113   0.926 -0.5953  0.8020  0.2854
15387TIP3   OH267651   3.427   3.206  14.760 -0.0131  0.1097 -0.3667
15387TIP3    H167652   3.383   3.270  14.816 -2.7036 -0.2092 -1.9333
15387TIP3    H267653   3.520   3.229  14.765 -0.2082  0.7004  3.3393
15388TIP3   OH267654   5.341   5.672   5.694 -0.4819 -0.5212 -0.0794
15388TIP3    H167655   5.423   5.719   5.712 -1.0394 -0.1178  1.6155
15388TIP3    H267656   5.307   5.714   5.615  0.4001  0.0662 -0.1678
15389TIP3   OH267657   0.326   0.542   4.715  0.1108  0.1801 -0.2165
15389TIP3    H167658   0.311   0.591   4.795 -0.9571 -0.6020  0.0870
15389TIP3    H267659   0.249   0.561   4.661  0.6599  0.4337 -0.9258
15390TIP3   OH267660   3.941   5.349  12.660  0.4179  0.2091  0.1034
15390TIP3    H167661   3.871   5.410  12.684 -1.0430 -1.5473  0.5278
15390TIP3    H267662   3.978   5.320  12.744  0.7427  0.1239 -0.0683
15391TIP3   OH267663   1.041   4.486  11.550  0.4976 -0.4880 -0.0976
15391TIP3    H167664   0.955   4.523  11.568  0.4585 -0.5913 -0.0691
15391TIP3    H267665   1.080   4.545  11.486 -0.0143 -1.0144 -0.9165
15392TIP3   OH267666   6.585   6.703   0.617  0.1513 -0.1127  0.1414
15392TIP3    H167667   6.535   6.728   0.540  0.6219  0.1970 -0.0646
15392TIP3    H267668   6.666   6.753   0.611 -0.5930  1.3902  1.8285
15393TIP3   OH267669   6.155   3.802   2.995  0.3335 -0.0837 -0.5810
15393TIP3    H167670   6.199   3.872   3.041  1.0197  1.9568 -4.0055
15393TIP3    H267671   6.225   3.742   2.968  0.0388 -0.8354  0.2756
15394TIP3   OH267672   4.176   3.912  15.138 -0.9799 -0.1029  0.1996
15394TIP3    H167673   4.225   3.915  15.221  0.5366  0.2278 -0.6793
15394TIP3    H267674   4.151   4.003  15.122  0.4599  0.1631 -0.6795
15395TIP3   OH267675   2.541   6.809  16.348  0.0087 -0.1238  0.5520
15395TIP3    H167676   2.602   6.743  16.316  1.6151  1.8597 -0.7931
15395TIP3    H267677   2.588   6.852  16.420 -1.0283 -0.4397  1.4460
15396TIP3   OH267678   4.213   0.080   2.248  0.1205 -0.6226  0.4136
15396TIP3    H167679   4.146   0.026   2.208 -0.6027 -0.6337  1.5985
15396TIP3    H267680   4.272   0.102   2.176 -0.7262 -1.2373 -0.4946
15397TIP3   OH267681   2.465   0.510   2.147 -0.1348  0.1462 -0.4067
15397TIP3    H167682   2.472   0.590   2.200  0.9443  1.1123 -1.9505
15397TIP3    H267683   2.536   0.454   2.179 -0.9920 -0.3227  0.7887
15398TIP3   OH267684   2.743   2.597   5.507  0.6313  0.7236  0.1317
15398TIP3    H167685   2.701   2.676   5.474 -0.5244 -0.2982 -0.9288
15398TIP3    H267686   2.684   2.565   5.575  1.1778  0.8359  0.6716
15399TIP3   OH267687   2.875   3.451  11.763 -0.9935  0.3195  0.5212
15399TIP3    H167688   2.824   3.479  11.687 -1.5107  0.8116  1.0376
15399TIP3    H267689   2.879   3.356  11.756 -1.9860  0.2750  0.4680
15400TIP3   OH267690   6.785   2.873   5.468 -0.2135  0.2754  0.0983
15400TIP3    H167691   6.827   2.959   5.472  1.7610 -0.6025 -0.5370
15400TIP3    H267692   6.739   2.873   5.384  0.1107  0.5871 -0.0844
15401TIP3   OH267693   4.071   6.515   1.351 -0.0190  0.1389  0.6384
15401TIP3    H167694   3.982   6.484   1.339 -0.1002  0.9916 -1.4374
15401TIP3    H267695   4.096   6.485   1.438 -2.4682  0.2522  1.4529
15402TIP3   OH267696   5.735   2.640  14.499 -0.1464  0.5515 -0.2101
15402TIP3    H167697   5.643   2.639  14.526 -0.5183 -2.3610 -1.1884
15402TIP3    H267698   5.739   2.706  14.430 -1.2513  1.4145  0.5045
15403TIP3   OH267699   3.578   4.479  13.785  0.6144 -0.4474  0.2313
15403TIP3    H167700   3.648   4.511  13.842 -1.2743  0.6124  2.0787
15403TIP3    H267701   3.549   4.557  13.738 -0.3203 -0.5492  0.6192
15404TIP3   OH267702   3.887   5.571   0.162  0.1313  0.1619 -0.0172
15404TIP3    H167703   3.922   5.512   0.095  0.5219 -0.0021  0.3293
15404TIP3    H267704   3.803   5.601   0.126 -1.4019 -2.6251  0.9327
15405TIP3   OH267705   1.582   3.398  14.968 -0.1288  0.4053  0.4386
15405TIP3    H167706   1.561   3.351  15.048  2.1317 -0.3666  0.6582
15405TIP3    H267707   1.678   3.403  14.968 -0.0159 -0.1030 -2.4705
15406TIP3   OH267708   2.898   6.093  12.186 -0.3476  0.4469 -0.6490
15406TIP3    H167709   2.844   6.015  12.198 -1.4292  1.2856  0.0966
15406TIP3    H267710   2.905   6.103  12.091 -0.7049 -0.2081 -0.7488
15407TIP3   OH267711   1.263   5.884  16.404  0.4819  0.1087 -0.4806
15407TIP3    H167712   1.262   5.977  16.425  1.2400  0.0945 -0.3519
15407TIP3    H267713   1.316   5.844  16.474 -1.6729 -0.7456  0.7524
15408TIP3   OH267714   3.811   4.901   1.035  0.3200 -0.0490 -0.0746
15408TIP3    H167715   3.875   4.970   1.015  1.2197 -0.2836  1.7109
15408TIP3    H267716   3.853   4.820   1.008 -0.1300 -0.0314 -0.8445
15409TIP3   OH267717   0.779   3.186  13.032  0.2774  0.1141  0.2153
15409TIP3    H167718   0.844   3.132  12.987  0.5154  0.1359  0.5289
15409TIP3    H267719   0.707   3.126  13.051  0.4884 -0.0641  0.4528
15410TIP3   OH267720   4.424   3.605   5.537  0.0233 -0.2951 -0.0171
15410TIP3    H167721   4.338   3.563   5.531  0.4500 -1.0733 -0.8884
15410TIP3    H267722   4.466   3.562   5.612 -0.6194  0.6419  0.9156
15411TIP3   OH267723   0.071   1.421   0.239  0.1055 -0.3055  0.0353
15411TIP3    H167724   0.150   1.390   0.196 -0.6575 -2.8171  0.2620
15411TIP3    H267725   0.094   1.425   0.332  0.4742  0.8449 -0.0841
15412TIP3   OH267726   3.534   4.503  16.824 -0.3914 -0.4515 -0.3685
15412TIP3    H167727   3.589   4.527  16.750  0.3921  0.0951  0.3689
15412TIP3    H267728   3.459   4.562  16.819 -1.4027 -1.7735 -1.8799
15413TIP3   OH267729   3.453   0.852   4.962  0.8464  0.5160 -0.1004
15413TIP3    H167730   3.401   0.870   5.040  0.8836 -1.2749  0.3776
15413TIP3    H267731   3.509   0.929   4.952  0.2236  1.1581  1.1165
15414TIP3   OH267732   6.791   1.720  16.579  0.2260  0.4917  0.0611
15414TIP3    H167733   6.710   1.770  16.570  0.3681  1.1707  2.0229
15414TIP3    H267734   6.770   1.653  16.645  0.3157 -1.4887 -1.8129
15415TIP3   OH267735   1.261   0.235   6.012  0.5163  0.2549 -0.1205
15415TIP3    H167736   1.272   0.200   5.923  2.7919  0.0094  0.1719
15415TIP3    H267737   1.174   0.206   6.039  0.1586 -0.4826 -1.9173
15416TIP3   OH267738   3.175   3.729  15.421  0.2126  0.0668 -0.2309
15416TIP3    H167739   3.270   3.741  15.428  0.4473 -2.1359  1.3943
15416TIP3    H267740   3.141   3.759  15.505 -0.5024  0.4246 -0.6406
15417TIP3   OH267741   0.321   1.683  13.348 -0.3622 -0.2615 -0.1424
15417TIP3    H167742   0.326   1.705  13.441 -0.4814 -0.5716 -0.0625
15417TIP3    H267743   0.373   1.751  13.305  0.0016 -0.3315  0.1799
15418TIP3   OH267744   5.746   5.075  14.815  0.2153  0.2610 -0.2896
15418TIP3    H167745   5.787   5.090  14.900 -0.5162 -1.4555  0.4043
15418TIP3    H267746   5.671   5.135  14.813 -1.8845 -2.0878  1.8594
15419TIP3   OH267747   0.175   4.935  15.975 -0.7818 -0.3607  0.0465
15419TIP3    H167748   0.207   4.901  15.891  1.9202  1.4360  0.2129
15419TIP3    H267749   0.164   4.857  16.029  1.5698 -1.3134 -0.7166
15420TIP3   OH267750   4.585   0.040   3.657 -0.1654  0.8276 -0.2124
15420TIP3    H167751   4.580  -0.056   3.652 -1.5605  0.7820  0.9958
15420TIP3    H267752   4.631   0.066   3.578 -0.3728 -0.8021 -0.9208
15421TIP3   OH267753   3.976   5.570  12.046  0.2060 -0.0970  0.6223
15421TIP3    H167754   4.000   5.658  12.015  0.7996 -0.6640 -0.5764
15421TIP3    H267755   4.060   5.530  12.069  0.0744 -0.8662 -0.2290
15422TIP3   OH267756   6.621   0.073   1.171 -0.1863 -0.1863  0.1816
15422TIP3    H167757   6.598   0.029   1.090  0.1149 -1.0507  0.5531
15422TIP3    H267758   6.537   0.097   1.210 -0.3539 -0.5084  0.0191
15423TIP3   OH267759   3.275   4.645   5.042 -0.0373 -0.0571  0.1775
15423TIP3    H167760   3.324   4.724   5.018 -1.4077  1.9448  3.3619
15423TIP3    H267761   3.184   4.666   5.022 -0.2601 -1.5299 -0.4578
15424TIP3   OH267762   5.827   6.142  16.790 -0.2023  0.0176  0.5412
15424TIP3    H167763   5.920   6.154  16.810 -0.2889 -0.3585  1.1995
15424TIP3    H267764   5.824   6.063  16.737 -0.2746 -0.8349  1.7638
15425TIP3   OH267765   0.551   0.044   1.854  0.3712  0.0953 -0.2827
15425TIP3    H167766   0.503  -0.038   1.850 -0.6943  0.7589 -3.7718
15425TIP3    H267767   0.640   0.019   1.880 -0.5716 -1.7433  1.4277
15426TIP3   OH267768   4.991   3.572   4.022 -0.4298 -0.0431  0.2219
15426TIP3    H167769   5.080   3.547   4.048 -1.0748 -1.4860  1.2030
15426TIP3    H267770   4.940   3.564   4.103 -2.0035 -2.0742 -0.8662
15427TIP3   OH267771   3.478   6.676  15.437  0.5833 -0.0784 -0.5037
15427TIP3    H167772   3.561   6.637  15.410 -0.4371 -1.2154 -2.2053
15427TIP3    H267773   3.441   6.713  15.357 -1.1926 -0.8762 -0.1091
15428TIP3   OH267774   2.768   4.504  16.558 -0.1075 -0.0584  0.1775
15428TIP3    H167775   2.758   4.410  16.577 -0.5041  0.0487  0.5187
15428TIP3    H267776   2.706   4.547  16.617  1.2647  0.5481  1.2359
15429TIP3   OH267777   4.618   4.517   4.569 -0.6288 -0.2711  0.2885
15429TIP3    H167778   4.535   4.483   4.602 -0.4721 -1.6267 -0.6465
15429TIP3    H267779   4.604   4.529   4.475 -0.0160  0.2621  0.2570
15430TIP3   OH267780   0.799   4.201  10.700 -0.1885 -0.1215 -0.3510
15430TIP3    H167781   0.827   4.219  10.611 -0.9107 -0.3211 -0.6227
15430TIP3    H267782   0.863   4.248  10.755  0.4942 -0.3338 -0.9533
15431TIP3   OH267783   3.208   0.279  11.348 -0.3950  0.5405 -0.4375
15431TIP3    H167784   3.245   0.367  11.346 -0.6740  0.7122  0.8128
15431TIP3    H267785   3.138   0.281  11.283  1.5177  0.2994 -2.6288
15432TIP3   OH267786   3.507   2.870   5.944 -0.7977 -0.3903  0.1912
15432TIP3    H167787   3.544   2.906   6.025 -1.0491 -1.0149  0.5911
15432TIP3    H267788   3.412   2.882   5.953 -0.9213 -1.5778  0.5465
15433TIP3   OH267789   4.192   3.713   4.914 -0.2010  0.3185  0.4876
15433TIP3    H167790   4.246   3.722   4.993  0.9139  0.7950 -0.3003
15433TIP3    H267791   4.113   3.764   4.934 -0.4038 -0.4248  1.6836
15434TIP3   OH267792   2.041   6.626   3.193  0.3023  0.2931  0.3673
15434TIP3    H167793   2.074   6.716   3.192  0.8048  0.1222 -1.0706
15434TIP3    H267794   2.021   6.607   3.101 -1.5699 -0.4319  0.8745
15435TIP3   OH267795   3.243   5.933  11.335  0.4074  0.4742  0.2946
15435TIP3    H167796   3.284   6.013  11.300 -2.3160  0.5544 -3.3431
15435TIP3    H267797   3.156   5.932  11.296 -0.9157 -2.6711  2.8561
15436TIP3   OH267798   6.667   1.270  12.426  0.1069  0.0799  0.3170
15436TIP3    H167799   6.728   1.221  12.481 -0.4670 -0.2426  0.6687
15436TIP3    H267800   6.719   1.296  12.350  0.7156 -0.0868  0.6705
15437TIP3   OH267801   2.540   2.254  15.448  0.2973 -0.1478 -0.1489
15437TIP3    H167802   2.529   2.311  15.372  0.6958  0.5931  0.3266
15437TIP3    H267803   2.492   2.299  15.518  0.9840 -0.1694  0.3428
15438TIP3   OH267804   3.356   6.642   5.725 -0.0763  0.8750 -0.7624
15438TIP3    H167805   3.325   6.556   5.696 -0.5347  0.5585  0.5840
15438TIP3    H267806   3.403   6.624   5.807  0.4348  1.8262 -0.8329
15439TIP3   OH267807   0.405   1.922  12.733  0.0209 -0.4565 -0.2604
15439TIP3    H167808   0.374   1.990  12.793  0.3684  2.1618 -2.8698
15439TIP3    H267809   0.329   1.864  12.722 -1.8092  1.9645 -1.2603
15440TIP3   OH267810   2.791   1.798   1.721 -0.3013  0.6360  0.0861
15440TIP3    H167811   2.698   1.802   1.743 -0.3325  2.0463 -0.2175
15440TIP3    H267812   2.820   1.713   1.754 -1.5661  0.4264  0.7016
15441TIP3   OH267813   1.432   1.409  12.437  0.4293 -0.6392 -0.1784
15441TIP3    H167814   1.427   1.377  12.527 -0.9165  0.2223  0.0789
15441TIP3    H267815   1.370   1.355  12.389 -0.3775  0.2293 -0.1480
15442TIP3   OH267816   4.348   6.143   3.413 -0.7219  0.3094 -0.2032
15442TIP3    H167817   4.389   6.058   3.394  0.6488  0.6684  0.9985
15442TIP3    H267818   4.324   6.138   3.506 -2.0279  0.7003 -0.4937
15443TIP3   OH267819   0.277   5.323  13.788  0.2772  0.2420  0.3797
15443TIP3    H167820   0.240   5.409  13.809 -0.3554  0.1173 -0.1784
15443TIP3    H267821   0.322   5.296  13.868  1.0856  1.3926  0.3302
15444TIP3   OH267822   0.771   6.035  16.877 -0.5450 -0.1054 -0.7214
15444TIP3    H167823   0.701   6.070  16.932  1.0051 -1.3879  2.2361
15444TIP3    H267824   0.826   6.111  16.856 -0.3017  0.1829  0.8734
15445TIP3   OH267825   3.367   4.419   4.362  0.7506  0.2149  0.3498
15445TIP3    H167826   3.295   4.359   4.385  0.3059  1.0268  1.1432
15445TIP3    H267827   3.410   4.377   4.287  0.4813 -1.1105  0.9099
15446TIP3   OH267828   6.095   2.765   4.769 -0.0465 -0.3264 -0.4525
15446TIP3    H167829   6.062   2.710   4.698  2.6741 -0.3151 -1.8429
15446TIP3    H267830   6.190   2.752   4.768  0.1678  0.1377  2.8534
15447TIP3   OH267831   5.562   0.654  10.501  0.1111  0.0375 -0.0357
15447TIP3    H167832   5.480   0.647  10.548  1.1868  0.9530  2.1062
15447TIP3    H267833   5.583   0.748  10.503  1.7454 -0.3024  0.5020
15448TIP3   OH267834   3.754   2.685  16.047  0.0797 -0.0161 -0.3297
15448TIP3    H167835   3.701   2.626  15.993  0.7658  0.3326 -1.4156
15448TIP3    H267836   3.709   2.769  16.041 -0.4916 -0.2450  0.6175
15449TIP3   OH267837   3.783   5.470  13.821  0.0682 -0.1171  0.3348
15449TIP3    H167838   3.821   5.528  13.755 -0.4536  1.4750  1.3727
15449TIP3    H267839   3.830   5.491  13.901 -0.4790 -0.7811  0.8413
15450TIP3   OH267840   1.564   3.507   1.785  0.1992  0.2775  0.1950
15450TIP3    H167841   1.635   3.566   1.809 -0.2123  1.2185 -0.8122
15450TIP3    H267842   1.608   3.430   1.750  0.7511 -0.2657  1.9649
15451TIP3   OH267843   5.838   2.759  14.157 -0.3984  0.3018 -0.0834
15451TIP3    H167844   5.822   2.849  14.127 -1.6441  0.5124  1.1119
15451TIP3    H267845   5.785   2.705  14.098  0.1761  0.3487 -0.6609
15452TIP3   OH267846   4.893   0.073   4.304 -0.3773 -0.1746  0.2842
15452TIP3    H167847   4.934   0.144   4.354 -0.5442 -0.4265  0.7781
15452TIP3    H267848   4.864   0.010   4.370 -0.7084 -0.4527 -0.1210
15453TIP3   OH267849   4.025   5.030  11.913  0.8733  0.3373  0.6405
15453TIP3    H167850   3.955   5.021  11.977  0.4477  1.4303  0.3548
15453TIP3    H267851   4.068   4.944  11.911 -0.7390 -0.4908  0.4672
15454TIP3   OH267852   2.371   4.655  17.069 -0.6588  0.4241  0.6285
15454TIP3    H167853   2.417   4.702  17.139 -1.8795 -0.3793  2.0264
15454TIP3    H267854   2.341   4.574  17.111  1.8990 -2.0164 -1.8067
15455TIP3   OH267855   0.166   1.722   0.290 -0.2690 -0.1448 -0.0296
15455TIP3    H167856   0.186   1.679   0.373  0.8109 -1.0833 -0.7630
15455TIP3    H267857   0.244   1.709   0.236 -1.1981 -0.1029 -1.4252
15456TIP3   OH267858   5.866   0.404   1.623 -0.0631 -0.2773 -0.2330
15456TIP3    H167859   5.784   0.362   1.595 -0.9593  1.6655 -0.6896
15456TIP3    H267860   5.894   0.353   1.699 -1.5978 -1.1174 -0.1793
15457TIP3   OH267861   1.114   0.277  14.970  0.4514  0.1059  0.0040
15457TIP3    H167862   1.155   0.219  15.033  0.8173  0.0294 -0.2982
15457TIP3    H267863   1.153   0.363  14.987 -1.4587  0.7124  1.7089
15458TIP3   OH267864   0.612   1.494  11.973  0.1182 -0.2054  0.2256
15458TIP3    H167865   0.577   1.456  12.054 -0.4851  2.4269  1.2981
15458TIP3    H267866   0.548   1.562  11.949  0.1870 -1.0468 -2.6197
15459TIP3   OH267867   5.767   3.184  10.900  0.3013 -0.3505  0.0291
15459TIP3    H167868   5.796   3.095  10.881 -0.9042 -0.2576 -2.7063
15459TIP3    H267869   5.846   3.237  10.896  0.6081 -0.8858 -1.4197
15460TIP3   OH267870   3.192   6.641   3.312 -0.6128 -0.0681  0.2209
15460TIP3    H167871   3.173   6.548   3.301 -1.7202  0.1370  0.2971
15460TIP3    H267872   3.192   6.677   3.223  1.3126 -0.3870  0.0440
15461TIP3   OH267873   2.171   5.194   3.345  0.0880 -0.7215  0.3086
15461TIP3    H167874   2.199   5.188   3.254 -1.4322 -2.3857 -0.1255
15461TIP3    H267875   2.215   5.121   3.389  1.7124  0.7532  1.2086
15462TIP3   OH267876   3.312   4.361  12.585  0.4181 -0.4594  0.9300
15462TIP3    H167877   3.272   4.410  12.657  0.4504  0.6786  0.2021
15462TIP3    H267878   3.350   4.428  12.528 -1.2263 -1.1669 -1.1316
15463TIP3   OH267879   0.653   6.609   2.633  0.7143 -0.1409  0.3395
15463TIP3    H167880   0.636   6.636   2.543 -0.7010  1.4941  1.0435
15463TIP3    H267881   0.690   6.521   2.625  1.3560  0.2694 -1.8566
15464TIP3   OH267882   1.056   3.658  11.382 -0.1552  0.7471  0.0495
15464TIP3    H167883   1.098   3.706  11.310 -0.5635  1.5652  0.3363
15464TIP3    H267884   1.078   3.566  11.366 -0.0384  0.9420 -0.9823
15465TIP3   OH267885   1.516   2.989   2.729 -0.7833 -0.3208  0.2728
15465TIP3    H167886   1.526   2.894   2.738  3.6605  0.0606  1.6049
15465TIP3    H267887   1.467   3.015   2.807  0.3846 -1.3307  1.4063
15466TIP3   OH267888   2.954   6.290   2.402 -0.0423  0.6176  0.1297
15466TIP3    H167889   2.933   6.218   2.461 -0.1445 -2.0535 -2.8330
15466TIP3    H267890   3.029   6.334   2.442  0.1945 -1.3405  1.9667
15467TIP3   OH267891   5.267   3.032  15.193  0.2134 -0.0155  0.5704
15467TIP3    H167892   5.187   3.082  15.208  0.2221  0.4753 -0.8320
15467TIP3    H267893   5.244   2.972  15.121  0.4010 -1.5943  1.7605
15468TIP3   OH267894   2.726   6.502  17.164 -0.0390  0.4104  0.1029
15468TIP3    H167895   2.656   6.480  17.103 -0.0603  1.4100 -0.2652
15468TIP3    H267896   2.720   6.597  17.174  1.2987  0.5355 -0.0032
15469TIP3   OH267897   5.785   5.751  16.010  0.4345 -0.7482 -0.1538
15469TIP3    H167898   5.864   5.802  16.028 -0.4728  1.2390 -1.4717
15469TIP3    H267899   5.798   5.715  15.923 -0.0507 -0.5118 -0.3270
15470TIP3   OH267900   5.497   0.955   4.939 -0.8528 -0.1716 -0.1204
15470TIP3    H167901   5.552   0.897   4.992 -1.6574  1.3966  2.6458
15470TIP3    H267902   5.550   0.975   4.862  0.7814 -1.8642  0.4914
15471TIP3   OH267903   3.865   6.336  14.009 -0.1623  0.2229 -0.3039
15471TIP3    H167904   3.807   6.410  14.024 -1.4726 -0.6266 -1.0334
15471TIP3    H267905   3.834   6.296  13.928  0.2303 -1.3792  0.2931
15472TIP3   OH267906   1.082   1.690  15.438  0.4666 -0.3346 -0.9418
15472TIP3    H167907   1.104   1.639  15.517  0.1644  0.1568 -0.5410
15472TIP3    H267908   1.106   1.780  15.459  0.0832 -0.1446 -1.2954
15473TIP3   OH267909   5.978   6.585  12.449  0.6587  0.1842  0.1879
15473TIP3    H167910   5.980   6.549  12.361  0.7675 -2.8168  1.2986
15473TIP3    H267911   5.888   6.572  12.479  0.4824  1.6434  0.4056
15474TIP3   OH267912   0.540   6.707   0.233 -0.7407 -0.3988  0.1544
15474TIP3    H167913   0.484   6.634   0.207  1.4475 -2.2359  0.3026
15474TIP3    H267914   0.628   6.670   0.235  0.3478  2.0479  1.1268
15475TIP3   OH267915   2.080   3.745   6.435 -0.1202  0.5403 -0.4543
15475TIP3    H167916   2.044   3.832   6.416  0.7851  0.8573 -0.7750
15475TIP3    H267917   2.152   3.735   6.373 -0.3459 -0.5350 -0.5655
15476TIP3   OH267918   4.520   3.253   1.000 -0.3196  0.0731  0.2348
15476TIP3    H167919   4.488   3.321   0.940  0.4253  0.6185  0.4509
15476TIP3    H267920   4.510   3.171   0.951 -0.5356  0.4165 -0.3020
15477TIP3   OH267921   3.273   4.636  12.642  0.1407 -0.0686  0.0601
15477TIP3    H167922   3.196   4.690  12.655 -1.0380 -1.2976 -1.5135
15477TIP3    H267923   3.341   4.678  12.695 -1.0003  2.2846 -0.2241
15478TIP3   OH267924   2.663   5.646  13.811 -0.0476  0.5885  0.4014
15478TIP3    H167925   2.575   5.622  13.841  0.1104  0.7334  1.0039
15478TIP3    H267926   2.720   5.628  13.887  0.8710 -1.9283 -0.7729
15479TIP3   OH267927   1.761   6.131   4.781 -0.0581 -0.4817 -0.1702
15479TIP3    H167928   1.708   6.138   4.701  0.0819  0.3107 -0.2011
15479TIP3    H267929   1.797   6.219   4.793  1.6646 -1.1241 -0.4243
15480TIP3   OH267930   3.775   5.900   5.161  0.2285 -0.4555  0.2893
15480TIP3    H167931   3.770   5.841   5.086 -0.4412 -1.5084  1.1286
15480TIP3    H267932   3.702   5.961   5.149  1.5509  0.9380 -1.1353
15481TIP3   OH267933   4.150   5.714   2.699 -0.0974  0.6782  0.0042
15481TIP3    H167934   4.088   5.776   2.662 -0.7200 -0.3405 -0.7029
15481TIP3    H267935   4.229   5.723   2.645 -0.0288  1.1490  0.1771
15482TIP3   OH267936   0.241   5.970   2.027 -0.5255  0.3068 -0.0259
15482TIP3    H167937   0.287   5.989   1.945  0.6927  0.4504  0.6551
15482TIP3    H267938   0.149   5.985   2.008 -0.0593  2.8308 -0.7158
15483TIP3   OH267939   5.667   2.137  14.871  0.0664 -0.3161  0.2394
15483TIP3    H167940   5.698   2.173  14.788 -1.6801  0.6473 -0.0387
15483TIP3    H267941   5.627   2.054  14.848  0.0102 -0.2743  0.1863
15484TIP3   OH267942   0.569   1.033   1.641  0.1602 -0.1086  0.0374
15484TIP3    H167943   0.541   1.025   1.549 -1.2736 -2.1641  0.5706
15484TIP3    H267944   0.523   1.111   1.673 -3.1999 -1.9671  0.1828
15485TIP3   OH267945   5.374   0.199   1.464 -0.8010 -0.4970  0.0194
15485TIP3    H167946   5.414   0.124   1.508 -1.4345 -0.7619  0.1487
15485TIP3    H267947   5.324   0.161   1.393 -0.7009 -0.1510 -0.2382
15486TIP3   OH267948   0.209   0.011  15.222  0.2972 -0.5788 -0.5695
15486TIP3    H167949   0.117   0.023  15.245 -0.4375 -3.3337 -1.5772
15486TIP3    H267950   0.229   0.083  15.162 -1.2280  0.0255 -0.3806
15487TIP3   OH267951   3.220   1.593   0.578  0.0753 -0.5500  0.4595
15487TIP3    H167952   3.168   1.669   0.606  3.0375  2.4535 -1.4693
15487TIP3    H267953   3.214   1.593   0.483  3.4560  0.0103  0.1210
15488TIP3   OH267954   1.951   6.055   0.635 -0.0301 -0.0307  0.0908
15488TIP3    H167955   2.046   6.051   0.620  0.0121  0.3793  0.2320
15488TIP3    H267956   1.930   6.148   0.630 -0.7958 -0.2640 -2.1415
15489TIP3   OH267957   3.362   2.690  11.089 -0.1815  0.5103 -0.1398
15489TIP3    H167958   3.301   2.639  11.035 -0.3953 -0.1480  0.7165
15489TIP3    H267959   3.437   2.632  11.101 -0.3064  0.4949  0.6038
15490TIP3   OH267960   1.873   0.147   0.193  0.2678 -0.3701 -0.1187
15490TIP3    H167961   1.786   0.184   0.211  0.3726  0.0989 -0.5600
15490TIP3    H267962   1.859   0.088   0.120  0.2283 -0.6794  0.1383
15491TIP3   OH267963   5.531   0.565   0.634 -0.1827 -0.1990  0.7792
15491TIP3    H167964   5.586   0.496   0.670 -0.4694  0.2718  2.1804
15491TIP3    H267965   5.585   0.606   0.566  0.3014 -1.2436  0.5195
15492TIP3   OH267966   6.803   4.728  11.890  0.3203  0.1450  0.0362
15492TIP3    H167967   6.828   4.802  11.833  1.7775  0.2328  0.7325
15492TIP3    H267968   6.734   4.683  11.842  0.6169  0.9644 -1.2145
15493TIP3   OH267969   3.809   4.148  16.438 -0.3968  0.1166  0.2210
15493TIP3    H167970   3.809   4.243  16.448  2.5296  0.0874  1.5607
15493TIP3    H267971   3.868   4.116  16.508 -3.2190 -2.9207  1.4837
15494TIP3   OH267972   2.730   1.982   5.259  0.3381  0.1844  0.8264
15494TIP3    H167973   2.739   1.909   5.320 -0.0012 -0.8673 -0.3337
15494TIP3    H267974   2.657   2.033   5.294 -0.5237 -0.9622  0.7818
15495TIP3   OH267975   4.041   6.436  14.410  0.0293  0.5678  0.3205
15495TIP3    H167976   4.120   6.489  14.422 -0.9793  1.8944  1.3557
15495TIP3    H267977   4.042   6.414  14.316  0.6405  2.1991 -0.0945
15496TIP3   OH267978   0.610   2.357   0.863  0.2602 -0.2209 -0.4249
15496TIP3    H167979   0.644   2.440   0.895 -0.5547  0.4867 -1.3372
15496TIP3    H267980   0.687   2.303   0.847  0.8570  0.7742 -0.9478
15497TIP3   OH267981   1.473   3.652   6.006  0.2510  0.0392  0.1387
15497TIP3    H167982   1.525   3.578   5.975  0.2306 -0.7570  1.9146
15497TIP3    H267983   1.503   3.667   6.096 -1.0403  0.9924  0.4421
15498TIP3   OH267984   6.746   4.778  12.414  0.2054  0.7110  0.0961
15498TIP3    H167985   6.709   4.690  12.416  1.1126  0.3267  0.3699
15498TIP3    H267986   6.810   4.776  12.344 -1.5638  1.9224 -1.6598
15499TIP3   OH267987   6.659   4.957  16.134  0.0797  0.0703  0.5233
15499TIP3    H167988   6.712   4.992  16.062  1.2033 -1.1038  0.7525
15499TIP3    H267989   6.569   4.966  16.103  0.4064  1.6270 -0.0885
15500TIP3   OH267990   0.999   3.944  16.918 -0.2959 -0.2081  0.2000
15500TIP3    H167991   0.951   3.993  16.852  0.5035 -1.4114 -1.3295
15500TIP3    H267992   0.934   3.925  16.986 -1.1007  1.1521 -0.1607
15501TIP3   OH267993   2.432   5.799   2.980 -0.0483 -0.0370 -0.4234
15501TIP3    H167994   2.337   5.814   2.977  0.0514  0.4596 -1.9307
15501TIP3    H267995   2.443   5.726   3.042 -1.3695  0.1446  0.0595
15502TIP3   OH267996   6.303   5.791  16.785 -0.0771 -0.4088  0.2123
15502TIP3    H167997   6.371   5.850  16.819 -0.6245  0.1156  0.4011
15502TIP3    H267998   6.228   5.847  16.768  0.1276 -0.6795 -1.7358
15503TIP3   OH267999   0.967   0.379  15.717  0.5913 -0.3999 -0.5855
15503TIP3    H168000   1.053   0.345  15.692  0.4730  0.2141 -1.9420
15503TIP3    H268001   0.944   0.440  15.646 -0.1011  0.9525  0.7552
15504TIP3   OH268002   2.502   6.186  13.999  0.4307 -0.0027 -0.2206
15504TIP3    H168003   2.523   6.275  13.972  1.6511 -0.3598 -0.4859
15504TIP3    H268004   2.570   6.163  14.062  1.4639 -1.5249 -1.8114
15505TIP3   OH268005   3.949   4.431   3.826  0.2992 -0.1001  0.1661
15505TIP3    H168006   4.043   4.445   3.817  0.1489  0.3298 -0.8442
15505TIP3    H268007   3.910   4.518   3.818 -0.2043 -0.3023  0.3620
15506TIP3   OH268008   0.977   0.528  11.555  0.6616  0.2359 -1.1228
15506TIP3    H168009   0.964   0.463  11.624  1.7931  0.3874 -0.7341
15506TIP3    H268010   1.058   0.501  11.513  0.5435  0.7621 -1.6933
15507TIP3   OH268011   1.360   3.683  13.818  0.2206 -0.4782 -0.3345
15507TIP3    H168012   1.332   3.608  13.765 -0.3951 -0.6107  0.1641
15507TIP3    H268013   1.435   3.651  13.868 -0.7347 -1.1265  0.7264
15508TIP3   OH268014   5.287   5.806  11.398 -0.2424  0.0224  0.1440
15508TIP3    H168015   5.236   5.844  11.469  0.0239  2.8465 -1.0354
15508TIP3    H268016   5.225   5.748  11.354 -1.1897  0.2170  1.1616
15509TIP3   OH268017   4.986   3.247  17.046  0.0565  0.2460  0.1280
15509TIP3    H168018   5.004   3.341  17.052  0.5905  0.1625 -0.1304
15509TIP3    H268019   4.969   3.220  17.137  1.2583  0.3342  0.3946
15510TIP3   OH268020   1.155   1.647  16.254 -0.8201 -0.0823  0.2957
15510TIP3    H168021   1.137   1.567  16.302  0.8203 -1.0383 -0.6121
15510TIP3    H268022   1.167   1.619  16.163  0.2557  1.0858  0.0407
15511TIP3   OH268023   4.212   3.929  12.816  0.0772  0.1216  0.1778
15511TIP3    H168024   4.201   3.903  12.724 -0.2398  0.8935 -0.0167
15511TIP3    H268025   4.257   3.856  12.857 -1.0383 -0.8458 -0.2706
15512TIP3   OH268026   5.464   5.341   0.650  0.5943 -0.0552  0.0744
15512TIP3    H168027   5.425   5.346   0.562  1.2009 -0.3187 -0.2173
15512TIP3    H268028   5.510   5.424   0.660  1.3843 -0.4322 -0.2849
15513TIP3   OH268029   4.577   2.891  16.987  0.2974 -0.9655 -0.0659
15513TIP3    H168030   4.517   2.819  17.003 -0.7941 -0.1066 -0.1684
15513TIP3    H268031   4.634   2.860  16.916 -0.6649 -1.4375 -0.6545
15514TIP3   OH268032   3.410   1.309  16.027 -0.0244 -0.7146 -0.5340
15514TIP3    H168033   3.497   1.330  15.994  0.4184 -0.8993  0.4711
15514TIP3    H268034   3.417   1.218  16.057  0.0931 -0.0459  1.6103
15515TIP3   OH268035   6.642   0.935  15.045  0.4801  0.0683  0.2375
15515TIP3    H168036   6.738   0.944  15.043  0.6531 -0.6787  2.4521
15515TIP3    H268037   6.622   0.910  15.135 -1.7771 -0.3617 -0.3191
15516TIP3   OH268038   2.768   0.425  16.380 -0.1784  0.1261  0.2331
15516TIP3    H168039   2.856   0.391  16.394  0.3800  1.1324 -0.7123
15516TIP3    H268040   2.762   0.501  16.438  0.0694  0.8541 -0.6759
15517TIP3   OH268041   5.839   4.993  14.032  0.4618  0.3304 -0.4380
15517TIP3    H168042   5.914   4.935  14.046 -0.7426 -0.9259  1.2321
15517TIP3    H268043   5.829   5.040  14.115 -0.5586  0.5117 -0.6463
15518TIP3   OH268044   0.702   3.310   3.632  0.0580  0.2718  0.0924
15518TIP3    H168045   0.666   3.370   3.698  0.5053  0.1687  0.4337
15518TIP3    H268046   0.644   3.234   3.634 -0.1021  0.3951  0.1577
15519TIP3   OH268047   4.260   4.071  16.012  0.5253 -0.2908 -0.2628
15519TIP3    H168048   4.292   4.104  16.096  1.2982 -1.3277 -0.1349
15519TIP3    H268049   4.178   4.027  16.033  0.1900  0.3323 -0.2245
15520TIP3   OH268050   4.414   4.152   2.334 -0.4286  0.1587  0.2052
15520TIP3    H168051   4.490   4.196   2.295 -0.8919  0.8591  0.0745
15520TIP3    H268052   4.431   4.059   2.321 -0.6605  0.3645 -1.8991
15521TIP3   OH268053   0.020   4.527   3.245 -0.1415  0.4219  0.5774
15521TIP3    H168054   0.019   4.432   3.229  1.7342  0.0946  2.0026
15521TIP3    H268055  -0.046   4.562   3.186 -1.9282 -1.9218  1.0479
15522TIP3   OH268056   5.784   0.689   6.241 -0.2517 -0.4587 -0.0922
15522TIP3    H168057   5.747   0.681   6.329 -2.3183 -1.1342 -0.9472
15522TIP3    H268058   5.847   0.617   6.235 -0.6941 -0.9161  0.5750
15523TIP3   OH268059   1.847   3.405   2.495  0.1155 -0.3162 -0.5540
15523TIP3    H168060   1.845   3.409   2.590 -1.2402 -1.1078 -0.5282
15523TIP3    H268061   1.938   3.385   2.473  1.2190  2.9890  0.3913
15524TIP3   OH268062   1.525   2.409   2.764  0.2463 -0.2722  0.0270
15524TIP3    H168063   1.501   2.420   2.856  0.6727  0.0262  0.1054
15524TIP3    H268064   1.620   2.395   2.766  0.2040 -0.6102 -0.3412
15525TIP3   OH268065   2.712   2.805  14.956 -0.1186 -0.0348 -0.1951
15525TIP3    H168066   2.728   2.821  15.049 -2.2608  0.1127  0.1941
15525TIP3    H268067   2.749   2.881  14.912 -0.7424  0.8247  0.7175
15526TIP3   OH268068   3.462   5.269   4.387 -0.2632  0.1409  0.5387
15526TIP3    H168069   3.405   5.196   4.412 -1.1440  1.2508  1.9372
15526TIP3    H268070   3.533   5.267   4.451 -0.2663  0.4604  0.5562
15527TIP3   OH268071   6.446   0.150  14.461  0.8419 -0.2060 -0.2471
15527TIP3    H168072   6.426   0.183  14.549  0.7050  3.0988 -1.3638
15527TIP3    H268073   6.438   0.227  14.405  1.7490 -2.0205 -3.0560
15528TIP3   OH268074   1.357   4.871  14.137  0.0525  0.3773  0.2701
15528TIP3    H168075   1.438   4.920  14.129  0.3689 -0.0803  0.6635
15528TIP3    H268076   1.291   4.927  14.095  0.6646  0.5040 -0.5422
15529TIP3   OH268077   0.624   2.946   4.957 -0.2058 -0.1505  0.2711
15529TIP3    H168078   0.669   2.875   4.912  1.1187  0.6705  0.2643
15529TIP3    H268079   0.662   3.026   4.921 -0.8117  0.5541  1.1380
15530TIP3   OH268080   3.352   5.376   5.850 -0.9713 -0.2215  0.1610
15530TIP3    H168081   3.272   5.410   5.891 -0.7569 -0.6297  0.9264
15530TIP3    H268082   3.324   5.293   5.810 -0.7983 -0.6853  0.9795
15531TIP3   OH268083   1.935   0.366   5.409  1.0951  0.0223  0.1566
15531TIP3    H168084   1.918   0.457   5.436  0.3579  0.3896 -1.4247
15531TIP3    H268085   1.912   0.364   5.316 -0.1103 -2.1224  0.4439
15532TIP3   OH268086   4.580   0.053  11.428 -0.1944  0.5303  0.0725
15532TIP3    H168087   4.546   0.057  11.517 -1.4423  2.6112 -0.4132
15532TIP3    H268088   4.620   0.139  11.414 -0.2145  0.3233 -1.4167
15533TIP3   OH268089   4.349   0.181   5.690 -0.3502  0.4505 -0.2541
15533TIP3    H168090   4.329   0.088   5.682  1.2993  0.0497 -0.0988
15533TIP3    H268091   4.301   0.222   5.618 -0.2438 -0.6677 -0.9841
15534TIP3   OH268092   1.533   0.175   2.729  0.3781 -0.5326  0.1679
15534TIP3    H168093   1.456   0.228   2.707  2.2909  2.5398  0.4589
15534TIP3    H268094   1.526   0.160   2.823  0.1014 -0.3584  0.1765
15535TIP3   OH268095   6.198   2.133   6.141  0.0083 -0.1392 -0.0520
15535TIP3    H168096   6.177   2.206   6.200  1.0019 -0.3439  0.5748
15535TIP3    H268097   6.115   2.111   6.100 -1.1367 -1.1360  2.5716
15536TIP3   OH268098   4.307   0.170  13.317  0.0742  0.0530  0.2681
15536TIP3    H168099   4.252   0.093  13.334  0.0404  0.2675  1.1458
15536TIP3    H268100   4.277   0.202  13.232 -0.5328 -0.3713  0.3140
15537TIP3   OH268101   4.741   4.895   4.469 -0.2908 -0.0651 -0.5294
15537TIP3    H168102   4.746   4.801   4.452 -0.7011 -0.4159  1.1801
15537TIP3    H268103   4.818   4.931   4.425  0.5477 -1.3567 -0.1622
15538TIP3   OH268104   0.922   2.833   1.773 -0.0291  0.5539 -0.6595
15538TIP3    H168105   1.007   2.877   1.769 -0.3943  1.7443  2.3347
15538TIP3    H268106   0.885   2.844   1.686  2.0281  1.7484 -1.4517
15539TIP3   OH268107   5.052   1.983   3.909  0.2271  0.2322 -0.0753
15539TIP3    H168108   5.042   1.889   3.895  0.3550  0.2057  0.0047
15539TIP3    H268109   5.113   1.989   3.983  1.9791  0.3977 -1.4783
15540TIP3   OH268110   1.384   5.783  14.717 -0.3252  0.6757 -0.3059
15540TIP3    H168111   1.458   5.756  14.770 -1.0861  0.6530  0.7788
15540TIP3    H268112   1.307   5.750  14.764 -0.9895 -0.5888 -2.1289
15541TIP3   OH268113   4.177   6.184  10.866  0.1685 -0.4245  0.2629
15541TIP3    H168114   4.264   6.144  10.855  1.3866  1.4116  2.2231
15541TIP3    H268115   4.157   6.170  10.959  0.1454  2.3153  0.7642
15542TIP3   OH268116   3.521   1.465   4.508  0.3759 -0.6669  0.5402
15542TIP3    H168117   3.450   1.529   4.511 -0.4359 -1.4578 -0.7860
15542TIP3    H268118   3.576   1.494   4.435  0.6500 -0.8559  0.6694
15543TIP3   OH268119   3.551   1.686   1.319  0.4105 -0.1654  0.1137
15543TIP3    H168120   3.589   1.655   1.401  1.1340  0.4014 -0.0001
15543TIP3    H268121   3.458   1.662   1.325  0.3725  0.2180  1.2708
15544TIP3   OH268122   5.924   3.772  16.961  0.5660 -0.0545  0.0796
15544TIP3    H168123   5.894   3.699  16.906 -0.0813 -0.7802  1.3577
15544TIP3    H268124   5.969   3.831  16.900 -0.2791 -0.7391 -1.2511
15545TIP3   OH268125   5.629   1.667  16.429 -0.1113  0.0344  0.1160
15545TIP3    H168126   5.612   1.652  16.521 -1.7309  0.8655 -0.0129
15545TIP3    H268127   5.640   1.762  16.422  0.8701 -0.1030 -0.4253
15546TIP3   OH268128   3.971   2.068  13.639 -0.4768 -0.2078 -0.0667
15546TIP3    H168129   3.981   2.148  13.587 -0.0942  0.0821  0.4470
15546TIP3    H268130   3.942   2.099  13.725  2.1139 -0.3676  0.9545
15547TIP3   OH268131   6.095   0.575   2.850  0.1754  0.0739  0.0588
15547TIP3    H168132   6.185   0.543   2.840  0.0871  0.0993 -0.8615
15547TIP3    H268133   6.056   0.566   2.763 -0.0444  2.1195 -0.0939
15548TIP3   OH268134   4.454   3.836  13.860 -0.2218 -0.5200  0.4249
15548TIP3    H168135   4.377   3.840  13.803  1.0999 -2.1955 -1.6582
15548TIP3    H268136   4.512   3.905  13.826  1.0219 -2.2236 -1.1050
15549TIP3   OH268137   2.670   5.073  12.128  0.5490 -0.3140  0.7085
15549TIP3    H168138   2.659   5.055  12.221 -0.5714  2.7287  1.2754
15549TIP3    H268139   2.585   5.052  12.089  0.9491 -1.3700  0.3468
15550TIP3   OH268140   0.041   3.173   1.555  0.2927  0.4256  0.3266
15550TIP3    H168141   0.121   3.211   1.520  1.3641 -1.7606  0.2083
15550TIP3    H268142   0.064   3.081   1.573 -2.1716 -0.2685  0.3204
15551TIP3   OH268143   5.481   4.292   2.821 -0.7408  0.2132 -0.7304
15551TIP3    H168144   5.496   4.386   2.815 -0.2635  0.3666  1.8677
15551TIP3    H268145   5.387   4.281   2.809 -1.0042  1.1943  0.2930
15552TIP3   OH268146   3.526   3.138  13.130  0.2089  0.0399 -0.0136
15552TIP3    H168147   3.451   3.174  13.176 -0.3989 -1.2982  0.0867
15552TIP3    H268148   3.544   3.056  13.174  2.1063  0.5896  0.3157
15553TIP3   OH268149   0.111   0.578   4.542 -0.1466  0.1134 -0.4468
15553TIP3    H168150   0.042   0.599   4.605 -0.3044  2.3747 -1.2943
15553TIP3    H268151   0.071   0.591   4.456  0.8868 -0.0798 -0.9761
15554TIP3   OH268152   5.569   5.223  12.063 -0.1752 -1.0177 -0.5622
15554TIP3    H168153   5.543   5.131  12.074  1.9979 -1.6983 -0.5139
15554TIP3    H268154   5.585   5.233  11.970  0.3865 -0.9575 -0.4675
15555TIP3   OH268155   1.293   2.979   5.183  0.5385  0.2660  0.2449
15555TIP3    H168156   1.363   2.929   5.225  0.7546  0.8372  0.5787
15555TIP3    H268157   1.221   2.917   5.175  0.6479  0.0157  1.0571
15556TIP3   OH268158   2.930   4.841   4.025  0.1112 -0.3537  0.4009
15556TIP3    H168159   2.938   4.933   4.052 -0.5499 -0.1887  0.0676
15556TIP3    H268160   2.997   4.795   4.075  0.0236  0.2112  1.0536
15557TIP3   OH268161   1.242   1.550  13.559 -0.1173  0.4784  0.2654
15557TIP3    H168162   1.300   1.517  13.490  0.8701 -2.8704  2.4355
15557TIP3    H268163   1.155   1.520  13.535  0.3358 -1.3388  0.7313
15558TIP3   OH268164   3.249   3.068   3.252 -0.2285  0.0164  0.8507
15558TIP3    H168165   3.315   3.072   3.183  0.7909  0.4500  1.8238
15558TIP3    H268166   3.222   3.159   3.265 -1.3650 -0.2099  0.1464
15559TIP3   OH268167   4.723   3.573  12.185  0.1533 -0.4448  0.1939
15559TIP3    H168168   4.634   3.598  12.163  0.3660 -0.0183 -0.2126
15559TIP3    H268169   4.719   3.479  12.202 -0.6535 -0.1785  1.6795
15560TIP3   OH268170   1.730   2.974  16.996  0.7844  0.8826  0.2921
15560TIP3    H168171   1.652   2.994  17.049 -1.1597  0.3369 -2.1393
15560TIP3    H268172   1.715   3.021  16.914 -0.1639 -3.8824 -2.6630
15561TIP3   OH268173   3.914   3.863  13.437  0.2231 -0.8103  0.2242
15561TIP3    H168174   3.984   3.927  13.425  0.3693 -1.0727 -0.3841
15561TIP3    H268175   3.867   3.864  13.353 -0.2057 -0.9872  0.4590
15562TIP3   OH268176   5.906   5.436  11.360 -0.0627 -0.0673 -0.2910
15562TIP3    H168177   5.949   5.520  11.369  0.0653 -0.0951 -0.6076
15562TIP3    H268178   5.900   5.401  11.449 -0.3432  0.3857 -0.1316
15563TIP3   OH268179   0.987   3.076   2.330  0.1939 -0.5961 -0.3952
15563TIP3    H168180   1.055   3.096   2.394 -1.6805  0.5476  1.3496
15563TIP3    H268181   1.035   3.052   2.251  2.6012 -0.3932  0.9236
15564TIP3   OH268182   3.842   3.107   5.426 -0.5341  0.7694 -0.2449
15564TIP3    H168183   3.869   3.025   5.469  0.3985  1.4025  0.4218
15564TIP3    H268184   3.755   3.124   5.460 -0.8883 -0.1238 -0.6639
15565TIP3   OH268185   0.679   3.118   4.761  0.2878  0.7451  0.0620
15565TIP3    H168186   0.725   3.062   4.699 -0.4497  1.0298 -0.7626
15565TIP3    H268187   0.666   3.201   4.714 -2.6417  0.1082 -0.4659
15566TIP3   OH268188   1.535   5.215   2.969 -1.1889 -0.0463  0.3928
15566TIP3    H168189   1.466   5.160   3.006 -0.6364  0.1037  1.7043
15566TIP3    H268190   1.597   5.228   3.041  0.8958 -1.2485 -1.0846
15567TIP3   OH268191   5.472   0.161  11.016 -0.1983 -0.3310 -0.4789
15567TIP3    H168192   5.511   0.075  11.004 -0.2344 -0.2859 -0.9545
15567TIP3    H268193   5.537   0.222  10.982  0.9298  0.0556  2.1317
15568TIP3   OH268194   4.081   3.700  14.144 -0.1323  0.0806  0.0949
15568TIP3    H168195   4.097   3.779  14.093 -1.2136 -0.8630 -1.8518
15568TIP3    H268196   3.992   3.710  14.177  0.4623  0.5575  1.6386
15569TIP3   OH268197   5.868   5.147   0.396 -0.1707 -0.4918 -0.5228
15569TIP3    H168198   5.884   5.054   0.414  0.1747 -0.9211 -2.8050
15569TIP3    H268199   5.789   5.148   0.343  0.3600  0.4139 -1.3242
15570TIP3   OH268200   1.815   4.817   2.219  0.1426  0.3833 -0.0590
15570TIP3    H168201   1.803   4.771   2.136  0.4419  0.0093  0.1021
15570TIP3    H268202   1.733   4.804   2.266 -0.9080  2.4828 -1.1902
15571TIP3   OH268203   1.833   2.779  10.697 -0.3162 -0.1973 -0.3512
15571TIP3    H168204   1.905   2.769  10.635 -0.2067 -3.0102  0.1017
15571TIP3    H268205   1.757   2.797  10.643 -0.3787 -3.3674 -1.5423
15572TIP3   OH268206   4.747   6.645   5.730  0.3419  0.1183  0.1595
15572TIP3    H168207   4.813   6.708   5.760  0.7383  0.2081 -0.8423
15572TIP3    H268208   4.667   6.672   5.774  1.0392 -0.2316  1.7151
15573TIP3   OH268209   2.988   4.077   1.196 -0.3667 -0.0435 -0.2767
15573TIP3    H168210   3.049   4.067   1.269  1.1759  1.0801 -1.3324
15573TIP3    H268211   2.941   3.994   1.192 -0.8822  0.0344  2.2893
15574TIP3   OH268212   2.575   4.294  10.338 -0.4839 -0.2039  0.3213
15574TIP3    H168213   2.602   4.373  10.384  2.9905 -0.2751 -1.2905
15574TIP3    H268214   2.560   4.322  10.248  1.8186 -1.4021 -0.5240
15575TIP3   OH268215   5.628   3.593  15.690  0.4822  0.7384 -0.0644
15575TIP3    H168216   5.575   3.637  15.624 -0.0622 -0.8037 -0.7129
15575TIP3    H268217   5.601   3.632  15.773 -0.5091  1.1022 -0.5456
15576TIP3   OH268218   1.114   3.091  13.257  0.1285  0.3892  0.3196
15576TIP3    H168219   1.027   3.114  13.290 -0.4496 -0.9818 -0.1578
15576TIP3    H268220   1.101   3.006  13.215  1.2728  1.0902 -1.5598
15577TIP3   OH268221   5.304   1.145   2.226 -0.3947  0.3468  0.5427
15577TIP3    H168222   5.353   1.122   2.148 -0.3041  0.7827  0.4712
15577TIP3    H268223   5.302   1.241   2.227 -0.4055  0.3485  1.0628
15578TIP3   OH268224   2.978   6.729  16.591 -0.4541 -0.2414  0.1798
15578TIP3    H168225   2.922   6.797  16.630 -0.8167  0.4743 -1.4947
15578TIP3    H268226   2.929   6.648  16.606 -0.7474  0.0491  0.8844
15579TIP3   OH268227   5.820   2.340  10.817 -0.4082 -0.5057 -0.1215
15579TIP3    H168228   5.770   2.336  10.735 -0.3717  0.9374 -0.2373
15579TIP3    H268229   5.783   2.415  10.863  1.0876  0.0630  0.1758
15580TIP3   OH268230   5.258   0.415   5.305 -0.0473 -0.6593  0.0422
15580TIP3    H168231   5.277   0.446   5.217  1.4276 -0.4794  0.3858
15580TIP3    H268232   5.163   0.411   5.310 -0.1453 -2.4777 -2.1662
15581TIP3   OH268233   2.575   2.793  16.960 -0.1016  0.0795  0.4732
15581TIP3    H168234   2.609   2.878  16.991  0.4156  0.3693 -0.8427
15581TIP3    H268235   2.626   2.774  16.882 -0.0776 -1.5636  0.8598
15582TIP3   OH268236   1.275   6.373  17.163 -0.0978  0.0383 -0.6040
15582TIP3    H168237   1.206   6.341  17.105  2.5924 -1.7585 -3.0705
15582TIP3    H268238   1.329   6.429  17.107  0.7395  1.0309  1.1207
15583TIP3   OH268239   4.711   4.154  13.304 -0.0194  0.6572  0.5236
15583TIP3    H168240   4.630   4.112  13.330  0.3941 -0.4301  0.1352
15583TIP3    H268241   4.702   4.245  13.333 -1.0313  0.3587  1.1900
15584TIP3   OH268242   6.759   4.674   4.158 -0.0270 -0.2876  0.3146
15584TIP3    H168243   6.749   4.669   4.063  1.1241  0.9286  0.1137
15584TIP3    H268244   6.770   4.583   4.186 -1.2193 -0.7371 -0.5998
15585TIP3   OH268245   4.809   6.261  13.809  0.0455  0.0070 -0.5129
15585TIP3    H168246   4.841   6.260  13.719 -2.7536  1.8273 -1.6594
15585TIP3    H268247   4.765   6.345  13.819 -0.9864 -0.7210  2.1205
15586TIP3   OH268248   1.432   4.030  14.392  0.0511 -0.2085  0.5277
15586TIP3    H168249   1.357   4.053  14.337  0.6213 -1.0073 -0.6257
15586TIP3    H268250   1.463   4.114  14.427 -0.0793  0.3718 -0.7099
15587TIP3   OH268251   2.912   4.973  14.552 -0.1364  0.3048 -0.1311
15587TIP3    H168252   2.835   4.931  14.590  0.4262  0.2275  0.9680
15587TIP3    H268253   2.965   4.999  14.627  0.8318  0.5188 -0.8626
15588TIP3   OH268254   6.615   2.769  14.653  0.2599  0.1033 -0.9311
15588TIP3    H168255   6.654   2.855  14.662  1.1869 -0.2751 -1.1924
15588TIP3    H268256   6.521   2.786  14.642 -0.0345  0.9356  2.0050
15589TIP3   OH268257   6.162   0.816  13.263  0.2368 -0.0510  0.6926
15589TIP3    H168258   6.143   0.728  13.294  0.0412  0.0554  0.8796
15589TIP3    H268259   6.096   0.832  13.195  1.0996 -0.5480 -0.2823
15590TIP3   OH268260   5.410   3.280  12.463  0.2767  0.6542  0.2030
15590TIP3    H168261   5.430   3.307  12.374  1.4359  2.5039  0.9550
15590TIP3    H268262   5.315   3.272  12.465  0.3069 -0.9415 -1.5405
15591TIP3   OH268263   1.762   1.157   6.084  0.3394 -0.3840 -0.5982
15591TIP3    H168264   1.746   1.245   6.118 -2.4567 -1.9423  2.7793
15591TIP3    H268265   1.834   1.123   6.138 -0.6733 -1.1353  0.3280
15592TIP3   OH268266   6.429   2.421  13.952  0.0243  0.6319 -0.5280
15592TIP3    H168267   6.373   2.355  13.912 -0.0129 -0.3829  1.1207
15592TIP3    H268268   6.516   2.383  13.952  0.5971  1.7956 -2.1458
15593TIP3   OH268269   0.181   1.874   0.681  0.9761  0.2884  0.1804
15593TIP3    H168270   0.094   1.880   0.642  1.0904  0.9208  0.0135
15593TIP3    H268271   0.180   1.940   0.750  1.0304 -0.3094  0.7698
15594TIP3   OH268272   2.827   2.288  17.099 -0.0862  0.7691  0.3495
15594TIP3    H168273   2.849   2.198  17.075 -0.1892  0.8944 -0.2417
15594TIP3    H268274   2.769   2.280  17.174 -0.1454  0.3423  0.2598
15595TIP3   OH268275   5.024   3.296   1.705  0.0433 -0.2418 -0.1715
15595TIP3    H168276   5.085   3.371   1.704 -2.6600  2.2156  2.2351
15595TIP3    H268277   4.992   3.291   1.615  1.2359  0.6365 -0.6783
15596TIP3   OH268278   2.120   3.382  14.012  0.1748  0.4177  0.1371
15596TIP3    H168279   2.060   3.452  14.040 -0.1309  1.4113 -2.6704
15596TIP3    H268280   2.098   3.368  13.920  2.3681 -1.2177 -0.2029
15597TIP3   OH268281   2.457   2.096   6.056 -0.0409 -0.4061 -0.0788
15597TIP3    H168282   2.519   2.168   6.045 -0.4098 -0.0634  0.0925
15597TIP3    H268283   2.510   2.025   6.093  0.0647  0.1798  0.9138
15598TIP3   OH268284   6.180   2.017  10.736  0.1913  0.1816 -0.5219
15598TIP3    H168285   6.128   2.003  10.815  0.9420  0.8131  0.1015
15598TIP3    H268286   6.161   1.941  10.681 -0.5994 -0.1011  0.1203
15599TIP3   OH268287   3.642   4.954   2.677  0.3173  0.1159  0.0691
15599TIP3    H168288   3.639   4.859   2.672 -0.0921  0.1583 -0.6649
15599TIP3    H268289   3.735   4.975   2.674  0.3835 -0.2348 -0.4374
15600TIP3   OH268290   5.320   4.520  11.292 -0.0357 -0.0944 -0.1006
15600TIP3    H168291   5.260   4.556  11.228 -2.1939 -0.5408  1.5639
15600TIP3    H268292   5.273   4.524  11.375  1.7979 -1.5403  1.1094
15601TIP3   OH268293   3.171   3.954  14.693 -0.1310  0.6379  0.2176
15601TIP3    H168294   3.202   3.900  14.621 -0.5955  0.2457  0.3066
15601TIP3    H268295   3.187   3.901  14.772  0.4553  1.0985  0.4124
15602TIP3   OH268296   0.630   5.809  16.750 -0.5375  0.5524 -0.2735
15602TIP3    H168297   0.687   5.807  16.673 -0.5410 -1.5737 -0.2906
15602TIP3    H268298   0.661   5.885  16.801  0.6164  0.9564 -1.5123
15603TIP3   OH268299   4.487   3.205   3.442  0.2063 -0.3236  0.3278
15603TIP3    H168300   4.581   3.221   3.438  0.9331 -3.4790 -4.7043
15603TIP3    H268301   4.478   3.124   3.492  0.5872 -1.2902 -1.0982
15604TIP3   OH268302   1.916   5.455  12.457 -0.1834 -0.1877 -0.0743
15604TIP3    H168303   1.984   5.471  12.523 -0.3961 -0.2616  0.1664
15604TIP3    H268304   1.875   5.540  12.445 -0.2353 -0.2031 -0.0075
15605TIP3   OH268305   6.328   6.027  15.566  0.2601  0.2196 -0.2285
15605TIP3    H168306   6.335   5.935  15.591 -0.1470  0.1087 -0.5046
15605TIP3    H268307   6.245   6.057  15.604  0.8900  0.7688  0.7541
15606TIP3   OH268308   3.129   3.017   0.665  0.8059  0.2313  0.2456
15606TIP3    H168309   3.165   3.103   0.641  2.0655 -0.3174  0.1056
15606TIP3    H268310   3.036   3.034   0.680  1.3584  2.0250  2.1356
15607TIP3   OH268311   4.632   0.767   1.874  0.6250  0.0704 -0.3017
15607TIP3    H168312   4.703   0.795   1.815 -0.5342 -1.6025 -2.6297
15607TIP3    H268313   4.648   0.817   1.955  3.9372  0.3823 -0.9910
15608TIP3   OH268314   1.009   0.818  14.821  0.2438 -0.0396  0.0840
15608TIP3    H168315   1.006   0.832  14.727 -1.4491  0.1293  0.1247
15608TIP3    H268316   1.013   0.723  14.832  2.4198 -0.0106 -0.1407
15609TIP3   OH268317   2.154   3.369  17.052 -0.3062  0.3343 -0.3681
15609TIP3    H168318   2.202   3.437  17.004  0.9085 -0.7728 -0.7804
15609TIP3    H268319   2.084   3.343  16.993 -0.6487  1.0645 -0.2971
15610TIP3   OH268320   6.123   2.638  15.267 -0.1515  0.1459 -0.0708
15610TIP3    H168321   6.147   2.563  15.213 -1.5402 -0.6068  0.3041
15610TIP3    H268322   6.203   2.659  15.315  0.0033 -1.8611  0.6904
15611TIP3   OH268323   5.485   2.928  14.274 -0.3014  0.2551  0.2031
15611TIP3    H168324   5.398   2.953  14.305 -0.8986 -0.6838 -0.6564
15611TIP3    H268325   5.475   2.837  14.247  1.3566 -0.4048  1.5962
15612TIP3   OH268326   0.168   2.988  16.849  0.3467 -0.4598  0.2931
15612TIP3    H168327   0.248   3.041  16.848 -0.4878  0.8514  0.3151
15612TIP3    H268328   0.190   2.912  16.903  1.4718  0.0448  0.5716
15613TIP3   OH268329   3.548   2.719  14.097 -0.3017  0.3872 -0.1684
15613TIP3    H168330   3.585   2.632  14.083  1.9048  1.1612  0.3658
15613TIP3    H268331   3.462   2.703  14.136 -0.3401 -1.5337 -0.9254
15614TIP3   OH268332   2.086   3.559  10.227  0.2853 -0.7266  0.2912
15614TIP3    H168333   2.107   3.616  10.300  1.9057 -1.1809  0.2151
15614TIP3    H268334   2.022   3.608  10.176  0.2837  0.2410  1.1833
15615TIP3   OH268335   1.933   2.699   1.309  0.2533  0.4621  0.1024
15615TIP3    H168336   2.018   2.656   1.297  0.5264  0.9524  0.2589
15615TIP3    H268337   1.954   2.782   1.351 -0.2596  0.7938 -0.2895
15616TIP3   OH268338   5.318   3.578  15.178 -0.2790 -0.5110 -0.1636
15616TIP3    H168339   5.263   3.519  15.125 -1.1305 -0.4625  0.6389
15616TIP3    H268340   5.352   3.641  15.115 -1.5554 -0.2480 -0.6324
15617TIP3   OH268341   3.501   4.278  12.786  0.4574  0.3037  0.2597
15617TIP3    H168342   3.557   4.353  12.765  1.6675 -0.9274 -1.1657
15617TIP3    H268343   3.442   4.270  12.711  0.0377  0.1029  0.6072
15618TIP3   OH268344   3.183   1.305   2.551 -0.3999 -0.2924  0.0285
15618TIP3    H168345   3.245   1.365   2.508 -0.1390 -1.0037 -0.6204
15618TIP3    H268346   3.171   1.234   2.487  1.3621 -2.3167  1.7663
15619TIP3   OH268347   4.402   3.622   1.503  0.0890 -0.2251  0.2299
15619TIP3    H168348   4.359   3.663   1.427 -2.6892 -1.3398  1.0608
15619TIP3    H268349   4.482   3.584   1.467 -0.4388  0.4911 -1.8648
15620TIP3   OH268350   6.611   0.385   5.751 -0.1986 -0.1795  0.1063
15620TIP3    H168351   6.626   0.291   5.764  2.4660  0.2779  1.0390
15620TIP3    H268352   6.584   0.417   5.837  0.0041  0.0679  0.0799
15621TIP3   OH268353   0.604   1.908   3.199 -0.0354  0.1127 -0.2907
15621TIP3    H168354   0.656   1.828   3.187 -0.0051  0.0827  0.0436
15621TIP3    H268355   0.538   1.904   3.129 -0.8677 -0.8731  0.5067
15622TIP3   OH268356   0.507   5.158  13.506  0.3691 -0.3528  0.4304
15622TIP3    H168357   0.529   5.229  13.445  0.1838 -0.6168  0.0514
15622TIP3    H268358   0.458   5.201  13.576 -0.2693 -0.1933 -0.1010
15623TIP3   OH268359   4.921   6.163   1.209 -0.3871  0.7071  0.6765
15623TIP3    H168360   4.876   6.124   1.134 -0.8926  0.1553  1.2587
15623TIP3    H268361   5.000   6.201   1.172 -0.4851  0.1811 -0.0966
15624TIP3   OH268362   2.642   4.601  12.581 -0.1924 -0.3649  0.0418
15624TIP3    H168363   2.656   4.645  12.497  0.7334 -0.9150 -0.1115
15624TIP3    H268364   2.564   4.548  12.568 -1.5883  1.5257  0.3674
15625TIP3   OH268365   0.443   1.450  14.052 -0.1602  0.0908  0.1577
15625TIP3    H168366   0.374   1.474  13.990 -0.0566  3.0142  1.0149
15625TIP3    H268367   0.398   1.398  14.119 -1.5657  1.6881  0.5419
15626TIP3   OH268368   3.522   4.257  16.937  0.3530 -0.3947 -0.2227
15626TIP3    H168369   3.538   4.346  16.907  1.8982 -0.5485  0.1050
15626TIP3    H268370   3.574   4.201  16.878  0.7380 -0.9436  0.6200
15627TIP3   OH268371   5.329   0.071  16.340  0.3313  0.5861  0.0526
15627TIP3    H168372   5.338   0.081  16.435 -1.0287  1.2859  0.1431
15627TIP3    H268373   5.381  -0.006  16.319 -1.9103 -1.6046  1.8894
15628TIP3   OH268374   5.759   6.299  14.728  0.6890  0.0485  0.0262
15628TIP3    H168375   5.703   6.237  14.681  0.1065  1.4395 -1.1805
15628TIP3    H268376   5.822   6.244  14.775 -1.3037 -1.5517  0.9622
15629TIP3   OH268377   4.824   4.451   4.078 -0.0157  0.8736  0.5659
15629TIP3    H168378   4.729   4.450   4.075 -0.0392 -1.5305 -0.1509
15629TIP3    H268379   4.851   4.397   4.004  1.8037 -0.6307  2.2060
15630TIP3   OH268380   2.013   4.139  14.733 -0.7013 -0.7038 -0.4518
15630TIP3    H168381   1.963   4.220  14.722  0.7415  0.4557  0.9832
15630TIP3    H268382   1.970   4.094  14.806 -0.2872 -0.1875  0.1270
15631TIP3   OH268383   2.537   3.297  13.661 -0.6141 -0.4914  0.4766
15631TIP3    H168384   2.546   3.212  13.619 -1.8126 -0.7682  0.7322
15631TIP3    H268385   2.524   3.277  13.753  0.4491  0.0450  0.7561
15632TIP3   OH268386   0.640   3.256   5.185 -0.0230  0.1114  0.1262
15632TIP3    H168387   0.556   3.219   5.156 -1.4683  1.8773  1.7308
15632TIP3    H268388   0.668   3.198   5.256 -2.4130  1.9126  2.8185
15633TIP3   OH268389   1.632   2.060  15.046  0.2129  0.2500  0.4863
15633TIP3    H168390   1.587   2.029  14.967  0.3051  0.1600  0.4678
15633TIP3    H268391   1.565   2.105  15.097  0.0930  0.0777  0.4809
15634TIP3   OH268392   1.526   2.012  14.791  0.5988 -0.0052 -0.5175
15634TIP3    H168393   1.476   2.091  14.773  0.5734 -0.0940 -0.8318
15634TIP3    H268394   1.471   1.940  14.761  0.4128 -0.1792  0.2107
15635TIP3   OH268395   1.359   4.714   1.718  0.0796  0.5348  0.5358
15635TIP3    H168396   1.408   4.764   1.652 -1.2957  0.5334 -0.5189
15635TIP3    H268397   1.353   4.774   1.793  0.0956  1.2367 -0.0100
15636TIP3   OH268398   3.177   2.093  16.351 -0.5257  0.4186  0.1141
15636TIP3    H168399   3.158   2.171  16.299 -0.6302  0.5391  0.3352
15636TIP3    H268400   3.104   2.087  16.413 -0.8394 -0.1893 -0.2904
15637TIP3   OH268401   3.197   4.841   2.881  0.0362  0.3055 -0.0402
15637TIP3    H168402   3.214   4.871   2.970 -2.1061 -0.5360  0.7317
15637TIP3    H268403   3.117   4.886   2.855  0.6723  0.5938 -1.5934
15638TIP3   OH268404   3.991   1.917  14.413  0.6371 -0.5587 -0.3602
15638TIP3    H168405   3.976   1.948  14.503  1.6618  0.4466 -0.5077
15638TIP3    H268406   3.906   1.883  14.385  0.2262 -0.6210  0.8844
15639TIP3   OH268407   1.561   1.588  16.261  0.5841  0.2757 -0.3308
15639TIP3    H168408   1.570   1.639  16.180  3.5595  0.4276 -0.0365
15639TIP3    H268409   1.490   1.527  16.244  1.8175 -0.4460 -3.5192
15640TIP3   OH268410   3.484   2.923  14.509 -0.2845 -0.3458 -0.3220
15640TIP3    H168411   3.513   2.836  14.485 -0.3958  0.0771 -2.1008
15640TIP3    H268412   3.432   2.910  14.588  0.0736 -1.8217 -0.3104
15641TIP3   OH268413   6.440   2.013   6.214  0.0561 -0.6271  0.1785
15641TIP3    H168414   6.437   2.016   6.309  1.4169  1.3619  0.2294
15641TIP3    H268415   6.361   2.061   6.186 -0.6479 -1.7024  0.2572
15642TIP3   OH268416   6.776   1.909   1.618 -0.0950 -0.7366  0.2634
15642TIP3    H168417   6.857   1.869   1.587  1.1931  0.7075  1.6701
15642TIP3    H268418   6.745   1.960   1.543  0.2034 -1.3872 -0.3201
15643TIP3   OH268419   6.653   6.149   5.981  0.1496 -0.0094  0.0706
15643TIP3    H168420   6.587   6.115   5.921  0.1223  1.9360 -1.0970
15643TIP3    H268421   6.728   6.168   5.925  0.1162  1.8798  0.6076
15644TIP3   OH268422   1.491   6.259   2.152 -0.4038 -0.1647  0.2231
15644TIP3    H168423   1.447   6.322   2.094  0.5499 -0.4326 -0.8298
15644TIP3    H268424   1.510   6.184   2.096  0.4886 -0.4618  0.9049
15645TIP3   OH268425   5.839   0.732   3.357  0.0933  0.1811  0.0156
15645TIP3    H168426   5.921   0.720   3.310 -0.0360 -1.0678  0.0606
15645TIP3    H268427   5.844   0.669   3.429 -0.6481  0.5088  0.3593
15646TIP3   OH268428   0.366   6.694   4.499  0.0362 -0.0053  0.3299
15646TIP3    H168429   0.311   6.627   4.458  0.6141 -0.1666 -0.1943
15646TIP3    H268430   0.361   6.675   4.593 -3.7155  2.1279  0.7707
15647TIP3   OH268431   6.766   6.497  14.601 -0.2013 -0.0723  0.3464
15647TIP3    H168432   6.739   6.437  14.532  1.8602  0.2204 -0.8035
15647TIP3    H268433   6.698   6.564  14.603 -0.2197  0.0081 -1.5689
15648TIP3   OH268434   6.391   3.766   0.958  0.2008  0.1087 -0.4667
15648TIP3    H168435   6.481   3.769   0.926  0.5326  1.0812  0.4964
15648TIP3    H268436   6.382   3.679   0.996  0.4440 -0.3157 -1.3736
15649TIP3   OH268437   6.341   0.262   6.148  0.0195  0.2878  0.3094
15649TIP3    H168438   6.392   0.317   6.209 -2.4594  2.1795  0.8694
15649TIP3    H268439   6.263   0.239   6.198 -0.7013 -0.6500 -1.2029
15650TIP3   OH268440   5.317   0.675   3.311 -0.6596  0.3707  0.2274
15650TIP3    H168441   5.298   0.750   3.254 -1.6093  0.3501  0.5006
15650TIP3    H268442   5.385   0.627   3.264 -0.0454  1.3837  0.0385
15651TIP3   OH268443   6.584   4.851  11.327 -0.7657  0.4052  0.0361
15651TIP3    H168444   6.536   4.933  11.340 -0.1441  1.0463 -1.4395
15651TIP3    H268445   6.638   4.841  11.406 -1.3031  1.0883  0.5012
15652TIP3   OH268446   2.669   6.448  14.169  0.0692 -0.2349 -0.1695
15652TIP3    H168447   2.700   6.409  14.087 -1.2264 -2.0785  0.1549
15652TIP3    H268448   2.581   6.481  14.147  0.4991  1.0825 -0.0005
15653TIP3   OH268449   5.033   4.049   5.032  0.7545 -0.3120  0.2339
15653TIP3    H168450   4.972   4.078   4.964  1.2177  0.6681  0.2167
15653TIP3    H268451   4.976   4.022   5.105  0.1966  3.6631  1.5251
15654TIP3   OH268452   3.878   3.499   3.889  0.6975 -0.0859 -0.0921
15654TIP3    H168453   3.892   3.553   3.811 -0.4651 -1.3862 -1.2351
15654TIP3    H268454   3.848   3.415   3.856  1.1186 -1.0081  1.7289
15655TIP3   OH268455   2.995   0.612   1.389  0.2226 -0.0065 -0.0657
15655TIP3    H168456   2.903   0.631   1.375  0.7282  3.6728  0.6609
15655TIP3    H268457   3.025   0.575   1.305 -1.4317  0.7697 -1.0486
15656TIP3   OH268458   3.621   3.904  12.544  0.1866  0.5000 -0.5916
15656TIP3    H168459   3.631   3.958  12.466 -0.2815  1.2346 -0.1568
15656TIP3    H268460   3.600   3.816  12.511 -0.6426  0.9404 -1.2735
15657TIP3   OH268461   1.529   6.174   1.895 -0.5345 -0.0195 -0.2558
15657TIP3    H168462   1.563   6.264   1.886  0.4457 -0.4206 -0.8013
15657TIP3    H268463   1.603   6.119   1.871 -1.5297 -0.9529 -1.3301
15658TIP3   OH268464   5.811   3.339   2.926 -0.6020 -0.2066  0.4012
15658TIP3    H168465   5.871   3.401   2.968  0.0624 -0.6724  0.1584
15658TIP3    H268466   5.757   3.306   2.998 -0.4329  0.0618  0.6580
15659TIP3   OH268467   0.094   3.524  14.368  0.2146 -0.1325 -0.2548
15659TIP3    H168468   0.118   3.542  14.459 -1.9522 -0.0269  0.3677
15659TIP3    H268469   0.109   3.430  14.357 -1.9136 -0.7260  1.1183
15660TIP3   OH268470   1.083   2.408   1.075 -0.4837  0.6492  0.6895
15660TIP3    H168471   1.163   2.439   1.033 -1.0956 -0.2920 -1.2898
15660TIP3    H268472   1.108   2.328   1.120  0.0894  1.4555  1.8770
15661TIP3   OH268473   4.231   2.202   3.857 -0.6265 -0.5147  0.2179
15661TIP3    H168474   4.194   2.134   3.801 -1.7499 -1.4732  2.0271
15661TIP3    H268475   4.285   2.154   3.920 -3.6704 -0.2124  3.3462
15662TIP3   OH268476   0.853   0.897  16.435  0.3651 -0.1321 -0.2968
15662TIP3    H168477   0.821   0.962  16.372 -0.1066 -1.4076 -1.4281
15662TIP3    H268478   0.937   0.933  16.465 -0.4031  1.5297 -0.0110
15663TIP3   OH268479   0.084   4.429  13.949  0.3277  0.2502  0.0833
15663TIP3    H168480   0.119   4.510  13.914 -0.5475  0.9281  0.7275
15663TIP3    H268481   0.159   4.370  13.954  1.0620  1.1578  0.0025
15664TIP3   OH268482   1.581   0.937   0.507 -0.1514 -0.3120  0.1381
15664TIP3    H168483   1.502   0.930   0.453  0.9174 -1.2725 -1.3552
15664TIP3    H268484   1.649   0.892   0.457  1.4899  0.9333  1.1642
15665TIP3   OH268485   4.693   1.838   3.437 -0.1199 -0.0512  0.2760
15665TIP3    H168486   4.733   1.776   3.375 -1.8114  1.3507 -2.4145
15665TIP3    H268487   4.753   1.912   3.438 -0.1221 -0.0494  0.2738
15666TIP3   OH268488   6.468   5.535  14.064  0.2822  0.2469  0.1780
15666TIP3    H168489   6.511   5.499  14.142  0.0182 -2.4563 -0.8338
15666TIP3    H268490   6.381   5.562  14.096  0.3714 -0.3229  0.9429
15667TIP3   OH268491   1.252   0.294  16.978 -0.5378  0.6091 -0.1901
15667TIP3    H168492   1.268   0.297  17.073  0.3719 -0.0333 -0.3166
15667TIP3    H268493   1.210   0.209  16.964 -0.1769  0.4736 -0.4398
15668TIP3   OH268494   1.565   5.564   0.698 -0.0113  0.7156  0.1399
15668TIP3    H168495   1.575   5.657   0.676  1.8258  0.4170 -0.4715
15668TIP3    H268496   1.552   5.521   0.614 -0.2781  0.3384  0.3712
15669TIP3   OH268497   0.061   3.021  14.737  0.2679  0.1829 -0.0438
15669TIP3    H168498  -0.004   3.079  14.776  0.7376  1.2288 -0.7666
15669TIP3    H268499   0.065   2.947  14.796 -1.0303  0.4445  0.4180
15670TIP3   OH268500   2.637   4.686   1.669 -0.0969  0.8586 -0.3027
15670TIP3    H168501   2.648   4.711   1.577 -0.5415  1.1708 -0.2797
15670TIP3    H268502   2.726   4.683   1.704  0.4649 -2.9834 -1.6463
15671TIP3   OH268503   6.617   1.724   2.651  0.0116 -0.3629  0.2303
15671TIP3    H168504   6.535   1.772   2.647 -0.3002 -0.8571  0.6595
15671TIP3    H268505   6.602   1.655   2.715  1.4142  0.7737  1.8835
15672TIP3   OH268506   5.210   0.298   5.869 -0.4661  0.7119 -0.2528
15672TIP3    H168507   5.152   0.292   5.945 -0.6099  0.1880 -0.3992
15672TIP3    H268508   5.236   0.208   5.852 -1.7458  0.5990 -1.8448
15673TIP3   OH268509   5.933   4.445  16.187 -0.3695  0.2434  0.0260
15673TIP3    H168510   5.988   4.398  16.250  0.7998  1.8228  0.2281
15673TIP3    H268511   5.977   4.529  16.175 -1.4130  0.5807 -1.7229
15674TIP3   OH268512   6.592   5.401   0.152  0.9307 -0.2634  0.0886
15674TIP3    H168513   6.574   5.361   0.237  1.0607 -0.7625 -0.1145
15674TIP3    H268514   6.595   5.495   0.170 -0.3039 -0.2726  0.4001
15675TIP3   OH268515   5.329   5.090   1.606  0.4808  0.6305  0.1550
15675TIP3    H168516   5.392   5.062   1.540  0.3911  0.1227  0.2790
15675TIP3    H268517   5.379   5.089   1.688  0.8533  2.1827 -0.0306
15676TIP3   OH268518   1.293   5.490  11.483  0.3426  0.0181  0.2578
15676TIP3    H168519   1.248   5.558  11.533  0.6795  0.3018  0.1805
15676TIP3    H268520   1.224   5.449  11.430  0.0598  0.0001  0.6311
15677TIP3   OH268521   6.513   5.622  11.584 -0.8391 -0.3754 -0.0231
15677TIP3    H168522   6.505   5.526  11.591  1.0533 -0.5969 -0.5683
15677TIP3    H268523   6.606   5.638  11.570 -1.0728  1.5935  0.4184
15678TIP3   OH268524   4.148   0.351   6.134 -0.5481 -0.1462  0.3022
15678TIP3    H168525   4.102   0.396   6.064 -0.0236  1.8228  1.1571
15678TIP3    H268526   4.084   0.288   6.168 -1.9349  1.1376  0.1762
15679TIP3   OH268527   0.282   6.662   2.136 -0.4107 -0.7503 -0.4421
15679TIP3    H168528   0.265   6.755   2.123 -0.9698 -0.9515 -1.2819
15679TIP3    H268529   0.331   6.657   2.218 -2.3726  0.0808  0.8490
15680TIP3   OH268530   4.452   4.136   1.006 -0.2827 -0.5224  0.4405
15680TIP3    H168531   4.524   4.199   1.016  0.6031 -1.6523  1.4273
15680TIP3    H268532   4.471   4.093   0.923  0.6714 -1.3850  1.0818
15681TIP3   OH268533   2.826   3.660  11.045  0.5937 -0.9424  0.1454
15681TIP3    H168534   2.821   3.718  10.969  1.9665 -0.3392  0.4906
15681TIP3    H268535   2.854   3.717  11.117  0.0045 -1.6427  0.9522
15682TIP3   OH268536   5.054   5.710  16.161 -0.0330  0.0562  0.4487
15682TIP3    H168537   5.038   5.753  16.077  2.1253  0.7621  0.3461
15682TIP3    H268538   4.976   5.656  16.174 -1.5667  1.8050 -0.7830
15683TIP3   OH268539   1.248   2.742   3.133 -0.5131 -0.3370 -0.2915
15683TIP3    H168540   1.251   2.726   3.039  3.5901  0.9588 -0.5999
15683TIP3    H268541   1.299   2.822   3.145 -1.1364 -0.3116  3.0393
15684TIP3   OH268542   0.713   6.469  15.296  0.2163 -0.3351 -0.2232
15684TIP3    H168543   0.620   6.487  15.300  0.2056 -0.4184  3.4363
15684TIP3    H268544   0.753   6.554  15.277 -0.5493 -0.1865 -1.2378
15685TIP3   OH268545   3.206   5.849  15.986  0.1952  0.3238 -0.0053
15685TIP3    H168546   3.239   5.820  16.070  1.7444 -2.7993 -1.5352
15685TIP3    H268547   3.283   5.855  15.930 -0.7417  2.6278 -1.2152
15686TIP3   OH268548   3.362   6.165  13.514  0.0456 -0.5308 -0.6127
15686TIP3    H168549   3.279   6.121  13.532  0.1401 -0.4666  0.0169
15686TIP3    H268550   3.338   6.245  13.468 -0.1916 -0.8423 -1.0290
15687TIP3   OH268551   1.346   6.172  10.804 -0.2988  0.1408  0.0531
15687TIP3    H168552   1.419   6.119  10.772  1.4694  1.3337  1.9045
15687TIP3    H268553   1.369   6.262  10.782 -0.9663  0.5884  1.0796
15688TIP3   OH268554   5.824   3.153  14.628 -0.0417 -0.3750  0.5180
15688TIP3    H168555   5.852   3.239  14.597 -0.8179 -0.4709 -0.4950
15688TIP3    H268556   5.754   3.127  14.568 -1.4032 -0.7137  2.2026
15689TIP3   OH268557   6.637   4.283   4.917 -0.0797  0.7319 -0.1660
15689TIP3    H168558   6.618   4.191   4.934  0.9059  0.5386 -0.0719
15689TIP3    H268559   6.667   4.286   4.826  1.9950  0.6060  0.4656
15690TIP3   OH268560   5.844   5.468   1.285  0.4459 -0.2144  0.0799
15690TIP3    H168561   5.857   5.454   1.191  1.3054  0.5842  0.0733
15690TIP3    H268562   5.751   5.491   1.292  0.6067  0.7672 -0.7170
15691TIP3   OH268563   6.075   0.142   3.807  0.4569 -0.0152 -0.5304
15691TIP3    H168564   5.993   0.183   3.836  1.0344  1.5419 -1.0082
15691TIP3    H268565   6.124   0.127   3.887  0.0048 -0.3114 -0.3019
15692TIP3   OH268566   3.522   2.174   2.851 -0.4187  0.0213 -0.4317
15692TIP3    H168567   3.537   2.242   2.916 -0.7994 -0.0556 -0.2636
15692TIP3    H268568   3.467   2.109   2.896  0.2921 -0.6084 -0.4465
15693TIP3   OH268569   6.224   1.530  10.939 -0.1117 -0.1607 -0.9144
15693TIP3    H168570   6.190   1.462  10.996 -0.2701  2.1812  2.0400
15693TIP3    H268571   6.157   1.598  10.939  1.4420  1.4505 -0.9331
15694TIP3   OH268572   6.248   0.485  16.015 -0.1577  0.1854  0.0926
15694TIP3    H168573   6.256   0.508  16.107 -1.2804  0.2811  0.1784
15694TIP3    H268574   6.276   0.563  15.967  0.1504  0.2320  0.3474
15695TIP3   OH268575   4.197   5.878  15.975  0.2630  0.4654 -0.0455
15695TIP3    H168576   4.118   5.883  16.029  0.6535  2.3833  0.4392
15695TIP3    H268577   4.254   5.947  16.011  1.1987  0.6777 -1.8498
15696TIP3   OH268578   3.435   5.781   1.284 -0.6334  0.3638 -0.6162
15696TIP3    H168579   3.422   5.854   1.343 -1.2006  0.8199 -1.2844
15696TIP3    H268580   3.528   5.760   1.291 -0.8727 -0.2486  1.1697
15697TIP3   OH268581   2.921   6.569  12.031  0.4508 -0.3105 -0.3313
15697TIP3    H168582   2.934   6.522  12.113 -0.3809  1.5555  0.9375
15697TIP3    H268583   2.923   6.662  12.055 -3.1439  0.3270 -1.8016
15698TIP3   OH268584   3.090   1.724  15.544  0.0405 -0.3474 -0.7168
15698TIP3    H168585   3.100   1.629  15.536  0.2625 -0.3906 -0.0360
15698TIP3    H268586   3.104   1.741  15.637 -1.7291  0.1571 -0.5112
15699TIP3   OH268587   0.077   6.239  16.020 -0.9414  0.3517  0.1181
15699TIP3    H168588   0.081   6.210  15.929 -2.5866 -0.2107  0.1843
15699TIP3    H268589  -0.011   6.276  16.029 -0.1690  2.0482  1.0230
15700TIP3   OH268590   3.448   6.732  10.605  0.5862 -0.3514  0.1249
15700TIP3    H168591   3.427   6.826  10.613 -0.5635 -0.5819  0.0527
15700TIP3    H268592   3.396   6.690  10.674  1.1222 -0.9350  0.1800
15701TIP3   OH268593   3.497   3.165   3.570 -0.1570 -0.5085  0.3442
15701TIP3    H168594   3.502   3.119   3.487  0.5593  0.6868 -0.3136
15701TIP3    H268595   3.484   3.097   3.636 -0.9083 -1.4522 -0.7626
15702TIP3   OH268596   3.944   4.197  12.815  0.5989 -0.1158  0.0071
15702TIP3    H168597   3.892   4.230  12.741  2.9900 -1.2034 -2.3352
15702TIP3    H268598   3.905   4.113  12.837 -1.2072  0.9800  1.2749
15703TIP3   OH268599   0.847   2.597  15.380  0.2304 -0.8083 -0.0021
15703TIP3    H168600   0.844   2.693  15.374 -0.3906 -0.7435  1.1108
15703TIP3    H268601   0.864   2.568  15.290 -0.2326  0.3253 -0.4736
15704TIP3   OH268602   0.165   4.491  11.519 -0.2750  0.3585 -0.1866
15704TIP3    H168603   0.224   4.463  11.450 -0.8280 -1.1234 -0.0958
15704TIP3    H268604   0.114   4.413  11.540 -2.8560  1.7489 -0.8477
15705TIP3   OH268605   1.902   1.150   4.991  0.3554  0.4644  0.1342
15705TIP3    H168606   1.922   1.231   4.945  1.5590 -0.5945 -1.3432
15705TIP3    H268607   1.986   1.117   5.020 -0.0344 -0.5629  0.1485
15706TIP3   OH268608   2.867   4.283   2.395 -0.1746 -0.3856 -0.2831
15706TIP3    H168609   2.844   4.317   2.309  0.4830 -1.2216 -0.7952
15706TIP3    H268610   2.962   4.277   2.394 -0.2057 -1.1311  0.2183
15707TIP3   OH268611   4.887   3.049  17.218  0.0459 -0.6398  0.1821
15707TIP3    H168612   4.805   3.000  17.226 -0.7322  0.4642 -0.5868
15707TIP3    H268613   4.954   2.982  17.208 -0.5674 -1.6144  2.0786
15708TIP3   OH268614   5.644   0.793  13.596  0.2856 -0.8038  0.6302
15708TIP3    H168615   5.550   0.794  13.578  0.5210 -1.9598 -1.0042
15708TIP3    H268616   5.673   0.708  13.562  2.6285  1.2490 -3.1782
15709TIP3   OH268617   5.523   2.293   5.438 -0.3958  0.1755  0.0281
15709TIP3    H168618   5.527   2.329   5.349 -1.4888 -2.3535 -1.1388
15709TIP3    H268619   5.487   2.205   5.427  0.9668 -0.8523  2.8198
15710TIP3   OH268620   2.951   1.507  14.504 -0.1805 -0.2833 -0.7106
15710TIP3    H168621   2.867   1.461  14.513  0.7231 -1.9375 -0.3695
15710TIP3    H268622   2.997   1.489  14.585  0.7157  0.2138 -1.0943
15711TIP3   OH268623   5.865   4.812  13.730 -0.0176  0.0963 -0.1673
15711TIP3    H168624   5.788   4.861  13.760 -0.1845 -0.4065  0.2281
15711TIP3    H268625   5.839   4.720  13.736  0.1460 -0.0387 -1.3020
15712TIP3   OH268626   0.500   4.794  13.646  0.2796  0.1692 -0.7392
15712TIP3    H168627   0.551   4.842  13.711  0.1770 -0.2643 -0.3323
15712TIP3    H268628   0.531   4.827  13.562  2.0011 -0.8435 -0.5519
15713TIP3   OH268629   1.884   0.364   1.256  0.5030  0.4758 -0.1213
15713TIP3    H168630   1.961   0.307   1.263 -0.1492 -0.2563  1.6511
15713TIP3    H268631   1.821   0.313   1.204 -1.0977 -1.7921  3.6135
15714TIP3   OH268632   2.333   1.118  13.147 -0.1923  0.3587  0.3260
15714TIP3    H168633   2.290   1.111  13.062 -0.1155 -2.3988  0.4268
15714TIP3    H268634   2.426   1.131  13.127 -0.1581 -0.4111 -0.0378
15715TIP3   OH268635   5.932   4.597  12.924  0.0786  0.1241  0.0193
15715TIP3    H168636   5.855   4.653  12.923  0.5458  0.9414  2.2860
15715TIP3    H268637   5.908   4.524  12.981  0.8584  0.2635  0.5463
15716TIP3   OH268638   3.450   5.966  12.897  0.5234 -0.4581 -0.0435
15716TIP3    H168639   3.475   6.018  12.973 -0.7257  1.4264 -0.8687
15716TIP3    H268640   3.374   6.011  12.860  0.3756 -1.9762 -1.7431
15717TIP3   OH268641   6.814   4.682   2.944  0.1342 -0.2942 -0.0954
15717TIP3    H168642   6.755   4.736   2.891  0.0655 -1.3310 -1.1389
15717TIP3    H268643   6.844   4.614   2.883  0.8759 -0.9221  0.9430
15718TIP3   OH268644   5.146   3.935   0.716 -0.1493  0.2495  0.0833
15718TIP3    H168645   5.141   4.030   0.717 -1.3085  0.2024  0.3699
15718TIP3    H268646   5.204   3.913   0.788 -0.9172  0.7063  0.8643
15719TIP3   OH268647   6.489   5.008   4.055  0.1957  0.0870  0.5882
15719TIP3    H168648   6.540   4.980   4.132  1.6328 -0.1427 -0.4109
15719TIP3    H268649   6.550   5.059   4.003 -0.3771 -0.7687 -1.0030
15720TIP3   OH268650   0.363   5.303  10.526 -0.0273 -0.0563  0.0164
15720TIP3    H168651   0.284   5.253  10.505 -0.1048 -0.9071  2.1011
15720TIP3    H268652   0.413   5.304  10.444 -1.1194 -1.5148 -0.7255
15721TIP3   OH268653   5.970   5.818   3.489  0.4975 -0.1262  0.2843
15721TIP3    H168654   5.931   5.892   3.444  1.0196  0.3902  0.6750
15721TIP3    H268655   5.924   5.741   3.453  1.1019  0.2362 -1.3182
15722TIP3   OH268656   2.326   0.725   1.323  0.4102 -0.1446  0.3802
15722TIP3    H168657   2.316   0.764   1.409 -0.0683  0.0358  0.2490
15722TIP3    H268658   2.313   0.631   1.337 -1.3584  0.0476  0.2622
15723TIP3   OH268659   2.948   1.376   0.898 -0.3778 -0.1881 -0.1370
15723TIP3    H168660   2.893   1.451   0.876  0.4736  0.2077 -1.0043
15723TIP3    H268661   3.036   1.412   0.909 -0.4266 -0.6426  2.3349
15724TIP3   OH268662   3.462   0.471   2.707  0.0405  0.2101  0.3387
15724TIP3    H168663   3.473   0.492   2.614  1.2031  2.1015  0.8513
15724TIP3    H268664   3.524   0.528   2.752 -0.7590 -0.4044  2.3225
15725TIP3   OH268665   2.739   4.888  10.356  0.8271 -0.0844  0.3955
15725TIP3    H168666   2.790   4.830  10.299  2.1461  0.9965  0.4081
15725TIP3    H268667   2.749   4.851  10.443 -0.1104 -1.0090  0.1284
15726TIP3   OH268668   1.954   6.775  14.969 -0.1176 -0.1947  0.1895
15726TIP3    H168669   1.987   6.861  14.943  0.2667  0.0572  1.4379
15726TIP3    H268670   1.950   6.725  14.888  0.8634  0.6003 -0.3644
15727TIP3   OH268671   0.989   0.204  12.695 -0.0025 -0.3372 -0.6233
15727TIP3    H168672   1.002   0.150  12.773  1.5027  0.5253 -0.2282
15727TIP3    H268673   1.020   0.149  12.623  1.9640  0.1070 -0.1740
15728TIP3   OH268674   3.267   5.973  14.672 -0.1851 -0.2654  0.1471
15728TIP3    H168675   3.310   6.050  14.635 -0.4586  1.1919  2.6414
15728TIP3    H268676   3.299   5.968  14.762 -3.5199 -0.3975  1.4628
15729TIP3   OH268677   2.626   4.683  11.776 -0.0908  0.4996 -0.0967
15729TIP3    H168678   2.634   4.605  11.831 -1.4854  0.7579  0.4993
15729TIP3    H268679   2.536   4.681  11.744 -0.0685  1.7203 -0.2879
15730TIP3   OH268680   0.393   5.622   5.275 -0.1314  0.5390 -0.2294
15730TIP3    H168681   0.372   5.532   5.300 -1.6450  1.1580  0.9248
15730TIP3    H268682   0.344   5.676   5.338  1.7642  2.1767 -0.0647
15731TIP3   OH268683   5.442   6.114  14.453  0.3558 -0.2134 -0.8466
15731TIP3    H168684   5.438   6.018  14.460 -1.2372 -0.1016  0.1787
15731TIP3    H268685   5.515   6.139  14.509  0.7938 -0.8110 -1.1328
15732TIP3   OH268686   3.408   3.040  15.911  0.4917  0.5684 -0.1876
15732TIP3    H168687   3.395   3.092  15.990 -1.0625  2.2073 -1.4199
15732TIP3    H268688   3.325   2.993  15.899  1.6508 -1.7941  0.5513
15733TIP3   OH268689   4.443   3.313   4.006 -0.0211  0.2027  0.2821
15733TIP3    H168690   4.483   3.400   3.999 -1.8270  1.0841  0.1061
15733TIP3    H268691   4.422   3.289   3.916  0.4538 -0.4172  0.3350
15734TIP3   OH268692   2.572   0.169   4.534  0.3988 -0.0659 -0.1215
15734TIP3    H168693   2.561   0.125   4.618 -0.2615  1.7448  0.7892
15734TIP3    H268694   2.646   0.123   4.493  2.1131  0.2969  2.3471
15735TIP3   OH268695   1.481   3.623   4.432  0.0073  0.3274 -0.0883
15735TIP3    H168696   1.414   3.555   4.422  0.0993  0.0431  1.0117
15735TIP3    H268697   1.562   3.583   4.402  0.0617 -0.0718  0.5592
15736TIP3   OH268698   2.296   0.862  11.431  0.3911  0.0050 -0.2301
15736TIP3    H168699   2.244   0.887  11.354 -0.4725 -0.0129  0.3250
15736TIP3    H268700   2.357   0.934  11.443 -0.6421  0.8592  0.0880
15737TIP3   OH268701   3.236   6.527   4.566  0.1019 -0.3145 -0.5413
15737TIP3    H168702   3.312   6.536   4.508  0.2791 -2.2762 -0.6533
15737TIP3    H268703   3.163   6.507   4.507 -0.8927  2.8124 -0.5983
15738TIP3   OH268704   3.661   1.431  13.907  0.2923 -0.1463 -0.0722
15738TIP3    H168705   3.744   1.476  13.893  1.2398 -1.3636  1.4111
15738TIP3    H268706   3.604   1.498  13.945  0.3855  0.8350 -1.5510
15739TIP3   OH268707   3.889   1.891  12.930  0.2017 -0.5822 -0.4570
15739TIP3    H168708   3.848   1.871  13.014  0.6732  1.9013  0.4454
15739TIP3    H268709   3.936   1.811  12.906 -2.2129 -2.3225  0.1846
15740TIP3   OH268710   5.997   3.645  13.699 -0.7544  0.1493  0.1416
15740TIP3    H168711   5.973   3.579  13.764 -0.5748 -1.2491 -1.1656
15740TIP3    H268712   6.091   3.635  13.687 -0.9285 -0.3070 -1.0295
15741TIP3   OH268713   6.024   3.668   3.289  0.5890 -0.3745  0.0332
15741TIP3    H168714   5.935   3.702   3.302 -0.0949 -1.9569 -0.3806
15741TIP3    H268715   6.069   3.737   3.240 -0.5323  0.2716 -0.1178
15742TIP3   OH268716   0.490   4.627   5.040 -0.1028 -0.1672 -0.5410
15742TIP3    H168717   0.526   4.710   5.009  0.8811  0.0122  0.9993
15742TIP3    H268718   0.496   4.632   5.135  0.3498 -2.1730 -0.4236
15743TIP3   OH268719   4.911   4.310  15.265 -0.1930 -0.0615 -0.2488
15743TIP3    H168720   4.917   4.361  15.184 -1.4974 -1.5289 -1.3491
15743TIP3    H268721   4.837   4.251  15.250  1.1079 -2.1217  1.0133
15744TIP3   OH268722   5.623   4.878  15.059  0.1215  0.4285 -0.4944
15744TIP3    H168723   5.557   4.895  14.992 -0.3988 -1.9519 -0.6529
15744TIP3    H268724   5.583   4.910  15.140 -1.6278 -1.6119 -0.4628
15745TIP3   OH268725   1.319   1.872  13.470 -0.3822  0.4139 -0.2455
15745TIP3    H168726   1.352   1.808  13.407  0.8116  1.5934 -0.8694
15745TIP3    H268727   1.397   1.909  13.510 -1.0200  1.6719 -0.0973
15746TIP3   OH268728   4.262   1.583  12.008  0.5614  0.1668 -0.4603
15746TIP3    H168729   4.186   1.578  12.067 -0.1135  2.6181 -1.0244
15746TIP3    H268730   4.245   1.513  11.944  0.2030 -1.1008  0.9394
15747TIP3   OH268731   3.013   1.527   4.366 -0.6694 -0.8390  0.0520
15747TIP3    H168732   2.957   1.478   4.305  1.0210 -0.7155 -1.6696
15747TIP3    H268733   2.983   1.618   4.358  1.3652 -0.2927 -2.9108
15748TIP3   OH268734   2.530   4.375  13.741 -0.6306 -0.5403 -0.4092
15748TIP3    H168735   2.474   4.354  13.816  0.5757  0.5632  0.8387
15748TIP3    H268736   2.473   4.364  13.665 -2.0720 -1.0355  0.7002
15749TIP3   OH268737   1.207   4.311  12.223  0.3644 -0.0169 -0.1495
15749TIP3    H168738   1.124   4.335  12.265  0.4034 -0.2048  0.0327
15749TIP3    H268739   1.199   4.217  12.206  0.8473 -0.1895  0.5588
15750TIP3   OH268740   6.309   5.553  16.642 -0.2318 -0.2133 -0.7425
15750TIP3    H168741   6.215   5.557  16.628 -0.6595 -0.6987  1.5654
15750TIP3    H268742   6.324   5.609  16.718  1.2881 -0.5344 -0.7773
15751TIP3   OH268743   6.097   0.116  12.831  0.8862  0.7512 -0.1387
15751TIP3    H168744   6.042   0.157  12.898  1.5520  0.8381  0.3671
15751TIP3    H268745   6.061   0.146  12.748  0.2758  0.9413  0.1904
15752TIP3   OH268746   4.145   6.778   6.318  0.1692  0.2080 -0.0549
15752TIP3    H168747   4.200   6.775   6.240 -0.6879 -0.8685 -0.6517
15752TIP3    H268748   4.099   6.694   6.318 -1.4548  1.0483  0.4352
15753TIP3   OH268749   2.356   1.353   4.409 -0.1031  0.6023  0.2412
15753TIP3    H168750   2.318   1.391   4.329 -0.0661  0.9527  0.3893
15753TIP3    H268751   2.281   1.323   4.459 -0.0565 -1.1433 -0.6738
15754TIP3   OH268752   5.819   5.022   0.751  0.0217 -0.3815 -0.1683
15754TIP3    H168753   5.883   5.067   0.696  0.8470 -1.0727  0.2089
15754TIP3    H268754   5.761   5.092   0.781  1.1727  0.4144  0.2673
15755TIP3   OH268755   4.009   5.983   3.600  0.2140 -0.1328  0.3607
15755TIP3    H168756   3.964   5.953   3.521 -0.3002  0.1571  0.5403
15755TIP3    H268757   3.994   6.078   3.602  1.4553  0.0859  0.0284
15756TIP3   OH268758   5.486   1.088   2.017  0.5791  0.1964  0.1437
15756TIP3    H168759   5.469   1.164   1.961  1.0389 -0.2031 -0.5541
15756TIP3    H268760   5.579   1.070   2.006  0.9634  0.8725  2.0403
15757TIP3   OH268761   1.940   6.422   4.272  0.0698 -0.2694  0.3572
15757TIP3    H168762   1.874   6.467   4.325 -0.5179  0.5506 -1.0299
15757TIP3    H268763   2.014   6.483   4.270  0.8814 -1.1479  1.8336
15758TIP3   OH268764   5.244   1.974   1.242 -0.8401 -0.4415 -0.4985
15758TIP3    H168765   5.287   1.888   1.241 -1.2584 -0.6526 -0.9527
15758TIP3    H268766   5.189   1.973   1.164 -0.3462  0.4939 -0.8766
15759TIP3   OH268767   2.745   0.005  15.570 -0.0350  0.5246 -0.5075
15759TIP3    H168768   2.704  -0.016  15.487 -0.4111  0.3438 -0.2776
15759TIP3    H268769   2.794   0.086  15.553 -1.7383  1.6352 -0.4097
15760TIP3   OH268770   5.502   2.780   3.621 -0.2862  0.6564  0.7176
15760TIP3    H168771   5.589   2.805   3.589 -0.3233 -0.4816 -0.3223
15760TIP3    H268772   5.454   2.755   3.542 -1.3536  0.6402  1.3590
15761TIP3   OH268773   1.183   4.348  11.872  0.5326 -0.3121 -0.0031
15761TIP3    H168774   1.181   4.395  11.788  0.6415  1.5386  0.9686
15761TIP3    H268775   1.165   4.416  11.937  1.1070 -1.5830  1.5308
15762TIP3   OH268776   2.535   1.789   6.722  0.5106  0.5685  0.6087
15762TIP3    H168777   2.541   1.880   6.693 -0.7536  0.4372 -0.1304
15762TIP3    H268778   2.441   1.774   6.735  0.7025 -0.6213  0.7500
15763TIP3   OH268779   6.572   3.922  13.224 -0.3134 -0.8227 -0.1567
15763TIP3    H168780   6.660   3.886  13.210 -0.5471 -0.9004 -1.5096
15763TIP3    H268781   6.588   4.009  13.261  0.2746 -1.6445  1.6442
15764TIP3   OH268782   0.902   2.184   4.240  0.8329  0.3550  0.3432
15764TIP3    H168783   0.887   2.276   4.263 -0.0689  1.7176 -4.6500
15764TIP3    H268784   0.826   2.138   4.275 -0.2461  2.0812  0.4023
15765TIP3   OH268785   0.953   6.794   2.630  0.2078 -0.4977  0.4507
15765TIP3    H168786   0.945   6.863   2.695 -0.8460 -0.7498  0.6002
15765TIP3    H268787   1.045   6.799   2.602  0.0987  1.1254  0.2634
15766TIP3   OH268788   3.729   1.235  16.908  0.0784  0.0210 -0.0591
15766TIP3    H168789   3.811   1.185  16.912  0.1804  0.1952  0.0692
15766TIP3    H268790   3.758   1.327  16.904 -0.1138  0.0991  0.2879
15767TIP3   OH268791   0.717   1.041   4.854  0.3943  0.7208 -0.4458
15767TIP3    H168792   0.704   0.988   4.933  1.5711  0.9150 -0.1177
15767TIP3    H268793   0.810   1.062   4.854  0.1431  1.8753 -1.1635
15768TIP3   OH268794   1.063   4.246   5.198 -0.1973 -0.4460  0.1923
15768TIP3    H168795   0.969   4.233   5.215 -0.3516 -0.7783 -0.8373
15768TIP3    H268796   1.081   4.333   5.233 -1.0000 -0.1887  0.0010
15769TIP3   OH268797   1.918   1.105   5.850 -0.1803  0.2968  0.4379
15769TIP3    H168798   1.848   1.082   5.911 -0.1615 -0.2098  0.2673
15769TIP3    H268799   1.898   1.195   5.824 -1.0523 -0.0138 -0.0014
15770TIP3   OH268800   5.459   1.200   4.353  0.3468 -1.0945 -0.5296
15770TIP3    H168801   5.520   1.272   4.341  1.7524 -1.7420  1.9700
15770TIP3    H268802   5.512   1.121   4.347 -0.0594 -1.6680  1.9278
15771TIP3   OH268803   3.685   4.366  16.201  0.2670 -0.1090 -0.1069
15771TIP3    H168804   3.627   4.294  16.224  0.5225 -0.6825 -1.1940
15771TIP3    H268805   3.773   4.329  16.205  0.5363  0.5807  0.8839
15772TIP3   OH268806   2.568   1.732  11.225  0.2554 -0.5205 -0.4550
15772TIP3    H168807   2.551   1.652  11.275  1.9462  0.0423  1.1340
15772TIP3    H268808   2.483   1.774  11.216 -0.1742 -0.8638  1.6411
15773TIP3   OH268809   6.606   3.342  15.445 -0.0608 -0.1387  0.1326
15773TIP3    H168810   6.677   3.366  15.385 -0.3766  0.9968  0.1922
15773TIP3    H268811   6.526   3.356  15.394 -0.3002  0.0832  0.5604
15774TIP3   OH268812   0.932   5.262   1.945  0.0358  0.3563  0.1745
15774TIP3    H168813   0.850   5.313   1.943 -1.5046 -1.8705  1.6614
15774TIP3    H268814   0.981   5.292   1.868 -2.0270  2.0218 -0.5838
15775TIP3   OH268815   6.502   5.628   4.502 -0.0903 -0.1192  0.0761
15775TIP3    H168816   6.561   5.638   4.577  0.0865 -1.1995  0.0849
15775TIP3    H268817   6.466   5.540   4.511  1.9359 -1.3214 -2.5433
15776TIP3   OH268818   5.706   5.310  11.231  0.3996  0.1899 -0.0548
15776TIP3    H168819   5.779   5.352  11.276  0.8186 -0.0172 -0.5444
15776TIP3    H268820   5.674   5.376  11.169 -2.1069  1.6506  2.5292
15777TIP3   OH268821   0.503   5.516   2.119  0.2478 -0.6029 -0.1533
15777TIP3    H168822   0.468   5.434   2.153 -0.2614 -0.0345  0.7625
15777TIP3    H268823   0.492   5.578   2.191  0.4087  0.3239 -0.9017
15778TIP3   OH268824   0.994   3.391  13.795 -0.5847 -0.2444  0.3107
15778TIP3    H168825   0.907   3.421  13.768 -0.9322 -0.9173  0.6441
15778TIP3    H268826   1.038   3.470  13.825  0.0822  0.6937 -2.7872
15779TIP3   OH268827   6.056   2.956   0.870  0.9685 -0.2486  0.1353
15779TIP3    H168828   6.060   2.975   0.964 -0.3281  0.3217  0.0953
15779TIP3    H268829   5.963   2.961   0.848  1.1396 -1.4432 -0.9767
15780TIP3   OH268830   0.199   6.488  15.436  0.0570 -0.1933  0.4652
15780TIP3    H168831   0.244   6.405  15.420  0.5282 -0.0452  0.9791
15780TIP3    H268832   0.185   6.525  15.349  0.2068 -0.6200  0.2544
15781TIP3   OH268833   6.222   6.741  14.560  0.3150  0.0212 -0.2215
15781TIP3    H168834   6.166   6.776  14.629  0.7204 -0.4557  0.3569
15781TIP3    H268835   6.259   6.661  14.597 -1.0839 -1.4202 -1.7124
15782TIP3   OH268836   3.912   3.585   3.082  0.4301  0.2486  0.2069
15782TIP3    H168837   3.970   3.598   3.158 -0.2247  0.5375  0.6717
15782TIP3    H268838   3.969   3.549   3.014  1.1418  0.4657  0.6729
15783TIP3   OH268839   1.410   2.702  17.130 -0.2315  0.3968 -0.5033
15783TIP3    H168840   1.319   2.730  17.135 -0.7688 -1.3042  0.1661
15783TIP3    H268841   1.440   2.701  17.221 -0.3129 -1.2897 -0.4604
15784TIP3   OH268842   5.529   5.801  12.254 -0.4157 -0.2295  0.3629
15784TIP3    H168843   5.456   5.792  12.193 -0.2727 -0.5264  0.2309
15784TIP3    H268844   5.573   5.882  12.228  0.8136 -1.3440 -1.2120
15785TIP3   OH268845   3.903   5.434  14.779 -0.5543  0.7106  0.6663
15785TIP3    H168846   3.841   5.387  14.724  0.6121 -0.9770  0.7033
15785TIP3    H268847   3.855   5.452  14.860 -1.2459  0.2030  0.3777
15786TIP3   OH268848   5.639   0.477  14.670  0.1115 -0.4617 -0.2397
15786TIP3    H168849   5.593   0.426  14.737 -0.6424  0.0635 -0.3467
15786TIP3    H268850   5.669   0.555  14.715 -1.6910  0.6160 -0.7995
15787TIP3   OH268851   3.790   5.298   0.383  0.5229  0.3430  0.0591
15787TIP3    H168852   3.747   5.361   0.441  0.4144  0.6826 -0.3837
15787TIP3    H268853   3.842   5.243   0.442 -1.0549 -0.5360  0.6917
15788TIP3   OH268854   0.287   5.806  12.393 -0.1242 -0.1624 -0.5500
15788TIP3    H168855   0.296   5.800  12.488 -2.2219  0.0058 -0.2761
15788TIP3    H268856   0.287   5.715  12.362 -2.0306 -0.4027 -0.0177
15789TIP3   OH268857   0.684   1.246  11.815  0.1313 -0.1536 -0.7038
15789TIP3    H168858   0.684   1.324  11.870  0.6572  0.2206 -1.2236
15789TIP3    H268859   0.616   1.262  11.749  0.8961  0.3054 -1.4029
15790TIP3   OH268860   6.421   1.684   5.157 -0.1450 -0.5663  0.1077
15790TIP3    H168861   6.380   1.605   5.120 -0.1569  0.8220 -3.2391
15790TIP3    H268862   6.506   1.653   5.190  0.0150 -2.0041 -1.4519
15791TIP3   OH268863   0.415   2.168  15.068 -0.0178 -0.3095  0.4014
15791TIP3    H168864   0.411   2.195  14.976  1.0964 -1.2702  0.0423
15791TIP3    H268865   0.355   2.094  15.074 -2.2412  1.4633  1.1347
15792TIP3   OH268866   2.843   5.180  16.151 -0.0819  0.2037 -0.3286
15792TIP3    H168867   2.888   5.248  16.202  0.3823 -0.3677  0.0294
15792TIP3    H268868   2.815   5.116  16.217 -1.5473  0.6101 -0.5302
15793TIP3   OH268869   6.558   0.301   4.805 -0.3962 -0.2868  0.7483
15793TIP3    H168870   6.532   0.262   4.722  2.0217 -1.5929  0.5061
15793TIP3    H268871   6.565   0.227   4.866  3.2680 -0.3070  0.5512
15794TIP3   OH268872   3.283   6.199  12.865 -0.3121  0.1052  0.0407
15794TIP3    H168873   3.204   6.252  12.870 -0.8498 -0.6909  0.2478
15794TIP3    H268874   3.315   6.212  12.775 -1.8424 -1.1546 -0.7341
15795TIP3   OH268875   5.312   2.805   0.394 -0.1086  0.1200 -0.2669
15795TIP3    H168876   5.370   2.873   0.358 -0.7356  0.0286 -1.4991
15795TIP3    H268877   5.230   2.851   0.413 -0.0419  0.0022  0.3423
15796TIP3   OH268878   6.148   3.269  10.481 -0.0854  0.0794 -0.0198
15796TIP3    H168879   6.152   3.253  10.575 -1.0443  0.3655  0.0828
15796TIP3    H268880   6.070   3.221  10.452  0.2257 -0.0427 -0.6803
15797TIP3   OH268881   1.886   5.893   3.478 -0.3133 -0.0274  0.5183
15797TIP3    H168882   1.922   5.853   3.399  1.5128  0.4017  1.0866
15797TIP3    H268883   1.962   5.909   3.534 -1.0574  3.1483  0.8083
15798TIP3   OH268884   6.028   5.492  16.064  0.7004  0.4209  0.2403
15798TIP3    H168885   5.941   5.484  16.024 -0.5663 -0.5877  2.9485
15798TIP3    H268886   6.016   5.556  16.134  2.3764  0.7948  0.2385
15799TIP3   OH268887   6.604   6.597  16.619 -0.1058  0.2907 -0.4115
15799TIP3    H168888   6.682   6.601  16.564  0.7587  0.2716  0.7536
15799TIP3    H268889   6.604   6.680  16.666 -0.5538  0.1234 -0.1119
15800TIP3   OH268890   5.851   5.468  13.138 -0.1074  0.1268 -0.0368
15800TIP3    H168891   5.764   5.488  13.105  0.6759  1.2699 -1.5414
15800TIP3    H268892   5.888   5.407  13.074  0.0854 -0.6208  0.7707
15801TIP3   OH268893   4.249   6.502  14.040  0.6408 -0.1156  0.7823
15801TIP3    H168894   4.230   6.420  14.085  1.2183  0.3931  2.0295
15801TIP3    H268895   4.163   6.540  14.022  0.2263 -2.1818 -2.2675
15802TIP3   OH268896   3.719   6.725  10.565 -0.0627  0.4672  0.3448
15802TIP3    H168897   3.624   6.733  10.558  0.0377  0.8013 -0.8311
15802TIP3    H268898   3.753   6.811  10.540  0.5979 -0.2127 -1.3042
15803TIP3   OH268899   3.726   4.052  12.893  0.5017 -0.0847 -0.2997
15803TIP3    H168900   3.659   4.115  12.869  1.1412  1.1460  1.0543
15803TIP3    H268901   3.755   4.078  12.980  2.2236 -1.0202 -0.5363
15804TIP3   OH268902   6.169   5.503   3.607 -0.2004 -0.7872  0.0469
15804TIP3    H168903   6.184   5.509   3.513  0.3021  0.5487  0.1947
15804TIP3    H268904   6.226   5.570   3.645 -2.0857  0.2977  1.1223
15805TIP3   OH268905   4.131   6.418  13.029 -0.4984 -0.0041  0.8739
15805TIP3    H168906   4.124   6.323  13.021 -0.0262 -0.0042  0.4253
15805TIP3    H268907   4.216   6.432  13.071 -1.5588  0.1333  3.1031
15806TIP3   OH268908   0.461   1.136  12.770  0.3058  0.0640  0.6759
15806TIP3    H168909   0.475   1.148  12.863  0.1374  1.4278  0.5342
15806TIP3    H268910   0.542   1.095  12.739  0.9750  0.9920  1.1576
15807TIP3   OH268911   5.392   2.828  11.248  0.4509 -0.6812 -0.7070
15807TIP3    H168912   5.298   2.840  11.253  0.5778  0.2471 -0.1926
15807TIP3    H268913   5.422   2.834  11.339  1.0649 -0.3339 -0.9231
15808TIP3   OH268914   1.606   5.927   1.719  0.1110 -0.2360  0.1963
15808TIP3    H168915   1.560   5.852   1.680  3.5870 -2.9899  0.8860
15808TIP3    H268916   1.651   5.968   1.645 -0.7255  0.4327  0.0320
15809TIP3   OH268917   6.037   4.132  11.518 -0.2035  0.0643  0.2925
15809TIP3    H168918   6.055   4.182  11.598 -0.5400 -0.3426  0.6275
15809TIP3    H268919   6.109   4.155  11.459  0.1283  0.2588  0.7629
15810TIP3   OH268920   6.389   3.607   3.176 -0.1665 -0.4461 -0.6776
15810TIP3    H168921   6.419   3.533   3.230  1.0335  1.2009  1.0297
15810TIP3    H268922   6.312   3.573   3.131  0.9724 -3.0913 -0.8315
15811TIP3   OH268923   1.879   6.392  15.409 -0.0930 -0.5281 -0.3263
15811TIP3    H168924   1.802   6.425  15.363 -0.2481 -1.3235 -0.6694
15811TIP3    H268925   1.933   6.469  15.424 -1.5054  0.2605  1.0349
15812TIP3   OH268926   4.488   1.124  12.365 -0.0045 -0.5223 -0.1227
15812TIP3    H168927   4.432   1.166  12.300 -0.0334  0.9113  0.8123
15812TIP3    H268928   4.573   1.168  12.356 -0.6675  1.5258  2.4774
15813TIP3   OH268929   3.342   4.414  14.069 -0.0517 -0.3758  0.2356
15813TIP3    H168930   3.384   4.347  14.123  1.3339  1.0019  0.9198
15813TIP3    H268931   3.389   4.494  14.089 -0.9062  0.5947 -1.4543
15814TIP3   OH268932   4.055   4.493  15.039 -0.0535  0.3859 -0.4978
15814TIP3    H168933   4.033   4.404  15.065 -1.9564  0.6981 -0.9365
15814TIP3    H268934   4.125   4.483  14.974 -0.5748 -0.7998 -0.8860
15815TIP3   OH268935   2.378   4.700  15.394 -0.3137  0.0839  0.4017
15815TIP3    H168936   2.470   4.719  15.377  0.1726 -1.9535  0.5666
15815TIP3    H268937   2.330   4.759  15.335  1.1747 -1.5126 -2.6293
15816TIP3   OH268938   1.606   1.173   3.824 -0.5018  0.3510  0.3620
15816TIP3    H168939   1.539   1.109   3.849 -0.8321  0.3837 -0.4038
15816TIP3    H268940   1.579   1.203   3.737  0.8650 -0.1150 -0.2462
15817TIP3   OH268941   2.228   3.783   0.137 -0.0362  0.8994  0.3229
15817TIP3    H168942   2.135   3.768   0.152 -1.1784  4.8671 -1.3453
15817TIP3    H268943   2.260   3.821   0.219  0.2808 -0.8141  1.0272
15818TIP3   OH268944   5.852   6.099  11.545 -0.3412  0.1989  0.1688
15818TIP3    H168945   5.832   6.014  11.508 -1.6541  1.0677 -1.2112
15818TIP3    H268946   5.806   6.162  11.489 -1.1817  1.6916  2.3721
15819TIP3   OH268947   5.706   4.752  12.917  0.2016  0.0549  0.3997
15819TIP3    H168948   5.662   4.667  12.925  1.9114 -1.2339 -2.3415
15819TIP3    H268949   5.712   4.785  13.007 -0.8021 -2.5537  1.5141
15820TIP3   OH268950   0.898   5.570   4.462 -0.3215  0.5228 -0.7813
15820TIP3    H168951   0.900   5.663   4.483 -0.2232  0.9344 -2.4689
15820TIP3    H268952   0.986   5.551   4.429  0.1400 -0.5480  0.9435
15821TIP3   OH268953   0.554   1.512  16.260  0.4801  0.2482  0.1427
15821TIP3    H168954   0.554   1.589  16.203 -0.7364  0.5480  0.5071
15821TIP3    H268955   0.640   1.512  16.301 -0.0374  2.3705  1.3740
15822TIP3   OH268956   4.712   4.135  15.141  0.1741 -0.2686 -0.4047
15822TIP3    H168957   4.643   4.144  15.207  2.6603 -1.1823  2.5303
15822TIP3    H268958   4.731   4.041  15.139  2.1712  0.1002 -0.1764
15823TIP3   OH268959   4.322   1.294   4.855 -0.5495  0.1736  0.2165
15823TIP3    H168960   4.285   1.382   4.857 -2.0864 -0.3650 -1.5394
15823TIP3    H268961   4.414   1.307   4.831 -0.5188  1.3339  0.8922
15824TIP3   OH268962   5.085   4.607  13.323  0.4857 -0.2874 -0.3742
15824TIP3    H168963   5.114   4.537  13.382 -0.1776 -0.3226 -0.0757
15824TIP3    H268964   5.163   4.660  13.308  0.3511  0.6991  1.8717
15825TIP3   OH268965   0.760   0.479   5.912 -0.1235  0.1805  0.5093
15825TIP3    H168966   0.823   0.528   5.859 -0.0227  0.5426  0.9596
15825TIP3    H268967   0.701   0.546   5.948 -1.5093 -0.2347 -0.8483
15826TIP3   OH268968   4.203   4.282   3.350 -0.1142  0.2357 -0.0453
15826TIP3    H168969   4.153   4.361   3.374  1.1633  0.4488  2.1719
15826TIP3    H268970   4.207   4.285   3.255  0.5219  3.2856 -0.0318
15827TIP3   OH268971   4.750   0.840   5.531  0.4629 -0.1237  0.0538
15827TIP3    H168972   4.720   0.762   5.484  0.1460  0.4790 -0.7593
15827TIP3    H268973   4.682   0.905   5.514 -0.6138 -0.3823  2.8159
15828TIP3   OH268974   2.398   1.736  15.273 -0.4250  0.0810 -0.5161
15828TIP3    H168975   2.469   1.740  15.336  0.5752 -2.4206 -1.3676
15828TIP3    H268976   2.353   1.821  15.281  0.6349  0.4527  2.3325
15829TIP3   OH268977   1.526   1.761   6.407 -0.0534 -0.0524 -0.0525
15829TIP3    H168978   1.467   1.762   6.483  0.7436  0.1221  0.5804
15829TIP3    H268979   1.613   1.772   6.445  0.4686 -1.1020 -0.9116
15830TIP3   OH268980   3.261   4.831  11.146 -0.6214  0.1571  0.4990
15830TIP3    H168981   3.336   4.772  11.138 -0.0085  1.0123 -0.2474
15830TIP3    H268982   3.271   4.871  11.233  0.6697  1.3920 -0.1748
15831TIP3   OH268983   4.674   1.338   2.883  0.3011  0.1623  0.2528
15831TIP3    H168984   4.649   1.427   2.859  0.1436  0.0512  0.0030
15831TIP3    H268985   4.767   1.345   2.905  0.0481  0.5926  1.2720
15832TIP3   OH268986   6.475   5.232   3.551  0.0380  0.2236  0.0339
15832TIP3    H168987   6.447   5.289   3.479  0.5375  1.5395  0.8297
15832TIP3    H268988   6.499   5.293   3.621  0.7991 -0.9802  0.8595
15833TIP3   OH268989   5.696   5.672   2.511 -0.3034 -0.5556  0.0173
15833TIP3    H168990   5.711   5.594   2.564 -2.0392 -0.2260  1.0801
15833TIP3    H268991   5.626   5.646   2.451 -0.7947  0.1215  0.2867
15834TIP3   OH268992   3.891   5.874   0.107 -0.5900 -0.0615  0.3979
15834TIP3    H168993   3.836   5.832   0.041 -2.3903  1.3973  0.8966
15834TIP3    H268994   3.851   5.852   0.191 -1.4092  2.2884  0.6850
15835TIP3   OH268995   5.930   0.384  13.523 -0.6650 -0.1621  0.6012
15835TIP3    H168996   5.907   0.457  13.465 -0.0796 -0.4695 -0.0265
15835TIP3    H268997   6.011   0.411  13.565 -0.1149 -0.7001 -0.0937
15836TIP3   OH268998   5.513   1.440  12.665  0.3371  0.2363  0.2520
15836TIP3    H168999   5.466   1.480  12.592  0.3948 -0.4001 -0.1432
15836TIP3    H269000   5.520   1.510  12.730 -0.9831  0.4016  0.2441
15837TIP3   OH269001   6.445   0.908   6.232 -0.0462 -0.0298  0.2799
15837TIP3    H169002   6.484   0.825   6.259 -0.4349  0.2152  1.6552
15837TIP3    H269003   6.352   0.898   6.250  0.1477  1.4073  2.5052
15838TIP3   OH269004   6.075   4.970  12.969 -0.7594  0.0702  0.3689
15838TIP3    H169005   6.132   5.036  13.007 -0.5386 -0.4245  0.9054
15838TIP3    H269006   6.066   4.997  12.877  0.6066 -0.0250  0.1807
15839TIP3   OH269007   0.634   6.157  15.946  0.2442 -0.6900  0.0696
15839TIP3    H169008   0.638   6.235  16.001  1.3750 -0.1156 -0.7698
15839TIP3    H269009   0.542   6.147  15.923  0.1228  0.6109 -0.0772
15840TIP3   OH269010   5.451   2.386  12.702 -0.3252  0.0113  0.2228
15840TIP3    H169011   5.405   2.395  12.619 -2.6427  2.3956  1.6003
15840TIP3    H269012   5.482   2.475  12.721 -1.4569 -0.0474  2.6966
15841TIP3   OH269013   3.197   6.778  12.776 -0.3094  0.1684 -0.6069
15841TIP3    H169014   3.169   6.797  12.687 -0.0407  1.5842 -0.4129
15841TIP3    H269015   3.142   6.705  12.803  1.3429 -2.0145 -2.7870
15842TIP3   OH269016   1.186   3.594   3.839 -0.4280  0.4329  0.2428
15842TIP3    H169017   1.126   3.551   3.779  1.7156 -3.6250  0.6780
15842TIP3    H269018   1.241   3.649   3.783 -1.2964  0.2429 -0.8342
15843TIP3   OH269019   5.720   1.492   4.529  0.4985  0.3269  0.3117
15843TIP3    H169020   5.768   1.526   4.453 -2.1880  1.4271 -1.0166
15843TIP3    H269021   5.715   1.566   4.589 -0.9091  0.7417 -0.2923
15844TIP3   OH269022   2.765   6.536   3.463 -0.3570  0.2768 -0.1643
15844TIP3    H169023   2.827   6.499   3.526  0.4496  0.7104 -0.6797
15844TIP3    H269024   2.695   6.572   3.517  0.8480  1.6093  0.5734
15845TIP3   OH269025   3.906   3.178  11.016 -0.4875  0.5839  0.3182
15845TIP3    H169026   3.849   3.106  10.990 -0.1907 -0.1564  1.6272
15845TIP3    H269027   3.846   3.250  11.035 -0.8853  0.2262  0.4248
15846TIP3   OH269028   5.598   3.905   3.164 -0.3826 -0.7627  0.0213
15846TIP3    H169029   5.603   3.933   3.073 -0.5443 -2.1508 -0.4428
15846TIP3    H269030   5.540   3.829   3.163 -1.8331  0.2600  1.5696
15847TIP3   OH269031   5.113   1.958  15.285  0.3046  0.0470 -0.3945
15847TIP3    H169032   5.171   2.028  15.256 -0.4899  0.8954 -0.0070
15847TIP3    H269033   5.026   1.998  15.285 -0.2615 -1.1358 -0.7837
15848TIP3   OH269034   0.392   2.082  14.585 -0.4858 -0.1447  0.3112
15848TIP3    H169035   0.313   2.045  14.546 -1.3425  1.7493  0.1460
15848TIP3    H269036   0.381   2.068  14.679  0.6542 -2.9499  0.1147
15849TIP3   OH269037   3.753   4.741  12.750 -0.0734  0.3371  0.0576
15849TIP3    H169038   3.730   4.815  12.807 -1.0856  0.8474 -0.9707
15849TIP3    H269039   3.668   4.704  12.725  0.3951 -0.4937 -0.3368
15850TIP3   OH269040   3.526   3.808  14.553 -0.4167  0.0272 -0.0232
15850TIP3    H169041   3.557   3.843  14.469 -2.3212  0.7479 -0.4861
15850TIP3    H269042   3.526   3.713  14.542  1.2614  0.0046 -0.0868
15851TIP3   OH269043   4.943   0.634   0.514  0.2582  0.2844  0.2474
15851TIP3    H169044   4.964   0.669   0.427 -0.9382  0.6464  0.0777
15851TIP3    H269045   4.924   0.711   0.567 -1.5253 -0.0167  0.1139
15852TIP3   OH269046   3.580   5.908   0.931  0.1774 -0.0897  0.1834
15852TIP3    H169047   3.639   5.981   0.914  0.9802 -0.6169  0.6423
15852TIP3    H269048   3.502   5.949   0.967  0.8869  0.5006  1.0991
15853TIP3   OH269049   5.349   3.166   6.077 -0.1257 -0.4256 -0.1208
15853TIP3    H169050   5.374   3.098   6.141 -0.5320  0.3576  0.9022
15853TIP3    H269051   5.365   3.248   6.123 -0.7650  0.1499 -0.9201
15854TIP3   OH269052   3.319   4.787  13.928 -0.1803  0.0463 -0.0882
15854TIP3    H169053   3.404   4.802  13.970  0.3532 -0.3004 -1.0183
15854TIP3    H269054   3.336   4.719  13.863 -1.7709 -2.0407  1.5629
15855TIP3   OH269055   0.450   4.454   2.253 -0.0036 -0.2086 -0.2704
15855TIP3    H169056   0.387   4.519   2.223 -1.8297 -1.8044 -0.0636
15855TIP3    H269057   0.503   4.435   2.175 -0.6311  0.1977 -0.8140
15856TIP3   OH269058   2.415   4.012   5.241 -0.2435  0.4703  0.3424
15856TIP3    H169059   2.381   4.025   5.330  0.1619 -1.1576  0.7596
15856TIP3    H269060   2.379   4.086   5.191 -0.4151  1.4596  1.8578
15857TIP3   OH269061   0.543   0.938  14.078 -0.1065  0.2527  0.6291
15857TIP3    H169062   0.547   1.033  14.065  0.8414  0.6077  3.0114
15857TIP3    H269063   0.452   0.921  14.104 -0.1910  0.5536  0.5324
15858TIP3   OH269064   0.528   5.071  13.217  0.5137 -0.3922  0.4219
15858TIP3    H169065   0.459   5.118  13.263  0.6501  0.2481 -0.0155
15858TIP3    H269066   0.494   5.061  13.127  0.9981 -0.0421  0.1972
15859TIP3   OH269067   0.728   1.734  11.263  0.8116  0.4048  0.6209
15859TIP3    H169068   0.789   1.688  11.207  0.3824  0.3335  0.2021
15859TIP3    H269069   0.706   1.814  11.214  0.4582  0.3569  0.6985
15860TIP3   OH269070   3.651   2.444   3.786  0.1253  0.2837  0.7509
15860TIP3    H169071   3.643   2.364   3.734  2.6202  1.0675 -1.0220
15860TIP3    H269072   3.602   2.426   3.866 -1.2640 -2.1572 -0.5344
15861TIP3   OH269073   0.495   0.793   5.517  0.1546  0.1132 -0.4421
15861TIP3    H169074   0.400   0.792   5.512 -0.2310  2.0882  2.9764
15861TIP3    H269075   0.518   0.714   5.566  0.3626 -0.6192 -1.6914
15862TIP3   OH269076   0.789   5.550   2.718  0.1521  0.0822 -0.3839
15862TIP3    H169077   0.878   5.569   2.748  0.5219 -0.7193 -0.9530
15862TIP3    H269078   0.745   5.514   2.795 -0.8216  3.6986  1.0082
15863TIP3   OH269079   0.826   5.511   5.767 -0.1172 -0.7538  0.7411
15863TIP3    H169080   0.768   5.435   5.767 -0.2150 -0.6931 -0.1516
15863TIP3    H269081   0.869   5.508   5.852 -1.7035 -0.5708  1.5849
15864TIP3   OH269082   5.748   5.666  14.737 -1.0514 -0.0064 -0.3558
15864TIP3    H169083   5.809   5.677  14.665 -0.3899  0.5925  0.2780
15864TIP3    H269084   5.779   5.588  14.783  0.7253  1.5902  1.3412
15865TIP3   OH269085   5.982   5.350  16.838 -0.3076  1.1169 -0.1844
15865TIP3    H169086   6.042   5.422  16.858  0.6809  0.1684  0.4056
15865TIP3    H269087   5.963   5.311  16.924  1.4125 -1.0371 -0.6944
15866TIP3   OH269088   2.891   3.362   2.668 -0.0032 -0.5171  0.0972
15866TIP3    H169089   2.903   3.399   2.581  2.2619  0.1435  0.6039
15866TIP3    H269090   2.979   3.333   2.694 -0.9316 -2.2786  1.4824
15867TIP3   OH269091   0.710   6.089  16.380 -0.5726 -0.5460  0.3897
15867TIP3    H169092   0.618   6.062  16.385 -0.5506 -1.0218 -1.2739
15867TIP3    H269093   0.744   6.045  16.302  0.9443  0.0184  0.6973
15868TIP3   OH269094   0.642   0.830   2.330 -0.5236 -0.5991 -0.3018
15868TIP3    H169095   0.690   0.788   2.259  1.5428  0.7230  0.2235
15868TIP3    H269096   0.671   0.921   2.329 -2.5921  0.1404  0.4845
15869TIP3   OH269097   5.682   6.101   4.350  0.2828  0.4944 -0.5259
15869TIP3    H169098   5.731   6.091   4.432  0.4519  1.2624 -0.5340
15869TIP3    H269099   5.707   6.025   4.298 -0.7565 -0.6766  0.6112
15870TIP3   OH269100   2.913   5.093   3.418 -0.3520  0.2409 -0.4809
15870TIP3    H169101   2.898   5.054   3.332 -1.3561  0.1046 -0.2537
15870TIP3    H269102   2.970   5.031   3.463 -1.8257 -0.9385 -0.1692
15871TIP3   OH269103   5.384   0.633  16.565  0.1304 -0.1824 -0.3611
15871TIP3    H169104   5.433   0.659  16.643 -0.8663  0.3651  0.1172
15871TIP3    H269105   5.397   0.539  16.558 -0.3360 -0.3610  0.8978
15872TIP3   OH269106   6.290   0.888   4.298  0.1762  0.0157 -0.4737
15872TIP3    H169107   6.313   0.878   4.391  1.0004  1.9242 -0.4220
15872TIP3    H269108   6.194   0.891   4.298  0.0349 -2.2905 -0.0052
15873TIP3   OH269109   0.298   3.804   4.057 -0.0223  0.0497 -0.0126
15873TIP3    H169110   0.246   3.839   4.129  0.0497  0.7039 -0.2747
15873TIP3    H269111   0.238   3.747   4.009 -0.2782  0.1990  0.1314
15874TIP3   OH269112   1.055   5.008   0.537  0.1310 -0.4142 -0.2993
15874TIP3    H169113   1.103   4.926   0.539  0.0678 -0.4359  1.2872
15874TIP3    H269114   1.120   5.073   0.509  0.4786 -0.8024 -0.4102
15875TIP3   OH269115   2.105   0.752  12.276 -0.2200  0.2652  0.4591
15875TIP3    H169116   2.164   0.687  12.314  2.2228  1.4871 -1.0063
15875TIP3    H269117   2.040   0.701  12.228  1.3795 -1.1664 -0.2809
15876TIP3   OH269118   0.458   4.652  10.941  0.0325 -0.2270 -0.1396
15876TIP3    H169119   0.487   4.567  10.973  1.6258 -0.1748 -1.3390
15876TIP3    H269120   0.513   4.716  10.986 -0.7187  0.1547  0.2715
15877TIP3   OH269121   5.018   5.943   3.966 -0.1605 -0.0189  0.0903
15877TIP3    H169122   5.080   5.961   4.037 -1.3963  1.1962  0.9166
15877TIP3    H269123   4.940   5.910   4.010 -0.0084 -1.9018 -0.9631
15878TIP3   OH269124   0.104   0.646   5.576 -0.6954  0.5734 -0.0943
15878TIP3    H169125   0.018   0.624   5.611 -0.9755  2.3248  0.4089
15878TIP3    H269126   0.113   0.740   5.591  0.5827  0.7621 -1.7166
15879TIP3   OH269127   1.557   2.619   5.357 -0.4279  0.2191  0.1048
15879TIP3    H169128   1.532   2.626   5.449  1.7527  1.5372  0.6786
15879TIP3    H269129   1.533   2.703   5.319  0.1251  0.2742 -0.1296
15880TIP3   OH269130   4.340   0.020   0.253 -0.7409  0.0899 -0.3722
15880TIP3    H169131   4.378   0.077   0.321  0.1375  0.6939 -1.3359
15880TIP3    H269132   4.253   0.058   0.237 -2.4150 -2.0428  2.7371
15881TIP3   OH269133   6.535   4.047   1.143  0.1940 -0.2164 -0.0063
15881TIP3    H169134   6.564   3.979   1.203  0.4640 -0.4407 -0.3839
15881TIP3    H269135   6.602   4.116   1.149 -0.2647  0.1863  0.6448
15882TIP3   OH269136   5.827   1.742  11.631  0.1094  0.3149  0.1675
15882TIP3    H169137   5.887   1.722  11.703 -0.9348 -0.2484  0.9217
15882TIP3    H269138   5.881   1.784  11.565  1.3282 -0.1913  0.8102
15883TIP3   OH269139   2.274   2.464  15.324  0.0337  0.5825  0.1559
15883TIP3    H169140   2.249   2.513  15.402 -1.7436  0.0057  0.0034
15883TIP3    H269141   2.193   2.420  15.296  0.8781 -0.0971 -1.3796
15884TIP3   OH269142   4.328   4.758  11.158 -0.3449  0.3033 -0.1157
15884TIP3    H169143   4.401   4.815  11.131 -0.0717  0.8599  1.6444
15884TIP3    H269144   4.299   4.716  11.077  1.2591  0.8544 -1.0293
15885TIP3   OH269145   5.639   0.763  15.511 -0.1083  0.0945  0.7529
15885TIP3    H169146   5.636   0.689  15.451  0.4082 -0.1307  1.0007
15885TIP3    H269147   5.685   0.730  15.588  0.1059  0.6674  0.8777
15886TIP3   OH269148   0.981   5.480   3.607  0.5897  0.5933 -0.4353
15886TIP3    H169149   0.996   5.550   3.543  0.3314  0.1456 -0.9886
15886TIP3    H269150   0.963   5.402   3.554 -2.2117  0.7443  0.1647
15887TIP3   OH269151   6.162   1.230  15.629 -0.3023  0.3645 -1.0308
15887TIP3    H169152   6.205   1.200  15.709 -1.3103  1.5684 -0.0012
15887TIP3    H269153   6.137   1.150  15.584  0.1085 -0.3382 -0.0461
15888TIP3   OH269154   6.312   3.766  16.503 -0.2984 -0.0785 -0.3297
15888TIP3    H169155   6.333   3.792  16.413  0.2522  3.8586  0.7425
15888TIP3    H269156   6.385   3.801  16.555 -1.9839  0.3057  1.8935
15889TIP3   OH269157   3.273   3.216  12.178 -0.0156 -0.1113 -0.2435
15889TIP3    H169158   3.327   3.158  12.124  0.1809  0.2429 -0.4295
15889TIP3    H269159   3.261   3.168  12.260 -1.8487 -1.4839 -1.2402
15890TIP3   OH269160   4.349   4.670  14.039 -0.1806  0.2874 -0.3750
15890TIP3    H169161   4.337   4.578  14.015  0.1609 -0.1332  0.9810
15890TIP3    H269162   4.325   4.719  13.960  0.6856 -1.0022 -1.4709
15891TIP3   OH269163   0.414   3.154   2.908 -0.6250 -1.0107  0.0522
15891TIP3    H169164   0.401   3.187   2.819 -2.1866  1.3615  1.0403
15891TIP3    H269165   0.434   3.232   2.960 -0.9535 -2.1397  1.9809
15892TIP3   OH269166   2.291   5.280  11.733  0.7296  0.0758  0.4009
15892TIP3    H169167   2.366   5.308  11.680 -1.4059  0.4708 -2.6723
15892TIP3    H269168   2.275   5.354  11.792  1.6348  0.7624 -0.1915
15893TIP3   OH269169   2.164   0.973   3.649 -0.1751  0.5369  0.1572
15893TIP3    H169170   2.096   0.910   3.627 -0.7750  0.7321  1.3402
15893TIP3    H269171   2.202   0.940   3.730  1.0614  0.5031 -0.4190
15894TIP3   OH269172   0.578   6.124  13.863 -0.5008  0.8654 -0.4381
15894TIP3    H169173   0.511   6.145  13.927 -0.3039  0.9772 -0.2687
15894TIP3    H269174   0.572   6.029  13.852  0.1264  0.7038  0.4855
15895TIP3   OH269175   6.134   0.627  14.505  0.5697 -0.0487 -0.0035
15895TIP3    H169176   6.137   0.677  14.423  1.6500  1.9201  1.1742
15895TIP3    H269177   6.163   0.539  14.480  1.9027  0.7765 -1.5697
15896TIP3   OH269178   1.219   3.054  10.392 -0.5233 -0.0776  0.9692
15896TIP3    H169179   1.180   2.967  10.401 -0.8720 -0.5224 -2.9981
15896TIP3    H269180   1.313   3.040  10.403 -0.6478 -0.8135  1.1092
15897TIP3   OH269181   4.737   3.865  15.174 -0.2306  0.2378 -0.1318
15897TIP3    H169182   4.829   3.879  15.192  0.1215 -2.5560  0.7467
15897TIP3    H269183   4.731   3.865  15.078  1.1232 -1.5817 -0.2725
15898TIP3   OH269184   3.875   3.515  13.492  0.4911  0.0400  0.8836
15898TIP3    H169185   3.942   3.566  13.539  1.0768 -0.0493  0.1770
15898TIP3    H269186   3.888   3.425  13.522 -0.2669  0.2355  1.8195
15899TIP3   OH269187   2.066   6.052  12.680  0.5756 -0.2031  0.1074
15899TIP3    H169188   2.061   6.028  12.587 -0.1596 -1.6157  0.4804
15899TIP3    H269189   2.095   5.972  12.724  0.3356  0.2697  1.1640
15900TIP3   OH269190   2.221   6.107   4.620  0.2103  0.3300 -0.1524
15900TIP3    H169191   2.195   6.103   4.712  1.2244  0.8238  0.1708
15900TIP3    H269192   2.209   6.018   4.587  1.8508 -0.3867  1.0400
15901TIP3   OH269193   6.647   3.440   6.096  0.5376 -0.0862  0.2694
15901TIP3    H169194   6.565   3.489   6.106  0.9889  1.0530 -1.3030
15901TIP3    H269195   6.712   3.494   6.141  0.5391 -0.7743  1.1308
15902TIP3   OH269196   3.345   1.554   2.206 -0.4316  0.1762 -0.3666
15902TIP3    H169197   3.411   1.535   2.273  0.2808  1.4722 -0.6729
15902TIP3    H269198   3.289   1.620   2.246 -0.4953  0.3546 -0.7515
15903TIP3   OH269199   5.425   0.799   3.659  0.1346  0.6520 -0.2828
15903TIP3    H169200   5.343   0.750   3.664  0.2573  0.5475  2.4926
15903TIP3    H269201   5.493   0.733   3.671  0.5315  0.9640 -0.7945
15904TIP3   OH269202   2.944   2.986  15.412 -0.5106 -0.7404  0.0164
15904TIP3    H169203   2.863   2.945  15.441 -0.0627 -0.3720  1.9279
15904TIP3    H269204   2.928   3.080  15.419  0.6287 -0.6537  2.2236
15905TIP3   OH269205   1.352   1.999  16.964  0.3945  0.0361 -0.1216
15905TIP3    H169206   1.378   1.997  17.056  1.8765 -1.6296 -0.5323
15905TIP3    H269207   1.358   2.092  16.939 -0.0720  0.5146  1.4355
15906TIP3   OH269208   3.409   3.064   1.071  0.1268 -0.0307  0.6367
15906TIP3    H169209   3.459   3.076   0.990 -0.4104  0.7813  0.4155
15906TIP3    H269210   3.319   3.086   1.047  0.0777  0.8956  1.6220
15907TIP3   OH269211   0.951   2.641   5.423 -0.0505 -0.8024  0.6708
15907TIP3    H169212   1.041   2.642   5.389 -1.0091  0.4313 -2.1230
15907TIP3    H269213   0.945   2.718   5.479  0.7006 -1.0614  1.1196
15908TIP3   OH269214   2.806   6.094   3.053 -0.0814 -0.0796 -0.2210
15908TIP3    H169215   2.814   6.002   3.077  1.8048  0.1651  0.2235
15908TIP3    H269216   2.849   6.141   3.124 -1.1637  1.1637 -0.3634
15909TIP3   OH269217   6.016   5.512  11.675 -0.3239 -0.0157  0.2412
15909TIP3    H169218   5.962   5.435  11.691 -0.9221  0.6679  1.7089
15909TIP3    H269219   5.958   5.587  11.691  0.5374  0.7521 -0.0682
15910TIP3   OH269220   2.529   0.988   5.572  0.0192 -0.3760  0.6278
15910TIP3    H169221   2.609   0.936   5.561 -0.2264 -0.4196 -1.2609
15910TIP3    H269222   2.559   1.079   5.574  0.1678 -0.4220  0.5265
15911TIP3   OH269223   5.841   4.174  16.813  0.2600  0.4937  0.5354
15911TIP3    H169224   5.905   4.216  16.756  0.2757 -0.6084 -0.2724
15911TIP3    H269225   5.892   4.109  16.862 -0.3179 -0.7423 -0.4798
15912TIP3   OH269226   3.250   6.606  10.763 -0.1917 -0.3712 -0.0749
15912TIP3    H169227   3.178   6.657  10.727 -0.1650 -0.0668  0.3067
15912TIP3    H269228   3.209   6.530  10.803 -0.1327 -1.5512 -2.1026
15913TIP3   OH269229   1.256   4.446  15.581 -0.2398  0.0382  0.0428
15913TIP3    H169230   1.305   4.397  15.647  0.3583 -0.4759 -0.7644
15913TIP3    H269231   1.256   4.389  15.504 -1.3277  0.4262 -0.2582
15914TIP3   OH269232   6.315   4.979  14.190  0.6458 -0.1243 -0.0577
15914TIP3    H169233   6.314   5.072  14.166 -1.0460 -0.2013 -0.4035
15914TIP3    H269234   6.393   4.944  14.148  1.3440  1.1460  0.1264
15915TIP3   OH269235   5.133   2.051  11.266  0.3698 -1.0024  0.0688
15915TIP3    H169236   5.153   2.043  11.173 -2.2957 -0.5142 -0.6347
15915TIP3    H269237   5.157   1.967  11.304  0.9631 -1.4028 -1.1570
15916TIP3   OH269238   4.052   6.295   2.223  0.1491  0.0521 -0.7461
15916TIP3    H169239   4.047   6.239   2.146 -0.8481  0.7494 -1.2104
15916TIP3    H269240   4.143   6.327   2.224  0.4495 -0.7726 -1.0327
15917TIP3   OH269241   0.362   4.578  16.285  0.2445  0.0855 -0.3222
15917TIP3    H169242   0.295   4.586  16.353  0.3746  1.2162 -0.3047
15917TIP3    H269243   0.411   4.660  16.290  1.9449 -0.8894 -0.0142
15918TIP3   OH269244   3.425   6.289  10.845  0.2627 -0.4628  0.4889
15918TIP3    H169245   3.433   6.200  10.810  0.4290 -0.5812  0.8236
15918TIP3    H269246   3.497   6.338  10.805 -1.5448  0.3145 -2.0439
15919TIP3   OH269247   0.555   2.875  12.142 -0.5870  0.0913  0.0670
15919TIP3    H169248   0.548   2.941  12.212 -2.1777 -0.5400  0.5430
15919TIP3    H269249   0.478   2.819  12.154  1.4691 -2.8486  0.6661
15920TIP3   OH269250   0.691   2.201   5.421  0.4684 -0.2585  0.0525
15920TIP3    H169251   0.629   2.267   5.452 -1.5272 -0.5829 -2.8391
15920TIP3    H269252   0.777   2.238   5.441 -0.5788  2.6044 -0.2361
15921TIP3   OH269253   5.106   5.738   4.754  0.2071  0.6789 -0.3647
15921TIP3    H169254   5.013   5.718   4.748 -1.0321  4.1843  2.8779
15921TIP3    H269255   5.145   5.659   4.792 -1.7164 -0.3518 -0.4232
15922TIP3   OH269256   6.311   5.890  16.057 -0.7513 -0.1151  0.2201
15922TIP3    H169257   6.350   5.807  16.031 -1.7296  0.3667 -3.2312
15922TIP3    H269258   6.385   5.944  16.083  0.1072 -1.3961  0.5272
15923TIP3   OH269259   0.309   2.319   4.495  0.6429 -0.2698 -0.0863
15923TIP3    H169260   0.367   2.361   4.432  0.0929  0.9964  0.2226
15923TIP3    H269261   0.365   2.260   4.544  1.1194 -1.1787 -1.6361
15924TIP3   OH269262   4.406   1.012  10.937  0.0400  0.1349  0.0134
15924TIP3    H169263   4.332   0.991  10.880  1.4706 -1.5287 -1.3298
15924TIP3    H269264   4.478   0.958  10.905  1.8870  1.7079  1.2290
15925TIP3   OH269265   0.084   1.311   5.843  0.1820  0.5869 -0.0924
15925TIP3    H169266   0.068   1.267   5.927  0.3269  0.5426 -0.0870
15925TIP3    H269267   0.139   1.250   5.794 -1.0311  0.0198 -0.7684
15926TIP3   OH269268   6.631   6.114  13.684 -0.1735  0.0728  0.6370
15926TIP3    H169269   6.551   6.063  13.699 -0.8567  1.3632  1.5455
15926TIP3    H269270   6.696   6.049  13.657 -1.9134 -0.8084 -1.7821
15927TIP3   OH269271   5.239   1.883  10.770  0.6560 -0.1517  0.3598
15927TIP3    H169272   5.297   1.956  10.793  1.2410 -1.0227  1.8167
15927TIP3    H269273   5.298   1.818  10.732  0.3700 -0.3916  0.3307
15928TIP3   OH269274   1.080   1.195   5.427  0.4306 -0.2973 -0.3348
15928TIP3    H169275   1.041   1.239   5.502  1.4454 -1.7598  1.1220
15928TIP3    H269276   1.024   1.119   5.411 -0.8027  0.9390 -2.2653
15929TIP3   OH269277   5.307   1.362   1.593  0.0452  0.2461 -0.6255
15929TIP3    H169278   5.296   1.457   1.595  0.3899  0.2948 -1.1380
15929TIP3    H269279   5.393   1.348   1.556 -0.4496 -0.2967 -1.5960
15930TIP3   OH269280   4.694   3.914  14.900 -0.4275 -0.2333 -0.1112
15930TIP3    H169281   4.674   3.853  14.829  1.0852 -2.6101  1.3702
15930TIP3    H269282   4.750   3.980  14.859  0.4610 -1.5832 -1.1867
15931TIP3   OH269283   1.968   3.414   1.491 -0.1225 -0.4296 -0.4223
15931TIP3    H169284   1.959   3.509   1.493 -0.2315 -0.4457  0.2765
15931TIP3    H269285   1.970   3.391   1.398 -0.0575  0.2569 -0.5914
15932TIP3   OH269286   3.271   4.611  13.719 -0.4644 -0.0848  0.3765
15932TIP3    H169287   3.213   4.684  13.698 -1.3238 -0.3352  1.7834
15932TIP3    H269288   3.290   4.570  13.635 -0.4117  1.4212 -0.3685
15933TIP3   OH269289   6.280   4.748  15.285 -0.7142 -0.6390  1.1586
15933TIP3    H169290   6.279   4.740  15.190  0.0476  0.1932  1.0606
15933TIP3    H269291   6.367   4.717  15.311 -0.9590 -0.9738  1.6010
15934TIP3   OH269292   3.092   1.183   1.502  0.2102  0.0202  0.5647
15934TIP3    H169293   3.093   1.180   1.598  2.4414 -1.6907  0.5568
15934TIP3    H269294   3.001   1.164   1.479  0.1671 -2.4854  2.3630
15935TIP3   OH269295   1.354   2.621  15.931  0.1995  0.3688 -0.3071
15935TIP3    H169296   1.373   2.572  15.850 -1.1209  1.8792 -1.6077
15935TIP3    H269297   1.309   2.700  15.900 -0.3052  1.0069  1.9338
15936TIP3   OH269298   3.879   4.712   0.124  0.7695  0.1089  0.5514
15936TIP3    H169299   3.827   4.792   0.134 -0.3258 -0.2936 -1.4782
15936TIP3    H269300   3.917   4.718   0.037  1.4851 -1.1446  0.7469
15937TIP3   OH269301   0.904   1.747   2.654  0.2703 -0.0774  0.1267
15937TIP3    H169302   0.859   1.830   2.667 -0.1642 -0.5024  1.5535
15937TIP3    H269303   0.962   1.762   2.580 -1.7269  0.6913 -1.3722
15938TIP3   OH269304   1.839   6.349   2.257  0.4672  0.0840  0.1111
15938TIP3    H169305   1.831   6.339   2.162 -0.8004 -0.8436  0.2882
15938TIP3    H269306   1.880   6.267   2.286 -0.0497 -0.0472  0.4673
15939TIP3   OH269307   4.117   3.197  12.689 -0.4690  0.0505 -0.0418
15939TIP3    H169308   4.033   3.153  12.677 -0.1140 -0.8562  0.6530
15939TIP3    H269309   4.167   3.138  12.746  0.6327  0.5803 -0.4315
15940TIP3   OH269310   4.551   6.310   6.029  0.8972 -0.1802  0.2054
15940TIP3    H169311   4.481   6.371   6.050  1.9380  0.9617  0.4512
15940TIP3    H269312   4.522   6.226   6.066  1.0140  0.9222  3.0429
15941TIP3   OH269313   3.165   6.590  11.875  0.8102 -0.3284 -0.4585
15941TIP3    H169314   3.224   6.529  11.830 -0.8847 -1.3296 -1.4197
15941TIP3    H269315   3.105   6.533  11.924  0.8006  0.6673  0.7476
15942TIP3   OH269316   4.565   1.110   1.568  0.0884 -0.0134  0.0356
15942TIP3    H169317   4.554   1.015   1.556  1.6715 -0.1296 -0.6443
15942TIP3    H269318   4.475   1.144   1.564 -0.7104 -1.6351  1.9832
15943TIP3   OH269319   0.357   6.221  11.078 -0.2985 -0.2382  0.6739
15943TIP3    H169320   0.325   6.296  11.027  2.5671  1.0442  0.5463
15943TIP3    H269321   0.392   6.260  11.158  0.1845 -1.6019  1.1466
15944TIP3   OH269322   3.745   1.863   2.943  0.0802 -0.4462  0.6649
15944TIP3    H169323   3.823   1.834   2.896  0.0781 -0.0579  0.4237
15944TIP3    H269324   3.778   1.897   3.026  0.1103 -0.8570  0.8233
15945TIP3   OH269325   1.859   5.196  15.155  0.6420 -0.1742  0.4145
15945TIP3    H169326   1.841   5.289  15.139  0.9245 -0.2572 -0.4361
15945TIP3    H269327   1.816   5.151  15.082 -0.6119 -0.8327  1.4969
15946TIP3   OH269328   1.364   3.373   4.436 -0.5056 -0.4208  0.6076
15946TIP3    H169329   1.432   3.307   4.422  0.0079  0.0669  0.7102
15946TIP3    H269330   1.293   3.348   4.378 -0.3421 -1.0906  0.6920
15947TIP3   OH269331   5.345   4.919   0.703 -0.0852 -0.1570  0.1755
15947TIP3    H169332   5.385   4.902   0.618 -1.5596 -2.8484 -0.1114
15947TIP3    H269333   5.319   5.011   0.700  2.7142  0.6983 -0.9756
15948TIP3   OH269334   2.316   0.419  11.349 -0.2059  0.5289  0.6026
15948TIP3    H169335   2.309   0.376  11.435  0.0115 -2.0653 -0.6033
15948TIP3    H269336   2.271   0.361  11.289 -0.8813  2.5930 -1.0122
15949TIP3   OH269337   4.137   0.300  15.324 -0.3975  0.7946  0.0701
15949TIP3    H169338   4.070   0.351  15.277 -1.4908  1.1139  1.8859
15949TIP3    H269339   4.103   0.211  15.324 -0.0860  0.6715 -0.2560
15950TIP3   OH269340   5.112   6.354   0.491  0.1814 -0.1270 -0.2506
15950TIP3    H169341   5.078   6.426   0.544  1.6323 -0.5664  1.3981
15950TIP3    H269342   5.041   6.331   0.432 -1.1921  1.0158  0.8894
15951TIP3   OH269343   0.660   3.585   1.808  0.0535  0.1868 -0.2705
15951TIP3    H169344   0.616   3.618   1.730 -1.0098 -1.2040 -0.2913
15951TIP3    H269345   0.595   3.592   1.878  0.2255 -0.6687 -0.0124
15952TIP3   OH269346   5.556   0.190  12.662 -0.2340  0.6846 -0.3690
15952TIP3    H169347   5.474   0.153  12.696  1.2477 -0.5652  2.0688
15952TIP3    H269348   5.566   0.273  12.708  0.4145  0.2951  0.2022
15953TIP3   OH269349   0.850   1.615   2.874  0.3598  0.0090 -0.0245
15953TIP3    H169350   0.864   1.663   2.793  1.8914 -1.3187 -0.6062
15953TIP3    H269351   0.839   1.524   2.846  0.5673 -0.4202  1.2231
15954TIP3   OH269352   1.674   0.878  16.751 -0.2164  0.2520 -0.3296
15954TIP3    H169353   1.594   0.841  16.789  0.2219  0.4128  0.8070
15954TIP3    H269354   1.731   0.892  16.827 -0.0301  2.4518 -0.8151
15955TIP3   OH269355   0.033   0.635  12.388  0.3979  0.0147 -0.5082
15955TIP3    H169356   0.061   0.725  12.408  0.3442 -0.0711 -0.0185
15955TIP3    H269357   0.113   0.590  12.363  0.6259 -0.0857  0.3456
15956TIP3   OH269358   3.286   4.423   5.387  0.1113 -0.4799 -0.0654
15956TIP3    H169359   3.234   4.444   5.465  0.4346  0.5680 -0.1142
15956TIP3    H269360   3.360   4.483   5.390 -0.5359  0.4865 -1.8456
15957TIP3   OH269361   6.292   5.842  11.997  0.2657 -0.2778 -0.0572
15957TIP3    H169362   6.375   5.826  12.043  0.5244  2.0576  0.4237
15957TIP3    H269363   6.287   5.772  11.932  1.7534 -1.4857  1.0417
15958TIP3   OH269364   2.522   6.608  16.691  0.9130 -0.2276 -0.7058
15958TIP3    H169365   2.597   6.661  16.717  0.4322  0.3332 -0.4606
15958TIP3    H269366   2.485   6.655  16.616 -0.5335  0.7424  0.5596
15959TIP3   OH269367   3.864   1.230  15.495  0.2631 -0.4595  0.4637
15959TIP3    H169368   3.864   1.326  15.496 -1.6658 -0.4020 -0.4662
15959TIP3    H269369   3.951   1.206  15.463  0.6960  0.9813  0.4938
15960TIP3   OH269370   0.397   5.312  12.756 -0.3478 -0.3861  0.3041
15960TIP3    H169371   0.320   5.328  12.701 -1.1143  0.7405  1.6405
15960TIP3    H269372   0.363   5.316  12.846  1.4680  1.3374  0.9737
15961TIP3   OH269373   6.195   5.464   2.451 -0.0041  0.0952 -0.3258
15961TIP3    H169374   6.227   5.552   2.468 -1.0024  0.8063 -1.9291
15961TIP3    H269375   6.104   5.477   2.424 -0.7857 -1.6011  1.2465
15962TIP3   OH269376   6.531   5.723   5.252 -0.0495 -0.6846 -0.7924
15962TIP3    H169377   6.484   5.695   5.331 -0.7861 -0.2909 -1.0875
15962TIP3    H269378   6.473   5.787   5.211  1.5427  1.2078 -0.2130
15963TIP3   OH269379   2.305   4.469  14.166  0.2827  0.2414  0.1121
15963TIP3    H169380   2.359   4.541  14.199 -1.9029  1.7330  0.6181
15963TIP3    H269381   2.302   4.483  14.071 -0.0010  0.7286  0.1909
15964TIP3   OH269382   1.557   1.958  16.088 -0.2041 -0.2911 -0.1893
15964TIP3    H169383   1.526   1.870  16.067  0.0122 -0.5630  0.6118
15964TIP3    H269384   1.603   1.949  16.171  1.9159  0.1401 -1.2556
15965TIP3   OH269385   3.091   3.252   4.893 -0.0516  0.2115  0.6574
15965TIP3    H169386   3.124   3.317   4.954  2.2060  1.3279 -1.5641
15965TIP3    H269387   3.000   3.277   4.879  0.0738  1.3786  1.7348
15966TIP3   OH269388   4.905   5.856  12.501  0.2232 -0.3872  0.4579
15966TIP3    H169389   4.954   5.784  12.542  1.1548 -0.0847 -0.1004
15966TIP3    H269390   4.861   5.899  12.574  1.6623 -0.0086  1.1324
15967TIP3   OH269391   6.464   4.855   2.334  0.0171 -0.2992 -0.3097
15967TIP3    H169392   6.381   4.866   2.380  0.3032  2.9688 -0.3773
15967TIP3    H269393   6.452   4.899   2.250  2.0971  1.2389  0.1073
15968TIP3   OH269394   0.372   1.779   4.258  0.1940 -0.4569  0.4068
15968TIP3    H169395   0.380   1.816   4.170 -3.4616  0.6067  0.3500
15968TIP3    H269396   0.347   1.854   4.313 -0.7784 -1.6479  1.6551
15969TIP3   OH269397   4.259   6.390   1.093  0.5598  0.0057  0.6285
15969TIP3    H169398   4.218   6.372   1.008  0.4853  1.1756  0.4106
15969TIP3    H269399   4.189   6.427   1.146  1.3864  2.4979  0.0955
15970TIP3   OH269400   5.295   5.485   4.493  0.3320  0.3771  0.0572
15970TIP3    H169401   5.272   5.402   4.534  0.2439  0.3377 -0.0694
15970TIP3    H269402   5.359   5.462   4.425  0.0435  0.3678 -0.2120
15971TIP3   OH269403   0.693   0.408  12.653  0.2027  0.0838  0.4557
15971TIP3    H169404   0.672   0.449  12.569  1.1330 -0.0971  0.1204
15971TIP3    H269405   0.631   0.335  12.660 -1.1461  1.2397  0.8378
15972TIP3   OH269406   1.588   0.257  15.018 -0.1627  0.6924 -0.2894
15972TIP3    H169407   1.644   0.234  15.093 -0.5539 -0.6115 -0.3766
15972TIP3    H269408   1.499   0.244  15.050 -0.3184 -0.6186 -1.1827
15973TIP3   OH269409   6.137   4.759  12.202  0.6225  0.0356  0.1616
15973TIP3    H169410   6.082   4.753  12.280 -0.1648  0.0863 -0.3748
15973TIP3    H269411   6.163   4.851  12.198 -0.4547  0.3271 -0.3717
15974TIP3   OH269412   3.842   6.611   3.520 -0.3642  0.0272  0.0423
15974TIP3    H169413   3.893   6.680   3.563  2.1923 -2.4506  1.2800
15974TIP3    H269414   3.810   6.557   3.592 -1.1439 -0.8690 -0.9453
15975TIP3   OH269415   5.607   5.954   3.997  0.3907 -0.0663 -0.3084
15975TIP3    H169416   5.667   6.019   3.960 -0.5512 -0.5001 -2.7912
15975TIP3    H269417   5.523   6.000   4.002  0.1262 -0.5476 -0.3443
15976TIP3   OH269418   3.730   4.447  12.813 -0.0859  0.9347  0.3700
15976TIP3    H169419   3.738   4.454  12.909 -0.4927  0.4407  0.4486
15976TIP3    H269420   3.817   4.467  12.780  0.3635 -0.0010  0.9150
15977TIP3   OH269421   0.713   1.607  13.484 -0.0367  0.3486 -0.0802
15977TIP3    H169422   0.768   1.587  13.409 -0.4641 -0.1666 -0.2634
15977TIP3    H269423   0.648   1.670  13.451  0.1439  0.5847  0.0128
15978TIP3   OH269424   6.372   2.563  17.226  0.3746 -0.6340 -0.6527
15978TIP3    H169425   6.283   2.552  17.260  0.8265  1.3474  1.3915
15978TIP3    H269426   6.360   2.581  17.132 -1.2257 -2.0519 -0.7693
15979TIP3   OH269427   0.777   0.624   4.214 -0.2651  0.6753 -0.1072
15979TIP3    H169428   0.726   0.689   4.262 -0.0689  0.6502  0.1336
15979TIP3    H269429   0.724   0.544   4.217 -0.2767  0.6884  0.0180
15980TIP3   OH269430   2.597   2.448   5.696 -0.0099  0.2042 -0.0733
15980TIP3    H169431   2.664   2.381   5.703 -1.6938 -1.5438  0.2569
15980TIP3    H269432   2.582   2.476   5.786 -0.7961 -0.5630  0.0473
15981TIP3   OH269433   1.472   0.645   1.303  0.5459  0.1577 -0.1572
15981TIP3    H169434   1.481   0.615   1.213  1.0273 -2.1862  0.6012
15981TIP3    H269435   1.380   0.668   1.312 -0.0448 -1.8211 -0.6546
15982TIP3   OH269436   6.288   2.934   5.048  0.8396 -0.4161  0.1056
15982TIP3    H169437   6.217   2.878   5.078  2.0920 -1.1115  1.9312
15982TIP3    H269438   6.305   2.992   5.122 -1.7122  3.9639 -2.2837
15983TIP3   OH269439   2.881   2.219  15.184  0.0874  0.0899  0.2646
15983TIP3    H169440   2.808   2.199  15.127 -0.9522  0.4230  1.4227
15983TIP3    H269441   2.900   2.312  15.168 -0.0828  0.1349  0.3220
15984TIP3   OH269442   5.869   6.036   3.374  0.0472  0.1904  0.9803
15984TIP3    H169443   5.784   6.046   3.331  1.0697  0.4837 -1.1072
15984TIP3    H269444   5.932   6.035   3.302  1.7076 -1.5939  2.3505
15985TIP3   OH269445   0.715   3.311   6.356 -0.0093  0.9037 -0.1419
15985TIP3    H169446   0.756   3.230   6.327  2.3404  0.7384  3.0485
15985TIP3    H269447   0.736   3.375   6.287 -0.9172 -0.8564 -2.1510
15986TIP3   OH269448   2.176   3.757   5.987  0.2081  0.5588 -0.2253
15986TIP3    H169449   2.153   3.814   5.914 -1.4207 -0.4292 -0.5317
15986TIP3    H269450   2.202   3.674   5.946  1.2959  0.6371  0.2582
15987TIP3   OH269451   5.693   1.686   4.964 -0.5500  0.2019 -0.6173
15987TIP3    H169452   5.731   1.753   5.020 -1.8399 -0.4064  1.0626
15987TIP3    H269453   5.679   1.611   5.022 -2.3805 -0.3011 -1.6311
15988TIP3   OH269454   5.783   0.703   3.783  0.5858 -0.2514  0.5482
15988TIP3    H169455   5.776   0.624   3.730  1.2098 -0.9437  1.4652
15988TIP3    H269456   5.748   0.678   3.868 -0.0211  0.7232  0.6078
15989TIP3   OH269457   1.325   0.805  15.212 -0.1669  0.4860  0.2734
15989TIP3    H169458   1.256   0.829  15.150  1.1521  0.2769 -1.3524
15989TIP3    H269459   1.357   0.888  15.246 -0.0508  0.6870 -0.3157
15990TIP3   OH269460   5.128   4.071   3.963 -0.0238  0.0649  0.7941
15990TIP3    H169461   5.150   3.978   3.972 -1.9589 -0.5503 -0.2785
15990TIP3    H269462   5.201   4.109   3.915 -0.3517 -1.4833 -1.0331
15991TIP3   OH269463   5.130   2.713   6.336 -0.1929  0.4719  0.8004
15991TIP3    H169464   5.177   2.630   6.336 -1.2759 -0.2313 -1.7316
15991TIP3    H269465   5.194   2.777   6.367  1.2570 -1.0047  0.9783
15992TIP3   OH269466   0.321   0.442   1.256 -0.7960  0.2688 -0.0482
15992TIP3    H169467   0.365   0.503   1.316  1.1261 -0.1781 -0.9176
15992TIP3    H269468   0.334   0.356   1.295 -2.4708  0.2696  0.5680
15993TIP3   OH269469   3.178   4.630   4.710 -0.1474  0.1794  0.4158
15993TIP3    H169470   3.192   4.537   4.693  0.4609 -0.0662  2.1094
15993TIP3    H269471   3.137   4.633   4.796 -2.3844  1.3888 -0.5982
15994TIP3   OH269472   3.585   2.688   5.762  0.2138 -0.5775  0.4909
15994TIP3    H169473   3.550   2.747   5.828  2.2977 -0.2429  1.3942
15994TIP3    H269474   3.622   2.746   5.695 -1.5748 -0.9156 -0.8608
15995TIP3   OH269475   2.335   6.388   2.328  0.0645  0.3124  0.1853
15995TIP3    H169476   2.350   6.420   2.239  1.8051  1.6738  0.9034
15995TIP3    H269477   2.270   6.448   2.365 -1.4819 -0.8966 -0.4503
15996TIP3   OH269478   6.041   4.047   5.441 -0.0661  0.2753 -0.0425
15996TIP3    H169479   6.016   4.043   5.349  2.3654  0.9919 -0.7954
15996TIP3    H269480   6.136   4.056   5.440  0.2329 -1.5096  2.5970
15997TIP3   OH269481   6.591   0.481   5.042  0.2339  0.1304 -0.3902
15997TIP3    H169482   6.558   0.439   4.963 -1.1452 -0.5158  0.4774
15997TIP3    H269483   6.588   0.575   5.024  1.3118 -0.0514 -1.5957
15998TIP3   OH269484   6.674   5.090  14.644 -0.0318  0.6184 -1.0484
15998TIP3    H169485   6.753   5.060  14.689 -1.2207  0.9575  1.4572
15998TIP3    H269486   6.623   5.011  14.629 -0.3231  0.6606 -0.3209
15999TIP3   OH269487   2.171   2.879  12.893  0.0170 -0.0011 -0.2013
15999TIP3    H169488   2.078   2.893  12.913 -0.2195 -0.0969 -1.1880
15999TIP3    H269489   2.172   2.853  12.801  0.8637 -1.7863  0.2659
16000TIP3   OH269490   0.038   3.205   3.179  0.8742 -0.5643  0.0946
16000TIP3    H169491   0.132   3.223   3.176  1.1361 -1.5425  1.4935
16000TIP3    H269492   0.032   3.111   3.199 -0.3559 -0.2394  1.4591
16001TIP3   OH269493   2.225   0.289  14.042 -0.1296  0.1853 -0.1623
16001TIP3    H169494   2.285   0.215  14.032  0.2854  0.4352  0.3861
16001TIP3    H269495   2.145   0.262  13.997  0.6975  0.1949 -1.6803
16002TIP3   OH269496   2.772   5.592   4.173  0.2945 -0.0527 -0.3568
16002TIP3    H169497   2.728   5.531   4.232  2.7936 -0.3897  1.3008
16002TIP3    H269498   2.722   5.674   4.181 -0.8871 -0.8077  0.2736
16003TIP3   OH269499   2.610   2.924  14.284  0.6702  1.0378  0.2264
16003TIP3    H169500   2.614   2.938  14.379 -1.7936 -0.4643  0.6499
16003TIP3    H269501   2.566   2.840  14.274  1.5728  0.7823 -2.2809
16004TIP3   OH269502   0.938   6.271   5.924 -0.1328 -0.1312 -0.4405
16004TIP3    H169503   0.889   6.287   6.005  0.7537  0.2350  0.0457
16004TIP3    H269504   0.994   6.196   5.946  1.0909  0.8102 -0.2488
16005TIP3   OH269505   1.318   0.114   3.428  0.4253 -0.4514 -0.3851
16005TIP3    H169506   1.239   0.109   3.483  0.5712 -0.2030 -0.1500
16005TIP3    H269507   1.371   0.039   3.454  0.3444 -0.5213 -0.4217
16006TIP3   OH269508   5.040   5.581   1.512  0.3594 -0.2521  0.1552
16006TIP3    H169509   4.983   5.505   1.528  2.1412 -1.0262  3.9486
16006TIP3    H269510   5.117   5.543   1.469  0.1009 -0.0906 -0.4531
16007TIP3   OH269511   3.484   1.336   4.181 -0.7363  0.4774 -0.5322
16007TIP3    H169512   3.402   1.346   4.230 -0.5630 -0.7356  0.0409
16007TIP3    H269513   3.457   1.327   4.090 -1.2413  0.1407 -0.3534
16008TIP3   OH269514   5.680   3.281  12.158 -0.1202  0.0615  0.0527
16008TIP3    H169515   5.679   3.241  12.071 -1.6789 -1.2411  0.6246
16008TIP3    H269516   5.766   3.258  12.194  1.4081  2.3412 -1.8258
16009TIP3   OH269517   3.415   2.139   4.863  0.0928  0.0132 -0.4187
16009TIP3    H169518   3.437   2.183   4.945 -0.4945  1.4315 -0.9987
16009TIP3    H269519   3.357   2.067   4.889  0.2110  0.2238  0.4472
16010TIP3   OH269520   3.033   5.528   2.928  0.1864  0.0184 -0.2121
16010TIP3    H169521   2.979   5.607   2.919  0.5520  0.2695 -0.2394
16010TIP3    H269522   3.059   5.527   3.020 -0.8203 -0.7365  0.0700
16011TIP3   OH269523   4.431   5.283   0.769 -0.3058 -0.4767  0.5630
16011TIP3    H169524   4.518   5.316   0.789  1.3252 -2.8491 -2.0321
16011TIP3    H269525   4.435   5.190   0.790 -2.6863 -0.4315  1.5593
16012TIP3   OH269526   5.604   4.342  15.907  0.6901 -0.3708  0.1088
16012TIP3    H169527   5.655   4.416  15.940  2.5635 -1.7838  0.5705
16012TIP3    H269528   5.586   4.364  15.816 -0.6885  1.5910  0.7970
16013TIP3   OH269529   5.392   1.788   5.376  0.1068 -0.5018 -0.0998
16013TIP3    H169530   5.310   1.785   5.425 -0.8025  1.0533 -1.4411
16013TIP3    H269531   5.369   1.760   5.288  1.1202 -0.5028 -0.3809
16014TIP3   OH269532   2.417   4.488  11.179 -0.5334 -0.0479 -0.0585
16014TIP3    H169533   2.448   4.421  11.241 -0.1120 -0.7871 -1.0327
16014TIP3    H269534   2.375   4.554  11.234 -0.3103 -0.7546  0.9998
16015TIP3   OH269535   4.965   5.170  16.812 -0.7083 -0.0176  0.1277
16015TIP3    H169536   5.035   5.209  16.864 -0.1969 -0.3405 -0.3089
16015TIP3    H269537   4.973   5.213  16.726  1.0004 -2.2535 -0.9540
16016TIP3   OH269538   0.847   1.659  10.877 -0.2410  0.0359  1.1084
16016TIP3    H169539   0.755   1.653  10.903 -0.1740  0.4001  1.4383
16016TIP3    H269540   0.845   1.700  10.791 -0.5775 -2.6895 -0.3007
16017TIP3   OH269541   1.657   1.222  13.649 -0.1743  0.3737 -0.1145
16017TIP3    H169542   1.722   1.292  13.655  1.2875 -0.5685 -2.9829
16017TIP3    H269543   1.706   1.141  13.663 -0.2267 -0.4723 -3.7686
16018TIP3   OH269544   0.695   2.447  13.117 -0.3814 -0.2206 -0.1489
16018TIP3    H169545   0.697   2.361  13.075 -2.9356 -0.3508 -0.1746
16018TIP3    H269546   0.787   2.471  13.126  0.3735 -2.2335 -1.5877
16019TIP3   OH269547   5.385   5.908   0.580 -0.3562  0.2794  0.2003
16019TIP3    H169548   5.324   5.927   0.651  0.6888  3.4096  0.4238
16019TIP3    H269549   5.329   5.884   0.506 -1.5716 -0.9792  1.4812
16020TIP3   OH269550   4.960   5.303  16.576 -0.0107  0.1744  0.0948
16020TIP3    H169551   5.022   5.264  16.513 -1.4760 -1.3182 -0.4976
16020TIP3    H269552   4.973   5.397  16.566  1.8211 -0.0729 -0.3431
16021TIP3   OH269553   6.615   6.455  11.675  0.0554 -0.5612  0.4162
16021TIP3    H169554   6.670   6.384  11.641  1.0367  0.0932  0.5987
16021TIP3    H269555   6.675   6.528  11.689 -0.7413 -0.0403  1.2715
16022TIP3   OH269556   5.280   3.818   0.417  0.1714 -0.1229 -0.1463
16022TIP3    H169557   5.300   3.885   0.352 -0.2758 -0.9379 -1.1524
16022TIP3    H269558   5.356   3.817   0.475  0.5816  0.6238 -0.6602
16023TIP3   OH269559   1.047   6.593   2.124 -0.6543 -0.5347  0.4116
16023TIP3    H169560   0.955   6.614   2.109 -0.6581  1.6686  2.8006
16023TIP3    H269561   1.091   6.616   2.042 -1.8539  1.3930  0.2495
16024TIP3   OH269562   1.749   2.041   6.041  0.2616 -0.0199 -0.1834
16024TIP3    H169563   1.818   2.014   5.980 -0.4010 -0.7664 -0.6047
16024TIP3    H269564   1.684   2.084   5.986  1.4773  2.9751  0.4997
16025TIP3   OH269565   2.207   2.155   3.980 -0.4361 -0.1962 -0.2238
16025TIP3    H169566   2.129   2.173   3.927 -0.2012 -1.0851 -0.8954
16025TIP3    H269567   2.246   2.242   3.994 -1.1123  0.1694 -0.5549
16026TIP3   OH269568   6.152   4.583   5.114 -0.2012  0.4107  0.2262
16026TIP3    H169569   6.080   4.583   5.178  0.9463 -0.0842  1.5629
16026TIP3    H269570   6.145   4.498   5.071 -0.3604  0.3148  0.4369
16027TIP3   OH269571   4.101   6.162  15.930  0.3498 -0.1065 -0.5459
16027TIP3    H169572   4.101   6.093  15.863 -0.1861  0.8689 -1.5734
16027TIP3    H269573   4.190   6.195  15.932  0.3264 -0.0177 -0.9133
16028TIP3   OH269574   2.087   2.626   2.719 -0.2435 -0.5986  0.5559
16028TIP3    H169575   2.068   2.713   2.753  0.3278 -0.7251  1.2376
16028TIP3    H269576   2.152   2.639   2.651 -1.9084 -0.2692 -1.0517
16029TIP3   OH269577   6.284   3.987  13.224 -0.3351  0.5827 -0.2337
16029TIP3    H169578   6.373   3.972  13.191 -0.4720  0.6401 -0.6467
16029TIP3    H269579   6.293   3.994  13.319 -0.0431 -0.4391 -0.1847
16030TIP3   OH269580   1.813   1.356   1.341  0.3582  0.4520 -0.4313
16030TIP3    H169581   1.726   1.316   1.343  1.0398 -1.1184  2.5554
16030TIP3    H269582   1.807   1.429   1.403  1.1443  0.3782 -0.2632
16031TIP3   OH269583   2.764   1.198  15.646  0.0122  0.3919 -0.2618
16031TIP3    H169584   2.845   1.159  15.614  1.0836  1.4998  1.0033
16031TIP3    H269585   2.699   1.129  15.635  1.3003 -0.8223 -0.5377
16032TIP3   OH269586   5.733   5.812  13.225  0.4253  0.2362 -0.1130
16032TIP3    H169587   5.696   5.893  13.261  0.7285  0.0115  0.7471
16032TIP3    H269588   5.828   5.829  13.223  0.4083  0.2461 -0.8212
16033TIP3   OH269589   0.377   4.809  16.959  0.1499  0.5353 -0.5816
16033TIP3    H169590   0.458   4.761  16.947  1.0272  2.2279 -1.8948
16033TIP3    H269591   0.390   4.858  17.040  0.5098  0.8956 -0.8513
16034TIP3   OH269592   3.210   3.439  12.422  0.0874 -0.4170 -0.0964
16034TIP3    H169593   3.274   3.427  12.493 -1.5798 -3.3283  1.0956
16034TIP3    H269594   3.252   3.400  12.346  1.0569  0.8247 -0.2262
16035TIP3   OH269595   2.229   2.469   2.218 -0.2373 -0.3281 -0.1358
16035TIP3    H169596   2.212   2.547   2.165 -0.5383 -0.3431 -0.0620
16035TIP3    H269597   2.143   2.438   2.245 -0.0892 -0.2901  0.4076
16036TIP3   OH269598   4.908   4.547  13.756 -0.7362 -0.3134 -0.4538
16036TIP3    H169599   4.990   4.559  13.803 -1.1309  0.4097  0.0752
16036TIP3    H269600   4.919   4.600  13.676 -0.7157 -0.1489 -0.3436
16037TIP3   OH269601   5.276   0.275   2.745 -0.4216  0.1593  0.1162
16037TIP3    H169602   5.259   0.191   2.702  1.2664  0.8032 -1.9343
16037TIP3    H269603   5.302   0.334   2.675  0.5007  1.8492  1.7807
16038TIP3   OH269604   4.084   0.743  17.163 -0.3284  0.1845 -0.1679
16038TIP3    H169605   4.024   0.818  17.172  0.0937  0.4261  0.7397
16038TIP3    H269606   4.101   0.715  17.253  0.5598 -0.1732 -0.4374
16039TIP3   OH269607   6.019   4.300  14.612 -0.4850 -0.1860 -0.2897
16039TIP3    H169608   6.024   4.330  14.703 -1.2360  0.2275 -0.3806
16039TIP3    H269609   6.088   4.350  14.568 -1.1388  0.7812 -0.2544
16040TIP3   OH269610   3.425   6.628  11.698 -0.2631 -0.1208 -0.4769
16040TIP3    H169611   3.496   6.686  11.669  0.0355 -0.6233 -0.7640
16040TIP3    H269612   3.469   6.556  11.742 -0.7332  1.0161  2.0083
16041TIP3   OH269613   4.355   2.870  13.492 -0.2909  0.3760  0.0035
16041TIP3    H169614   4.367   2.858  13.397  0.5563  2.3859 -0.2037
16041TIP3    H269615   4.434   2.831  13.530 -0.5665 -0.3153 -0.1250
16042TIP3   OH269616   6.011   1.737   4.456  0.3931 -0.2018 -0.0600
16042TIP3    H169617   6.071   1.748   4.383 -0.3675  1.1217 -0.5274
16042TIP3    H269618   5.926   1.720   4.415 -0.1339  1.0093  0.4611
16043TIP3   OH269619   1.454   2.540   2.044 -0.4352 -0.2132 -0.1912
16043TIP3    H169620   1.381   2.482   2.026 -1.5384  1.1927 -0.4444
16043TIP3    H269621   1.499   2.550   1.960 -2.1910  1.8232 -0.9724
16044TIP3   OH269622   1.625   6.091   4.503  0.3470  0.4470 -0.0709
16044TIP3    H169623   1.588   6.179   4.494 -2.0937 -0.4359  0.5640
16044TIP3    H269624   1.571   6.036   4.447  0.6680 -0.9463  0.9320
16045TIP3   OH269625   2.661   0.573   0.717 -0.1479 -0.7375 -0.2014
16045TIP3    H169626   2.588   0.522   0.752  0.1814 -0.4012  1.0198
16045TIP3    H269627   2.654   0.562   0.622 -3.0360  0.9394 -0.3328
16046TIP3   OH269628   5.095   6.567   4.140 -0.2592 -0.8101 -0.4408
16046TIP3    H169629   5.107   6.472   4.134 -1.6153 -0.9673 -1.2432
16046TIP3    H269630   5.000   6.579   4.136 -0.1897  0.5046  1.0953
16047TIP3   OH269631   1.702   3.219  11.954  0.1805 -0.0464 -0.2589
16047TIP3    H169632   1.664   3.183  11.874 -0.4183 -0.5322  0.2320
16047TIP3    H269633   1.634   3.205  12.021  0.2786  1.2194  0.1280
16048TIP3   OH269634   2.598   3.404  12.357 -1.2272  0.2978  0.1039
16048TIP3    H169635   2.515   3.430  12.395 -1.0769  0.2832  0.4458
16048TIP3    H269636   2.664   3.448  12.410 -1.0176  0.3424 -0.1908
16049TIP3   OH269637   0.476   4.998  14.628  0.6654  0.6586  0.1111
16049TIP3    H169638   0.533   4.922  14.619  1.1137  0.8251  1.3557
16049TIP3    H269639   0.417   4.976  14.700  0.2083  1.1443 -0.0998
16050TIP3   OH269640   6.505   1.798   2.191 -0.3016 -0.0806 -0.2108
16050TIP3    H169641   6.524   1.737   2.120 -3.7359 -0.9002 -0.5624
16050TIP3    H269642   6.452   1.867   2.151 -1.1427  0.1838  1.2745
16051TIP3   OH269643   3.116   1.144   3.627 -0.0696 -0.0092 -0.1001
16051TIP3    H169644   3.127   1.110   3.538 -2.1377 -5.5028  1.3044
16051TIP3    H269645   3.062   1.222   3.616 -1.7862 -1.4613 -3.6699
16052TIP3   OH269646   2.348   2.457  13.991  0.9360 -0.2660  0.1770
16052TIP3    H169647   2.410   2.396  13.950  0.2188 -0.0997 -1.2091
16052TIP3    H269648   2.266   2.408  13.996 -0.0216  0.9375 -2.1782
16053TIP3   OH269649   1.868   3.870   4.802  0.4478  0.1437 -0.2072
16053TIP3    H169650   1.807   3.915   4.744  0.0839  0.1898  0.2150
16053TIP3    H269651   1.953   3.881   4.759  0.2022  0.2965 -0.6627
16054TIP3   OH269652   1.331   1.430   4.908 -0.3067 -0.6500  0.1485
16054TIP3    H169653   1.388   1.449   4.833 -1.0782  0.7155 -0.1456
16054TIP3    H269654   1.242   1.442   4.873 -0.6976 -0.7422  1.0961
16055TIP3   OH269655   2.080   1.237  12.315 -0.3234 -0.3310  0.1788
16055TIP3    H169656   2.047   1.222  12.404 -1.7600  0.8435 -0.1014
16055TIP3    H269657   2.022   1.186  12.259  0.4027 -0.8407 -0.1253
16056TIP3   OH269658   4.488   0.746   6.686  0.5350  0.2370  0.5426
16056TIP3    H169659   4.512   0.667   6.637 -0.9571 -0.2969  0.6116
16056TIP3    H269660   4.516   0.727   6.776 -1.8334 -1.2496  1.0567
16057TIP3   OH269661   0.352   6.325   5.617 -0.3656 -0.5584  0.7037
16057TIP3    H169662   0.344   6.345   5.710 -0.3545 -0.2168  0.6292
16057TIP3    H269663   0.325   6.404   5.572 -2.7892 -1.4848  0.3810
16058TIP3   OH269664   5.617   4.010   2.892 -0.3194 -0.1358 -0.0252
16058TIP3    H169665   5.606   4.103   2.872 -1.6369 -0.5101 -1.1685
16058TIP3    H269666   5.529   3.973   2.881  0.3217 -1.6396 -0.2653
16059TIP3   OH269667   2.008   2.535  13.556  0.0171 -0.5371 -0.6528
16059TIP3    H169668   2.073   2.478  13.516 -0.4349 -0.5242 -1.4215
16059TIP3    H269669   1.925   2.507  13.519 -0.1921  0.7211 -1.1834
16060TIP3   OH269670   6.269   1.978   3.922 -0.2570 -0.1938 -0.4913
16060TIP3    H169671   6.318   1.909   3.878  1.2871 -1.1389  2.3884
16060TIP3    H269672   6.335   2.021   3.977 -1.9872  0.9154  0.7955
16061TIP3   OH269673   0.386   2.564  13.104 -0.1549  0.8368  0.3261
16061TIP3    H169674   0.417   2.637  13.158  0.2836  0.9144 -0.0191
16061TIP3    H269675   0.437   2.489  13.134  0.4610  0.9839 -0.3085
16062TIP3   OH269676   6.176   3.615  12.852  0.3874 -0.1785  0.2627
16062TIP3    H169677   6.265   3.583  12.864  0.2212 -0.4222  0.8993
16062TIP3    H269678   6.159   3.668  12.929 -0.0181 -0.1201  0.1357
16063TIP3   OH269679   4.802   4.456   0.708 -0.3345 -0.0845 -0.5849
16063TIP3    H169680   4.809   4.365   0.678  1.8148 -0.0967 -0.1408
16063TIP3    H269681   4.815   4.508   0.628  1.3156 -0.1577 -0.3810
16064TIP3   OH269682   6.280   0.882   6.476 -0.1327  0.2134 -0.4200
16064TIP3    H169683   6.264   0.800   6.429 -0.6681  0.2896 -0.3793
16064TIP3    H269684   6.197   0.929   6.470  0.0632  0.5970 -0.1354
16065TIP3   OH269685   4.839   0.465   6.120  0.1126 -0.3346  0.3359
16065TIP3    H169686   4.854   0.405   6.193 -0.2836  0.0246  0.7188
16065TIP3    H269687   4.827   0.408   6.044 -1.7134 -0.8192  0.9424
16066TIP3   OH269688   6.013   3.496   3.050  0.2701 -0.5735 -0.2773
16066TIP3    H169689   6.094   3.514   3.002 -0.3055  0.3060 -0.9417
16066TIP3    H269690   5.977   3.583   3.069 -0.6246 -0.9581 -0.1657
16067TIP3   OH269691   1.053   3.405  16.322  0.0667  0.2159  0.2092
16067TIP3    H169692   1.061   3.495  16.290  1.1165 -0.2952 -1.0820
16067TIP3    H269693   1.139   3.366  16.306 -0.6280 -1.2742 -0.0809
16068TIP3   OH269694   6.492   6.738   5.330 -0.2121 -0.4047  0.0437
16068TIP3    H169695   6.513   6.712   5.241  1.0846  1.5101 -0.2755
16068TIP3    H269696   6.398   6.725   5.338 -0.3259 -0.7104 -1.5683
16069TIP3   OH269697   4.022   1.145  16.925 -1.2790 -0.3270 -0.1144
16069TIP3    H169698   4.034   1.130  17.019 -0.5966 -0.9702 -0.2894
16069TIP3    H269699   4.067   1.228  16.908  0.1061 -1.0443 -0.1506
16070TIP3   OH269700   1.821   5.936  11.235 -0.0116  0.3450  0.8113
16070TIP3    H169701   1.840   5.899  11.148  2.8935  1.3389  0.9137
16070TIP3    H269702   1.763   5.871  11.276  2.5544 -2.7709 -0.0483
16071TIP3   OH269703   5.899   4.797   2.172 -0.2873 -0.2934  0.2684
16071TIP3    H169704   5.835   4.729   2.151 -1.0031  0.7595 -1.1329
16071TIP3    H269705   5.886   4.864   2.105  2.9497 -0.4309 -0.6737
16072TIP3   OH269706   4.799   2.749  14.033 -0.6936  0.4776 -0.0652
16072TIP3    H169707   4.711   2.731  14.066 -0.2584  1.2273  1.6250
16072TIP3    H269708   4.829   2.824  14.085 -0.2452  2.3519 -2.8314
16073TIP3   OH269709   1.887   3.821  15.148  0.3416  0.0724 -0.0434
16073TIP3    H169710   1.879   3.847  15.056 -0.6383  0.6464  0.1900
16073TIP3    H269711   1.980   3.802  15.159  0.1942 -1.9149 -1.6386
16074TIP3   OH269712   1.769   6.093  17.129  0.4066 -0.2496 -0.3521
16074TIP3    H169713   1.731   6.005  17.133  0.9854 -0.4743  0.4438
16074TIP3    H269714   1.697   6.152  17.151 -0.0649 -0.4940 -1.2009
16075TIP3   OH269715   0.221   3.474   5.878  0.2849  0.1063 -0.2520
16075TIP3    H169716   0.267   3.529   5.942 -0.4798 -0.6317  0.9608
16075TIP3    H269717   0.256   3.386   5.891  0.0723 -0.0657 -0.8025
16076TIP3   OH269718   0.815   0.057  16.078  0.2092  0.4891  0.6247
16076TIP3    H169719   0.773   0.142  16.089  0.2027  0.4571  0.8488
16076TIP3    H269720   0.883   0.055  16.146  0.2367  0.3335  0.5926
16077TIP3   OH269721   5.036   5.716  15.614 -0.7136 -0.5313  0.0746
16077TIP3    H169722   5.125   5.688  15.637 -0.6949  0.1596  0.9155
16077TIP3    H269723   5.042   5.747  15.524 -0.0174 -0.1346  0.2566
16078TIP3   OH269724   5.593   2.604  12.246  0.2458  0.0668 -0.2825
16078TIP3    H169725   5.600   2.509  12.250 -0.7017  0.0115  0.4735
16078TIP3    H269726   5.576   2.623  12.154  0.2493 -0.5075 -0.4051
16079TIP3   OH269727   2.267   1.183  14.557  0.1546 -0.2678  0.4196
16079TIP3    H169728   2.327   1.167  14.630 -1.0476  1.3240  1.8399
16079TIP3    H269729   2.284   1.111  14.496  1.3476 -1.5562  2.1637
16080TIP3   OH269730   6.183   5.847   5.477  0.3414  0.0418  0.1354
16080TIP3    H169731   6.182   5.934   5.437 -0.4159  0.0037  0.0738
16080TIP3    H269732   6.172   5.786   5.404  0.8598 -0.1161  0.1800
16081TIP3   OH269733   5.187   3.448   3.726 -0.3420 -0.2654 -0.3769
16081TIP3    H169734   5.166   3.454   3.819 -1.3178  1.1500 -0.6445
16081TIP3    H269735   5.239   3.527   3.709 -0.1496 -0.5277 -1.0229
16082TIP3   OH269736   2.205   3.315  11.364 -1.0182 -0.5257  0.0320
16082TIP3    H169737   2.151   3.312  11.443 -0.5072 -0.0149  0.3980
16082TIP3    H269738   2.145   3.289  11.294 -1.8782  0.4902  0.3676
16083TIP3   OH269739   0.976   0.797   4.661 -0.5065 -0.2909 -0.7130
16083TIP3    H169740   1.069   0.803   4.683 -0.9463  1.0853  0.9116
16083TIP3    H269741   0.974   0.806   4.565  1.0097 -0.1271 -0.7536
16084TIP3   OH269742   2.914   3.623   5.391 -1.2904 -0.6028 -0.5138
16084TIP3    H169743   2.928   3.673   5.311 -1.1861  0.2472  0.0290
16084TIP3    H269744   2.834   3.573   5.374 -0.0166 -2.2526 -2.0260
16085TIP3   OH269745   2.883   2.110  13.540  0.3891  0.0532  0.0988
16085TIP3    H169746   2.844   2.152  13.617  0.7921  2.2305 -0.8029
16085TIP3    H269747   2.952   2.054  13.575  1.3916  1.9346  1.2922
16086TIP3   OH269748   1.313   3.953   3.944  0.2948  0.2495  0.0100
16086TIP3    H169749   1.364   3.920   3.870  0.9808 -3.2036  1.8026
16086TIP3    H269750   1.223   3.926   3.926  0.1173  1.1224 -0.4342
16087TIP3   OH269751   0.063   5.695  12.701  0.2446 -0.4702  0.5873
16087TIP3    H169752   0.004   5.639  12.751 -1.2029  0.2721 -0.2303
16087TIP3    H269753   0.023   5.700  12.614  0.5718  1.4746  0.5202
16088TIP3   OH269754   0.439   1.112  14.485  0.3604  0.0235  0.0427
16088TIP3    H169755   0.497   1.037  14.498  0.2153 -0.3944 -1.5632
16088TIP3    H269756   0.351   1.074  14.485  0.3065  0.1215 -1.1671
16089TIP3   OH269757   3.483   0.958   5.704  0.1959 -0.4584  0.2318
16089TIP3    H169758   3.425   0.933   5.776  0.5835  0.8498  1.0109
16089TIP3    H269759   3.570   0.933   5.733  0.3251 -0.1485  0.1128
16090TIP3   OH269760   6.715   5.307   5.258  0.3400 -0.9570 -0.2359
16090TIP3    H169761   6.762   5.253   5.322  1.0306  0.3093  0.3487
16090TIP3    H269762   6.783   5.343   5.202  0.0366  0.4549  0.2707
16091TIP3   OH269763   3.730   1.196   5.412  0.1435 -0.3321  0.3382
16091TIP3    H169764   3.676   1.122   5.442 -0.1616  0.1320  0.9511
16091TIP3    H269765   3.669   1.254   5.368  0.3988 -0.4723 -0.2105
16092TIP3   OH269766   1.552   4.455  13.076  0.5792 -0.1385  0.0137
16092TIP3    H169767   1.556   4.380  13.017 -0.1094 -0.5039  0.4287
16092TIP3    H269768   1.463   4.455  13.109  0.7497  0.5095  0.4825
16093TIP3   OH269769   6.290   0.632   1.416 -0.6556  0.2160 -0.4531
16093TIP3    H169770   6.267   0.718   1.450 -0.6272 -0.4968  1.5164
16093TIP3    H269771   6.210   0.580   1.427 -0.1096 -0.5103  0.2755
16094TIP3   OH269772   6.335   4.843  14.414  0.0191 -0.1387  0.3174
16094TIP3    H169773   6.324   4.914  14.351 -0.9047  0.8933  1.5922
16094TIP3    H269774   6.336   4.763  14.361  0.2511  0.7686 -1.0690
16095TIP3   OH269775   2.026   3.918   4.016  0.8777 -0.3409  0.6251
16095TIP3    H169776   2.046   3.826   4.033  0.4805 -0.7731 -1.0614
16095TIP3    H269777   2.108   3.954   3.981  1.1054  0.0266  1.5117
16096TIP3   OH269778   3.024   0.312  14.891 -0.4058  0.4837  0.0748
16096TIP3    H169779   2.929   0.314  14.899 -0.6177 -0.4621 -1.6040
16096TIP3    H269780   3.040   0.315  14.796  1.2476  0.7996  0.3242
16097TIP3   OH269781   6.600   5.617   0.558 -0.0909 -0.5049  0.0785
16097TIP3    H169782   6.525   5.659   0.601  1.0440  0.5950  1.0879
16097TIP3    H269783   6.569   5.595   0.471 -1.7268 -0.5167  0.6295
16098TIP3   OH269784   0.537   2.325   5.833  0.1267 -0.4154 -0.2818
16098TIP3    H169785   0.631   2.322   5.819  0.3821  0.9927  0.9259
16098TIP3    H269786   0.519   2.250   5.889  0.6723 -0.1990  0.1880
16099TIP3   OH269787   3.343   3.452   4.574  0.2064  0.2928 -1.2206
16099TIP3    H169788   3.275   3.390   4.549  0.3736 -0.2155 -0.4409
16099TIP3    H269789   3.378   3.418   4.657  0.5264  1.2444 -0.9512
16100TIP3   OH269790   6.537   4.743   1.568  0.3437 -0.5248  0.1543
16100TIP3    H169791   6.512   4.819   1.620  2.1798  1.4638 -1.6028
16100TIP3    H269792   6.463   4.728   1.509  0.2767  0.4874 -0.0384
16101TIP3   OH269793   5.767   6.284   3.174  0.2673 -0.0614  0.0773
16101TIP3    H169794   5.825   6.297   3.099  1.5585 -1.6055  0.7535
16101TIP3    H269795   5.822   6.300   3.250  0.1478 -2.4285  0.7610
16102TIP3   OH269796   2.206   3.784   3.378 -0.4476 -0.7104 -0.2369
16102TIP3    H169797   2.216   3.851   3.446  0.0832  0.0823 -1.0730
16102TIP3    H269798   2.112   3.769   3.372 -0.5620 -0.1364  0.0590
16103TIP3   OH269799   5.574   0.043   4.930 -0.3779 -0.6443  0.0036
16103TIP3    H169800   5.507   0.065   4.995  0.6861  0.4831  0.7668
16103TIP3    H269801   5.643   0.109   4.942  0.6070 -1.3958 -1.1601
16104TIP3   OH269802   6.599   5.977  16.577  0.1903  0.3501 -0.0231
16104TIP3    H169803   6.509   5.995  16.549  0.4345 -0.2215 -1.2673
16104TIP3    H269804   6.648   5.969  16.495  1.4196  0.8113  0.6289
16105TIP3   OH269805   5.251   5.547  12.546  0.1497  0.2283  0.0803
16105TIP3    H169806   5.321   5.596  12.589  0.4620  0.4859 -0.7030
16105TIP3    H269807   5.281   5.536  12.456 -0.3017 -0.6724  0.0241
16106TIP3   OH269808   1.154   1.607   5.887  0.6933 -0.3231 -0.7620
16106TIP3    H169809   1.226   1.581   5.829 -0.2206 -0.8363 -1.6855
16106TIP3    H269810   1.093   1.533   5.884 -0.3589  0.5267 -0.7840
16107TIP3   OH269811   4.260   0.877   4.496 -0.0188  0.4230 -0.8280
16107TIP3    H169812   4.274   0.782   4.491 -2.8070 -0.2673  1.2618
16107TIP3    H269813   4.164   0.886   4.495  0.1297  3.0481  0.8389
16108TIP3   OH269814   2.585   0.170  12.191  0.6841 -0.2570  0.1514
16108TIP3    H169815   2.499   0.130  12.202  0.9182 -0.6018  0.7942
16108TIP3    H269816   2.587   0.241  12.255  0.4195  0.5544 -0.7171
16109TIP3   OH269817   3.396   5.991  13.241  0.6875  0.1825  0.2151
16109TIP3    H169818   3.340   6.062  13.211  0.8463  0.6981  1.0829
16109TIP3    H269819   3.482   6.010  13.204  0.7249  0.4446  0.4306
16110TIP3   OH269820   6.753   3.197   5.120 -0.4427 -0.3796  0.7003
16110TIP3    H169821   6.701   3.270   5.152 -1.6667 -1.1110  0.4748
16110TIP3    H269822   6.826   3.237   5.073 -1.2788  0.6863  0.2850
16111TIP3   OH269823   6.818   1.371   1.084  0.1174 -0.3545 -0.1923
16111TIP3    H169824   6.738   1.405   1.045 -0.0588 -0.1979  0.2910
16111TIP3    H269825   6.815   1.277   1.068  0.2019 -0.2558 -0.8175
16112TIP3   OH269826   4.019   5.720   4.131  0.6498 -0.2857  0.3527
16112TIP3    H169827   4.051   5.672   4.208  1.4573 -0.0737  0.1579
16112TIP3    H269828   3.939   5.764   4.161 -0.4152 -2.1417  0.4035
16113TIP3   OH269829   1.226   1.150  15.531  0.6628  0.3024 -0.4365
16113TIP3    H169830   1.318   1.131  15.512  0.3070 -1.6495 -0.4496
16113TIP3    H269831   1.227   1.237  15.570  2.3956  0.7619 -1.3809
16114TIP3   OH269832   4.922   4.196  14.105 -0.1157  0.3389 -0.0099
16114TIP3    H169833   4.846   4.250  14.083  0.2174  0.6149 -0.5211
16114TIP3    H269834   4.907   4.114  14.058  0.1049  0.5509 -0.4528
16115TIP3   OH269835   2.571   6.821  11.211 -0.1990 -0.0262  0.0958
16115TIP3    H169836   2.484   6.801  11.177 -0.0700  0.6700 -0.6606
16115TIP3    H269837   2.631   6.770  11.156 -0.0471  0.4682 -0.2040
16116TIP3   OH269838   5.886   4.529  16.903  0.2692  0.3320 -0.1589
16116TIP3    H169839   5.899   4.586  16.827  2.2371 -1.4357 -1.2675
16116TIP3    H269840   5.791   4.521  16.911 -0.0169  1.8963 -1.3620
16117TIP3   OH269841   5.048   0.246   4.451 -0.3324  0.0838 -0.4688
16117TIP3    H169842   5.143   0.242   4.461 -0.2860 -2.7237 -0.9985
16117TIP3    H269843   5.015   0.219   4.537 -0.5497 -0.8465 -0.8262
16118TIP3   OH269844   4.437   3.440  13.016 -0.1170  0.0194  0.2411
16118TIP3    H169845   4.440   3.401  13.103 -1.8875 -0.4988  0.1118
16118TIP3    H269846   4.398   3.373  12.961 -2.6534  1.6699 -0.1214
16119TIP3   OH269847   5.655   3.881  16.688  0.0671  0.5938  0.5875
16119TIP3    H169848   5.693   3.888  16.775  0.8875  0.5792  0.2434
16119TIP3    H269849   5.567   3.846  16.702  0.4068  0.0239  1.3626
16120TIP3   OH269850   0.095   2.932   2.067  0.2053  0.3629  0.3472
16120TIP3    H169851   0.148   2.875   2.011 -2.2624 -2.1181  0.3565
16120TIP3    H269852   0.014   2.946   2.017 -0.9574  0.3357  2.1496
16121TIP3   OH269853   1.149   4.173   4.080 -0.2890  0.0418  0.0194
16121TIP3    H169854   1.139   4.125   4.162 -0.6520 -1.7152 -1.0094
16121TIP3    H269855   1.225   4.133   4.037 -0.3402  0.6650 -0.6941
16122TIP3   OH269856   5.778   5.690  12.827  0.0068 -0.0781 -0.0200
16122TIP3    H169857   5.783   5.786  12.825 -0.1359 -0.0741 -1.2288
16122TIP3    H269858   5.716   5.671  12.898  1.9513  0.5932  1.9525
16123TIP3   OH269859   6.541   0.099   2.995  0.1128  0.8410 -0.2757
16123TIP3    H169860   6.605   0.169   2.993 -0.0027  0.9397 -1.7066
16123TIP3    H269861   6.462   0.137   2.957  0.3569 -0.3219 -2.0650
16124TIP3   OH269862   1.830   1.150   3.563 -0.2212  0.3441  0.4875
16124TIP3    H169863   1.838   1.169   3.469 -1.2200 -1.6163 -0.0416
16124TIP3    H269864   1.738   1.166   3.583 -0.7712 -2.1402  0.3437
16125TIP3   OH269865   4.190   2.046  12.298 -0.2106  0.5842 -0.2126
16125TIP3    H169866   4.265   1.986  12.299 -0.1268  0.6974  0.9882
16125TIP3    H269867   4.147   2.033  12.382  1.5552  4.3555  1.5112
16126TIP3   OH269868   1.003   6.646  14.054 -0.1215 -0.5382  0.0072
16126TIP3    H169869   0.929   6.615  14.001 -0.3837 -0.6607  0.4363
16126TIP3    H269870   1.057   6.568  14.067  0.2747 -0.3718 -0.6061
16127TIP3   OH269871   2.474   1.295   3.348  0.1033 -0.4954  0.0266
16127TIP3    H169872   2.425   1.363   3.396  0.5755 -0.0273 -0.1508
16127TIP3    H269873   2.460   1.215   3.399 -1.2711 -0.4884 -0.2909
16128TIP3   OH269874   5.897   3.362   4.681  0.4854  0.1638 -0.2692
16128TIP3    H169875   5.880   3.328   4.769 -2.4745 -0.2075 -0.8884
16128TIP3    H269876   5.970   3.309   4.649 -0.5758 -2.0419  0.7399
16129TIP3   OH269877   0.352   3.675  14.378 -0.2233  1.0537  0.0378
16129TIP3    H169878   0.264   3.638  14.367  0.4138 -0.9962  1.2938
16129TIP3    H269879   0.344   3.734  14.453 -0.4597  0.5937  0.3816
16130TIP3   OH269880   6.417   1.267   2.020  0.0341  0.8258 -0.0934
16130TIP3    H169881   6.480   1.268   2.091 -0.2095  0.9104  0.1248
16130TIP3    H269882   6.468   1.244   1.942  0.3413  0.9561  0.0693
16131TIP3   OH269883   1.701   4.459  15.456  0.3648  0.9725  0.2338
16131TIP3    H169884   1.613   4.492  15.436  0.1824  0.1254 -0.3789
16131TIP3    H269885   1.692   4.417  15.542  0.5493  2.2895  0.9199
16132TIP3   OH269886   5.094   0.560  14.100 -0.1979 -0.4676 -0.1686
16132TIP3    H169887   5.138   0.558  14.186 -0.0901  0.2672 -0.2031
16132TIP3    H269888   5.131   0.485  14.053 -0.1513 -0.7940  0.3753
16133TIP3   OH269889   3.204   0.419  16.052 -0.5044 -0.0590  0.0395
16133TIP3    H169890   3.180   0.351  16.115 -1.1391  1.2369  1.2490
16133TIP3    H269891   3.300   0.423  16.057 -0.3899 -1.3851 -0.6414
16134TIP3   OH269892   6.590   1.251   6.892 -0.7589 -0.7409 -0.3558
16134TIP3    H169893   6.517   1.234   6.952 -0.4562  0.2530  0.3251
16134TIP3    H269894   6.550   1.250   6.806 -1.4912 -0.6896 -0.0269
16135TIP3   OH269895   0.678   2.471  12.296 -0.3200  0.9936 -0.5739
16135TIP3    H169896   0.605   2.446  12.239 -0.4514  1.1714 -0.4861
16135TIP3    H269897   0.641   2.537  12.354 -0.2377  0.6657 -0.1500
16136TIP3   OH269898   1.948   2.648   3.842 -0.5360  0.1509 -0.1316
16136TIP3    H169899   1.913   2.592   3.772  0.2247  0.4040 -0.7287
16136TIP3    H269900   1.955   2.735   3.802  0.1062  0.2514  0.1930
16137TIP3   OH269901   1.347   1.031  12.435 -0.4101  0.4415  0.3930
16137TIP3    H169902   1.365   1.030  12.341 -1.2734  2.5370  0.1323
16137TIP3    H269903   1.424   1.071  12.474  0.1622 -0.8857  0.6697
16138TIP3   OH269904   6.046   4.750  14.404  0.0346  0.4090  0.8505
16138TIP3    H169905   6.136   4.773  14.378  0.0597  0.9464  1.4055
16138TIP3    H269906   5.991   4.786  14.334  0.0339  2.5762  1.9105
16139TIP3   OH269907   6.300   4.641  17.170  0.2717  0.3068  0.6617
16139TIP3    H169908   6.235   4.696  17.126 -2.0718 -1.9147  1.1332
16139TIP3    H269909   6.297   4.558  17.124  1.5192 -0.4196  1.8111
16140TIP3   OH269910   1.097   4.199   1.221  0.6516 -0.1041 -0.3220
16140TIP3    H169911   1.135   4.273   1.174  1.5721 -0.7906 -0.6839
16140TIP3    H269912   1.012   4.184   1.179  2.5477 -2.4909 -3.7998
16141TIP3   OH269913   6.096   3.257  13.018 -0.3564 -0.2480  0.0888
16141TIP3    H169914   6.102   3.196  12.945  0.6108 -0.0509 -0.0124
16141TIP3    H269915   6.060   3.205  13.090 -0.9472 -0.5393 -0.4150
16142TIP3   OH269916   4.372   3.508   0.565 -0.2645  0.2917 -0.2574
16142TIP3    H169917   4.328   3.519   0.481 -1.6455  2.2072  0.6582
16142TIP3    H269918   4.460   3.542   0.551 -0.6551  1.0962 -0.7924
16143TIP3   OH269919   4.284   6.602   3.148 -0.4954  0.2677 -0.0706
16143TIP3    H169920   4.268   6.522   3.097 -1.1620  0.5678 -0.3324
16143TIP3    H269921   4.210   6.658   3.130 -0.1481  0.8618  0.3069
16144TIP3   OH269922   4.231   6.155   0.721 -0.3207  0.0041  0.1661
16144TIP3    H169923   4.216   6.221   0.790  0.4684  0.1735  0.1857
16144TIP3    H269924   4.209   6.200   0.640 -1.2586 -0.1961  0.3054
16145TIP3   OH269925   4.546   1.433   0.551 -0.5400 -0.3624 -0.5211
16145TIP3    H169926   4.639   1.409   0.554 -0.6308 -0.7506 -0.6674
16145TIP3    H269927   4.545   1.519   0.510 -0.0347  0.8774  1.8984
16146TIP3   OH269928   5.218   2.963  14.623  0.1016  0.1470  0.4101
16146TIP3    H169929   5.292   3.018  14.595  2.2089 -2.8566 -0.4924
16146TIP3    H269930   5.172   2.942  14.541  0.6700 -1.1520  0.3997
16147TIP3   OH269931   4.166   3.655  11.172  0.2852  0.0356  0.8291
16147TIP3    H169932   4.113   3.732  11.155  1.4716  0.4587 -1.2898
16147TIP3    H269933   4.243   3.688  11.218  1.3845  0.4030 -1.1499
16148TIP3   OH269934   4.168   0.760  11.582 -0.0382  0.4943  0.0674
16148TIP3    H169935   4.262   0.777  11.587 -0.0763  1.5138 -1.7787
16148TIP3    H269936   4.161   0.678  11.533 -0.1187  1.0217 -0.8222
16149TIP3   OH269937   5.827   0.731  14.223  0.2115 -0.0320 -0.2968
16149TIP3    H169938   5.786   0.663  14.169 -1.8659  0.4738  0.5585
16149TIP3    H269939   5.820   0.810  14.169 -0.4285  0.1535  0.0472
16150TIP3   OH269940   5.788   5.678  17.125  0.5029  0.7393  0.0060
16150TIP3    H169941   5.848   5.604  17.131 -0.6195 -0.0763  2.2971
16150TIP3    H269942   5.839   5.754  17.152  0.8119  0.2377  0.8602
16151TIP3   OH269943   2.656   0.440  10.877 -0.1940 -0.2824  0.1921
16151TIP3    H169944   2.635   0.519  10.827 -2.0831 -0.9232 -0.1202
16151TIP3    H269945   2.629   0.461  10.966 -0.9978 -0.6561  0.0478
16152TIP3   OH269946   2.022   3.282  13.354 -0.0805  0.2422  0.2575
16152TIP3    H169947   1.999   3.290  13.446 -1.5803 -0.6242  0.0016
16152TIP3    H269948   2.031   3.372  13.323  1.0142  0.5310  1.3647
16153TIP3   OH269949   0.368   0.294  14.571  0.4642  0.3212  0.0181
16153TIP3    H169950   0.302   0.326  14.509  0.6190 -0.1817 -0.4166
16153TIP3    H269951   0.405   0.216  14.529  0.5969 -0.0135  0.7316
16154TIP3   OH269952   0.763   2.908  12.631  0.1897  0.1115  0.2885
16154TIP3    H169953   0.845   2.858  12.627 -0.2106 -0.4858 -1.5673
16154TIP3    H269954   0.790   2.999  12.626  0.7417 -0.0958 -0.7006
16155TIP3   OH269955   5.542   3.699   0.299  0.1969  0.1974  0.4489
16155TIP3    H169956   5.455   3.727   0.269  0.4372  1.1443  0.5923
16155TIP3    H269957   5.530   3.684   0.393  0.3858  1.2428  0.6572
16156TIP3   OH269958   2.579   6.500   2.283  0.6466  0.3169 -0.7290
16156TIP3    H169959   2.530   6.427   2.321  1.3766  0.1546 -0.0697
16156TIP3    H269960   2.670   6.470   2.281  1.1271  1.5719  0.5146
16157TIP3   OH269961   1.074   3.965   1.091  0.5736  0.1495 -0.0748
16157TIP3    H169962   0.988   3.928   1.112  0.4122  0.9466  0.7017
16157TIP3    H269963   1.099   4.014   1.170  2.3405 -1.1519  0.2401
16158TIP3   OH269964   4.370   1.564   4.581 -0.3243  0.3607  0.0891
16158TIP3    H169965   4.342   1.645   4.538 -1.0801  0.3274  0.4884
16158TIP3    H269966   4.294   1.538   4.634 -0.5100 -1.2012 -0.8969
16159TIP3   OH269967   5.182   4.990  12.777 -0.2546 -0.0703  0.4424
16159TIP3    H169968   5.256   4.984  12.716 -1.4798  0.5621 -1.1733
16159TIP3    H269969   5.222   4.977  12.863  1.6338 -0.4217 -0.4138
16160TIP3   OH269970   2.548   0.187   1.531 -0.8348  0.7189  0.1811
16160TIP3    H169971   2.465   0.142   1.517 -0.7800  0.9125 -0.8344
16160TIP3    H269972   2.597   0.129   1.589 -0.2235 -1.2760 -2.1467
16161TIP3   OH269973   6.800   5.396   1.444 -0.1329 -0.1543 -0.2881
16161TIP3    H169974   6.729   5.418   1.384 -0.9460 -1.4374  0.1653
16161TIP3    H269975   6.774   5.434   1.528  0.5955  0.8991 -0.5126
16162TIP3   OH269976   2.688   6.472   0.257 -0.9637  0.7199 -0.3011
16162TIP3    H169977   2.674   6.380   0.278 -0.2042  0.8642  0.9164
16162TIP3    H269978   2.624   6.491   0.188 -1.9462 -0.3951  0.2723
16163TIP3   OH269979   3.550   5.963  14.109  0.5454 -1.2600  0.4203
16163TIP3    H169980   3.503   6.032  14.063 -0.8009 -0.0524  3.3895
16163TIP3    H269981   3.639   5.967  14.074  0.1889  1.1715 -0.3477
16164TIP3   OH269982   5.645   5.042   3.572  1.4146 -0.2327 -0.1977
16164TIP3    H169983   5.587   5.043   3.496 -0.6657 -0.0783  1.3116
16164TIP3    H269984   5.644   4.951   3.602 -0.2647  0.2542  1.3890
16165TIP3   OH269985   4.664   0.958  16.204 -0.2022  0.1208 -0.1955
16165TIP3    H169986   4.705   1.044  16.214  0.3053 -0.2643  1.3081
16165TIP3    H269987   4.572   0.972  16.227  0.2059 -0.0252  1.6141
16166TIP3   OH269988   6.822   4.310  10.766  1.0985 -0.2616 -0.1849
16166TIP3    H169989   6.878   4.328  10.690  1.7109 -0.5063  0.1964
16166TIP3    H269990   6.735   4.296  10.730  0.9806  1.5527 -0.6665
16167TIP3   OH269991   3.932   0.163  13.076 -0.3368  0.3206 -0.5555
16167TIP3    H169992   3.884   0.173  13.159 -0.0709  0.5144 -0.4241
16167TIP3    H269993   3.897   0.083  13.038  0.5126 -0.5472  0.4167
16168TIP3   OH269994   4.917   0.326   3.448 -0.1509 -0.0702 -0.1305
16168TIP3    H169995   4.954   0.294   3.530 -0.5930 -0.7214 -0.1766
16168TIP3    H269996   4.982   0.300   3.381  0.5189  1.0206  0.0701
16169TIP3   OH269997   6.509   5.308  14.599  0.4975 -0.1928  0.1561
16169TIP3    H169998   6.424   5.266  14.609 -0.0311  1.3522  3.5616
16169TIP3    H269999   6.573   5.236  14.606 -0.4463 -1.2186 -1.2869
16170TIP3   OH270000   2.843   6.078  11.036  0.8603 -0.4030  0.3876
16170TIP3    H170001   2.877   6.147  11.093 -0.9767  0.1172  0.9184
16170TIP3    H270002   2.753   6.103  11.018  0.8308 -1.5113 -1.2918
16171TIP3   OH270003   2.556   0.620  16.956  0.3148  0.3350 -0.1965
16171TIP3    H170004   2.535   0.529  16.931  0.1827 -0.0541  1.2681
16171TIP3    H270005   2.645   0.615  16.990  0.1085  0.6489  0.4008
16172TIP3   OH270006   6.583   6.708  14.590 -0.4561  0.0615  0.3637
16172TIP3    H170007   6.539   6.787  14.560  0.0107  0.0032 -0.4826
16172TIP3    H270008   6.518   6.664  14.646 -1.3028  0.2178 -0.4716
16173TIP3   OH270009   1.961   6.675   5.787 -0.6588  0.2146  0.3702
16173TIP3    H170010   1.968   6.580   5.785  1.9682  0.2104  3.1299
16173TIP3    H270011   1.868   6.692   5.770 -1.0540 -2.7350 -1.0252
16174TIP3   OH270012   0.126   3.344   0.562 -0.6199  0.4351  0.6212
16174TIP3    H170013   0.149   3.385   0.479 -0.8913  1.4429  1.0257
16174TIP3    H270014   0.031   3.356   0.570 -0.3482  2.0411  1.9278
16175TIP3   OH270015   0.019   6.786   0.528 -0.5500 -0.4551 -0.6662
16175TIP3    H170016  -0.006   6.788   0.435 -1.4013  0.0291 -0.4394
16175TIP3    H270017   0.047   6.876   0.546 -0.9297 -0.4120 -0.3071
16176TIP3   OH270018   3.482   5.424  12.559  0.0142  0.1148  0.2179
16176TIP3    H170019   3.487   5.345  12.504 -1.4342  0.3900 -0.3421
16176TIP3    H270020   3.456   5.494  12.499 -0.3142  0.6880  1.0163
16177TIP3   OH270021   2.769   2.891   3.159 -0.9226 -0.4326  0.3347
16177TIP3    H170022   2.744   2.971   3.205 -0.8170 -1.0534  1.5032
16177TIP3    H270023   2.849   2.862   3.202 -0.4343 -0.6548 -0.7049
16178TIP3   OH270024   6.495   0.555  14.498 -0.5701  0.1173 -0.6169
16178TIP3    H170025   6.470   0.625  14.437  0.0084 -0.4239 -1.4975
16178TIP3    H270026   6.509   0.479  14.442 -1.6599 -0.8503  0.3739
16179TIP3   OH270027   5.560   5.268  14.741  0.3634 -0.5713  0.3741
16179TIP3    H170028   5.636   5.320  14.770  0.3904  0.7223 -1.8473
16179TIP3    H270029   5.485   5.311  14.781  0.4337  0.9501 -1.0444
16180TIP3   OH270030   6.593   3.426   0.853 -0.0765  0.0390  0.1108
16180TIP3    H170031   6.678   3.469   0.862  0.3482 -1.0254  1.4292
16180TIP3    H270032   6.546   3.449   0.933  0.4182 -2.4241  1.2116
16181TIP3   OH270033   1.388   1.438  10.543  0.4960  0.4056  0.0820
16181TIP3    H170034   1.314   1.420  10.601  0.2021  2.4708  0.4195
16181TIP3    H270035   1.364   1.519  10.498  1.8490  0.2253 -1.0119
16182TIP3   OH270036   4.408   0.119   3.398  0.4836  0.1255 -0.0843
16182TIP3    H170037   4.331   0.062   3.407  1.5030 -1.4622 -0.9686
16182TIP3    H270038   4.463   0.075   3.333  2.1577  1.2256  0.5255
16183TIP3   OH270039   3.561   3.454  15.869 -0.3807 -0.2039 -0.1973
16183TIP3    H170040   3.494   3.519  15.849  0.1831  0.7045  0.7561
16183TIP3    H270041   3.533   3.375  15.823 -1.2158  0.6372 -1.1675
16184TIP3   OH270042   3.953   3.757   5.626  0.4760 -0.9044 -0.5838
16184TIP3    H170043   4.012   3.757   5.702 -0.4921 -0.5973  0.1883
16184TIP3    H270044   3.891   3.687   5.644  0.5651 -1.1925 -1.3705
16185TIP3   OH270045   1.541   1.685   0.327  0.3207  0.4373  0.1418
16185TIP3    H170046   1.628   1.681   0.367 -0.5131  0.9640  2.1503
16185TIP3    H270047   1.496   1.754   0.375 -1.5728 -0.5811 -0.0688
16186TIP3   OH270048   0.465   1.898  13.289 -0.0374 -0.1327  0.1169
16186TIP3    H170049   0.547   1.899  13.338  0.3889 -0.6727 -0.5583
16186TIP3    H270050   0.433   1.988  13.293  0.1313 -0.1007  1.1185
16187TIP3   OH270051   6.443   4.530   5.189  0.1264 -0.3080 -0.0287
16187TIP3    H170052   6.482   4.615   5.166 -0.4337 -0.2986 -1.0263
16187TIP3    H270053   6.349   4.544   5.183  0.0314 -1.0826 -0.5590
16188TIP3   OH270054   3.351   0.038  16.846 -0.5002  0.1382 -0.1529
16188TIP3    H170055   3.281  -0.006  16.894 -0.1903 -1.1097 -0.8183
16188TIP3    H270056   3.309   0.113  16.806 -0.9242  0.8026  1.4377
16189TIP3   OH270057   6.375   1.324   4.845  0.2958  0.0471 -0.1750
16189TIP3    H170058   6.462   1.363   4.838  0.2099  0.0101 -1.6352
16189TIP3    H270059   6.384   1.238   4.804  0.7701 -2.0993  3.8753
16190TIP3   OH270060   3.542   4.667   0.014  0.4929  0.0131 -0.1018
16190TIP3    H170061   3.628   4.629  -0.007  0.8333  1.0121 -0.5872
16190TIP3    H270062   3.500   4.681  -0.071 -0.7609 -1.7720  0.1788
16191TIP3   OH270063   4.345   3.076   4.534 -0.3026 -0.3343  0.0450
16191TIP3    H170064   4.392   3.135   4.592 -2.4170  0.2323  1.3068
16191TIP3    H270065   4.352   3.116   4.447  2.8901 -1.1892 -0.2020
16192TIP3   OH270066   0.491   2.819  16.210  0.2848 -0.3222 -0.4051
16192TIP3    H170067   0.435   2.743  16.191  1.4581 -1.2091 -0.4716
16192TIP3    H270068   0.452   2.890  16.159 -1.7628 -0.4395  0.8712
16193TIP3   OH270069   5.270   5.602  13.856  0.2422 -0.1183  0.2836
16193TIP3    H170070   5.206   5.550  13.905 -1.1833  0.9078 -0.4306
16193TIP3    H270071   5.222   5.680  13.828  1.9601  0.9497  0.1708
16194TIP3   OH270072   4.456   5.793  16.731 -0.2307 -0.2284  0.5085
16194TIP3    H170073   4.540   5.767  16.693 -0.7892  1.0968 -1.7988
16194TIP3    H270074   4.479   5.848  16.806  0.9846  0.7870 -0.5768
16195TIP3   OH270075   1.877   5.619  11.590  0.0360  0.2651  0.4099
16195TIP3    H170076   1.859   5.541  11.643 -1.4770  0.5926  0.4151
16195TIP3    H270077   1.819   5.611  11.515  2.3299 -0.3125 -1.4140
16196TIP3   OH270078   1.322   1.854   1.436 -0.1407  0.7297  0.5812
16196TIP3    H170079   1.300   1.921   1.371  0.9169  0.5369  0.0032
16196TIP3    H270080   1.239   1.809   1.452 -0.3772  0.5918 -0.8718
16197TIP3   OH270081   3.786   5.509   5.853 -0.0250  0.1098 -0.3901
16197TIP3    H170082   3.732   5.435   5.883  0.4009 -0.1521 -0.2574
16197TIP3    H270083   3.794   5.565   5.930 -1.7614  1.1843 -0.9207
16198TIP3   OH270084   3.804   4.793  14.535  0.5160  0.3359  0.0321
16198TIP3    H170085   3.875   4.851  14.509 -0.8932  1.5046 -1.4044
16198TIP3    H270086   3.780   4.822  14.623  1.7245 -0.0108  0.4904
16199TIP3   OH270087   3.484   3.452  11.787 -0.0689 -0.3228 -0.0659
16199TIP3    H170088   3.429   3.463  11.865  1.0153  0.5999  0.6095
16199TIP3    H270089   3.465   3.530  11.734 -0.4496 -0.7110 -0.5066
16200TIP3   OH270090   4.091   1.392  15.725  0.2176 -0.2489  0.0886
16200TIP3    H170091   4.010   1.432  15.692  0.5628 -0.4642 -1.0545
16200TIP3    H270092   4.152   1.465  15.735  0.2828 -0.2566 -0.2665
16201TIP3   OH270093   4.296   2.517  14.600  0.0837  0.0213 -0.2719
16201TIP3    H170094   4.208   2.554  14.599 -1.0379 -2.4524 -0.3298
16201TIP3    H270095   4.318   2.507  14.692 -0.2838 -0.6226 -0.2507
16202TIP3   OH270096   4.833   4.068  14.731  0.1413  0.2090  0.2261
16202TIP3    H170097   4.846   4.032  14.643 -0.9223  0.0187  0.1355
16202TIP3    H270098   4.822   4.162  14.716 -2.1697 -0.0680 -0.1038
16203TIP3   OH270099   4.371   2.915  10.126  0.1654  0.8262  0.3793
16203TIP3    H170100   4.371   2.841  10.064 -2.3721  0.8902  0.1934
16203TIP3    H270101   4.356   2.874  10.211  0.7950  0.9774  0.5653
16204TIP3   OH270102   1.011   5.124   3.660  0.2378 -0.3241 -0.0353
16204TIP3    H170103   1.052   5.037   3.664  1.6288  0.2877 -0.2980
16204TIP3    H270104   0.951   5.119   3.586  0.9436 -0.8106 -0.5850
16205TIP3   OH270105   6.483   2.551  11.417 -0.6332  0.0147 -1.0452
16205TIP3    H170106   6.528   2.470  11.393  0.1716 -0.1910  0.9861
16205TIP3    H270107   6.507   2.566  11.509 -2.4818  1.4058 -0.7236
16206TIP3   OH270108   5.736   3.036  14.166  0.0159 -0.4225 -0.1477
16206TIP3    H170109   5.714   3.104  14.102 -0.4427 -0.3432  0.0868
16206TIP3    H270110   5.660   3.033  14.225 -0.1472 -1.4080 -0.3810
16207TIP3   OH270111   5.909   6.172   2.185 -0.0862 -0.1340 -0.0286
16207TIP3    H170112   5.886   6.201   2.273 -1.0301 -0.1869 -0.2459
16207TIP3    H270113   6.000   6.142   2.193  0.0342  0.4026  0.7886
16208TIP3   OH270114   6.683   4.266   1.206 -0.0848  0.7013 -0.7679
16208TIP3    H170115   6.752   4.267   1.139 -0.1770 -0.1896 -0.8760
16208TIP3    H270116   6.627   4.341   1.184  0.9037  1.5178 -0.6088
16209TIP3   OH270117   0.402   4.266  11.043 -0.2112 -0.1112  0.4601
16209TIP3    H170118   0.385   4.209  10.968  2.6419 -3.0375  1.7861
16209TIP3    H270119   0.351   4.227  11.114  1.9806 -1.3343  1.4495
16210TIP3   OH270120   0.308   5.173   5.180 -0.0789  0.1949  0.2855
16210TIP3    H170121   0.381   5.170   5.118  1.6462  1.8513  2.0797
16210TIP3    H270122   0.278   5.082   5.187  1.9649 -0.5738 -0.3198
16211TIP3   OH270123   4.728   5.394   0.792 -0.2538  0.0517  0.3523
16211TIP3    H170124   4.718   5.413   0.699 -1.8332  0.4831  0.5904
16211TIP3    H270125   4.709   5.477   0.836  0.2457 -0.2035  1.0784
16212TIP3   OH270126   3.287   3.850  10.445  0.2785  0.1657 -0.0699
16212TIP3    H170127   3.357   3.786  10.454 -0.2327 -0.4925 -0.6572
16212TIP3    H270128   3.254   3.838  10.356 -1.8077 -0.8468  0.7570
16213TIP3   OH270129   5.264   3.390   0.963  0.2231 -0.1874 -0.4327
16213TIP3    H170130   5.180   3.346   0.948 -0.6633  0.9981  0.7761
16213TIP3    H270131   5.240   3.473   1.006  2.0746 -0.3038  0.9377
16214TIP3   OH270132   2.996   6.564  11.023 -0.1723  0.0719  0.0397
16214TIP3    H170133   2.966   6.643  10.977  1.1431  1.0501  0.7859
16214TIP3    H270134   3.081   6.589  11.060  0.7110 -1.9924 -0.4542
16215TIP3   OH270135   5.801   0.911  10.762  0.4000 -0.3687  0.0144
16215TIP3    H170136   5.739   0.961  10.815  0.2298  1.4468 -1.7753
16215TIP3    H270137   5.756   0.898  10.678  1.6686 -0.7892 -0.6235
16216TIP3   OH270138   2.589   4.041   4.206  0.0772  0.3074 -0.5553
16216TIP3    H170139   2.504   4.004   4.184 -1.2454  2.4735  0.5216
16216TIP3    H270140   2.633   3.973   4.256 -1.1550 -0.7378 -0.8463
16217TIP3   OH270141   1.575   4.029  13.543  0.6428  0.2307 -0.0254
16217TIP3    H170142   1.509   3.968  13.510  1.3803 -0.7976  0.3186
16217TIP3    H270143   1.534   4.070  13.619  0.1975  0.0167 -0.1464
16218TIP3   OH270144   2.171   4.515  11.480 -0.0701 -0.0811  0.1049
16218TIP3    H170145   2.133   4.497  11.394 -0.7530 -0.9409  0.5629
16218TIP3    H270146   2.226   4.592  11.467 -0.8232  0.3033 -0.9146
16219TIP3   OH270147   6.697   0.654  13.182 -0.2411  0.3177  0.4602
16219TIP3    H170148   6.613   0.624  13.147 -0.1275  0.6468 -0.1058
16219TIP3    H270149   6.686   0.649  13.277 -1.4919  1.9053  0.4376
16220TIP3   OH270150   0.373   4.186   5.920 -0.3109 -0.8026 -0.2161
16220TIP3    H170151   0.289   4.231   5.908  0.1270 -0.0880 -0.7396
16220TIP3    H270152   0.373   4.118   5.853 -0.8037 -1.3296  0.3081
16221TIP3   OH270153   4.383   0.589   1.228  0.2022  0.2260 -0.0286
16221TIP3    H170154   4.413   0.599   1.318  0.2035  1.2029 -0.1221
16221TIP3    H270155   4.459   0.555   1.181  0.7765  1.4367 -0.0071
16222TIP3   OH270156   1.813   1.406  15.873  0.0117 -0.0521  0.0302
16222TIP3    H170157   1.904   1.423  15.849  0.6035 -1.0947  1.4270
16222TIP3    H270158   1.803   1.445  15.959 -0.2703 -1.6492  0.7500
16223TIP3   OH270159   2.672   5.999   1.246 -0.1426 -0.6105  0.9966
16223TIP3    H170160   2.726   5.921   1.260  1.3733  0.5967  2.2313
16223TIP3    H270161   2.734   6.071   1.245 -1.5588  0.6480  0.3366
16224TIP3   OH270162   1.893   0.566  10.485 -0.7802  0.0524 -0.4509
16224TIP3    H170163   1.873   0.478  10.454  3.2490 -1.1364 -0.2283
16224TIP3    H270164   1.905   0.555  10.580  0.2190  0.7041 -0.4938
16225TIP3   OH270165   1.345   1.547   0.186 -0.2702 -0.2921  0.2481
16225TIP3    H170166   1.363   1.472   0.244 -2.3726 -0.7677  0.3589
16225TIP3    H270167   1.412   1.611   0.209 -1.4707 -0.1196  3.8944
16226TIP3   OH270168   2.162   4.467  16.363  0.5415  0.1653 -0.2139
16226TIP3    H170169   2.186   4.550  16.405 -1.9659  0.8948 -0.0573
16226TIP3    H270170   2.116   4.418  16.431 -1.3022  0.2727 -1.3190
16227TIP3   OH270171   2.505   1.706  12.271  0.2334 -0.2739 -0.8069
16227TIP3    H170172   2.475   1.726  12.182  1.4852  0.0353 -1.1744
16227TIP3    H270173   2.428   1.667  12.314 -0.6391  0.3537 -1.7530
16228TIP3   OH270174   6.793   2.051  14.008  0.1213 -0.6294  0.2243
16228TIP3    H170175   6.781   1.958  14.026 -1.7745 -0.4320  0.1294
16228TIP3    H270176   6.854   2.053  13.934 -1.1649 -1.8767 -0.9160
16229TIP3   OH270177   0.954   4.312  16.178 -0.0780  0.2767  0.8304
16229TIP3    H170178   0.977   4.392  16.130  1.2055 -1.4365 -1.6334
16229TIP3    H270179   0.950   4.339  16.270  0.2155  3.1578  0.0891
16230TIP3   OH270180   2.268   3.143  13.626 -0.0559  0.1145  0.1616
16230TIP3    H170181   2.301   3.230  13.651  4.3460 -1.7466  1.8968
16230TIP3    H270182   2.306   3.128  13.539  1.8266 -1.1267  1.1409
16231TIP3   OH270183   0.582   4.366   0.194  0.0840 -0.0200  0.0078
16231TIP3    H170184   0.501   4.409   0.166 -0.0478  0.4058  0.9945
16231TIP3    H270185   0.555   4.308   0.265  0.6962  0.3799  0.5697
16232TIP3   OH270186   3.638   3.153  14.552  0.1136 -0.3988  0.3263
16232TIP3    H170187   3.732   3.138  14.552  0.1829  0.0292  0.5167
16232TIP3    H270188   3.600   3.066  14.537  0.5514 -0.4788 -0.3867
16233TIP3   OH270189   1.160   3.661   6.647 -0.0945  0.3504  0.1516
16233TIP3    H170190   1.245   3.664   6.602 -1.3739 -0.5527 -2.5350
16233TIP3    H270191   1.112   3.736   6.612 -0.7843  0.2344  0.8371
16234TIP3   OH270192   3.641   2.879  13.218  0.8183  0.1791 -0.5228
16234TIP3    H170193   3.587   2.819  13.269 -1.2381  2.5968  0.3479
16234TIP3    H270194   3.730   2.862  13.249 -0.0103 -0.5904  1.6540
16235TIP3   OH270195   5.291   1.288   5.500  0.2189 -0.0787 -0.2167
16235TIP3    H170196   5.240   1.287   5.581 -0.5437 -0.9554 -0.6844
16235TIP3    H270197   5.348   1.211   5.507  1.6337  0.9836  0.3748
16236TIP3   OH270198   5.402   4.902   4.125 -0.3961 -0.0901  0.4301
16236TIP3    H170199   5.449   4.819   4.127  1.4541  0.7366 -2.4633
16236TIP3    H270200   5.442   4.954   4.195  2.3066  0.1463 -1.1602
16237TIP3   OH270201   5.080   2.846   4.594 -0.0895  0.1630 -0.7550
16237TIP3    H170202   5.130   2.925   4.617  0.0505  0.0371 -0.6294
16237TIP3    H270203   5.065   2.801   4.677  0.2013 -0.1631 -0.8770
16238TIP3   OH270204   4.490   0.965  16.557  0.3808  0.5284  0.1736
16238TIP3    H170205   4.554   0.897  16.534  0.5796  1.5719 -2.9041
16238TIP3    H270206   4.405   0.923  16.542  0.2403 -0.4650  3.0716
16239TIP3   OH270207   3.290   6.354  11.770  0.2036  0.0001  0.4310
16239TIP3    H170208   3.225   6.321  11.708 -0.0596 -0.6565  1.0426
16239TIP3    H270209   3.370   6.304  11.750  0.7977  1.4373 -0.9161
16240TIP3   OH270210   0.869   1.245   2.040  0.2117 -0.1146 -0.0392
16240TIP3    H170211   0.794   1.304   2.039  0.7794  0.6553  1.2145
16240TIP3    H270212   0.940   1.296   1.999 -0.1378 -1.1732 -2.1164
16241TIP3   OH270213   5.827   5.910  16.377  0.3533 -0.2024  0.8201
16241TIP3    H170214   5.870   5.857  16.309 -1.3924  0.6083 -1.0404
16241TIP3    H270215   5.886   5.985  16.389  0.6549 -0.3124  0.1113
16242TIP3   OH270216   1.545   4.132   1.794 -0.1344 -0.1864 -0.9560
16242TIP3    H170217   1.536   4.169   1.882 -0.2433 -0.7485 -0.7281
16242TIP3    H270218   1.634   4.098   1.791 -0.1931 -0.3346 -1.0025
16243TIP3   OH270219   6.608   4.315   5.232 -0.1287  0.0011 -0.9767
16243TIP3    H170220   6.559   4.397   5.233  0.8072  0.5634 -0.6212
16243TIP3    H270221   6.674   4.327   5.163  1.5055  0.4644  0.5798
16244TIP3   OH270222   1.377   4.715   3.584  0.6430  0.0231  0.1519
16244TIP3    H170223   1.293   4.696   3.543  1.8252 -1.4173 -1.8041
16244TIP3    H270224   1.355   4.759   3.666 -1.9630  0.2400 -0.5890
16245TIP3   OH270225   0.478   4.687  11.406 -0.3048  0.0274  0.1134
16245TIP3    H170226   0.550   4.749  11.421  1.9575 -2.3441 -0.1490
16245TIP3    H270227   0.467   4.642  11.490 -0.6015 -0.4992 -0.2031
16246TIP3   OH270228   1.146   0.093  15.207  0.2257  0.2263 -0.4114
16246TIP3    H170229   1.101   0.128  15.284  1.4865 -1.5281  1.2224
16246TIP3    H270230   1.233   0.130  15.210  0.5825 -0.5832 -0.4274
16247TIP3   OH270231   4.176   2.938  16.862  0.0319 -0.7029  0.0807
16247TIP3    H170232   4.176   3.008  16.926  2.4429  0.0166 -0.6033
16247TIP3    H270233   4.143   2.862  16.909 -1.8047  0.6474  1.0746
16248TIP3   OH270234   4.813   1.648  14.671 -0.0481  0.0864 -0.1234
16248TIP3    H170235   4.826   1.585  14.601  3.4016  1.9900 -1.4851
16248TIP3    H270236   4.863   1.613  14.745  2.4537  1.3125 -1.0976
16249TIP3   OH270237   1.301   1.594   2.217 -0.0118  0.5853 -0.0673
16249TIP3    H170238   1.357   1.621   2.145  0.1355 -0.1545 -0.2423
16249TIP3    H270239   1.281   1.502   2.198 -0.4355  0.5482  0.5363
16250TIP3   OH270240   6.391   1.008  11.226 -0.2148  0.3432 -0.0825
16250TIP3    H170241   6.339   1.032  11.149  0.7184 -0.4841 -0.9930
16250TIP3    H270242   6.481   1.011  11.196  0.1339 -0.5018  0.8483
16251TIP3   OH270243   2.518   4.196  10.580 -0.4626  1.3152  0.2302
16251TIP3    H170244   2.534   4.225  10.491 -3.0651 -0.2923 -0.8800
16251TIP3    H270245   2.424   4.206  10.593 -0.6148 -1.0814  1.7674
16252TIP3   OH270246   2.193   6.614   2.624 -0.1180 -0.7500 -0.3125
16252TIP3    H170247   2.224   6.552   2.690  0.0951 -1.0358 -0.6798
16252TIP3    H270248   2.272   6.660   2.595 -0.1827 -0.7665 -0.5145
16253TIP3   OH270249   1.593   2.535  14.549 -0.4619 -0.5106 -0.0467
16253TIP3    H170250   1.622   2.477  14.479  2.4922  0.7607 -0.0017
16253TIP3    H270251   1.627   2.495  14.630 -0.5485 -0.0050  0.2450
16254TIP3   OH270252   3.481   5.572  15.375 -0.3877  0.0569  0.2155
16254TIP3    H170253   3.570   5.573  15.340 -0.3223  1.2903  0.3783
16254TIP3    H270254   3.442   5.493  15.338  0.5021 -0.0487 -0.5482
16255TIP3   OH270255   4.847   2.625  15.611  0.1058 -0.0574 -0.1313
16255TIP3    H170256   4.861   2.639  15.517 -1.9970 -2.0741 -0.8231
16255TIP3    H270257   4.907   2.554  15.634 -0.0267 -0.1780 -0.1584
16256TIP3   OH270258   3.283   3.223  13.216  0.5616 -0.5629  0.1571
16256TIP3    H170259   3.247   3.282  13.282  1.1582 -0.1070  0.0871
16256TIP3    H270260   3.209   3.168  13.189 -0.1837  0.6157 -0.2775
16257TIP3   OH270261   2.301   2.865   3.429 -0.2497  0.1084  0.3868
16257TIP3    H170262   2.301   2.805   3.503 -1.8951 -2.1950 -1.3291
16257TIP3    H270263   2.287   2.809   3.353 -1.9587  2.6829 -1.3493
16258TIP3   OH270264   0.154   1.526   4.681  0.8129 -0.1249 -0.5955
16258TIP3    H170265   0.188   1.497   4.597 -0.8837  1.5269 -1.9522
16258TIP3    H270266   0.152   1.622   4.673  1.1939  0.1089  1.5934
16259TIP3   OH270267   3.648   5.262   2.808  0.7263  0.6289 -0.3542
16259TIP3    H170268   3.671   5.288   2.897  0.4020  0.1398 -0.1288
16259TIP3    H270269   3.557   5.289   2.798 -1.0712 -3.9223  1.3020
16260TIP3   OH270270   3.384   1.356   1.537 -0.2106  0.7071 -0.3795
16260TIP3    H170271   3.404   1.438   1.583  0.6363  0.6123 -0.5575
16260TIP3    H270272   3.320   1.380   1.470 -0.3682  1.1191 -0.0849
16261TIP3   OH270273   3.894   0.378  11.780 -0.1987 -0.2377 -0.2857
16261TIP3    H170274   3.986   0.401  11.794 -0.1061 -0.4777 -0.4981
16261TIP3    H270275   3.890   0.348  11.689 -0.6070  0.3731 -0.4796
16262TIP3   OH270276   2.379   1.338   3.683 -0.1326  0.3986 -0.0531
16262TIP3    H170277   2.419   1.257   3.651  2.2900  1.6860 -0.5387
16262TIP3    H270278   2.344   1.316   3.769  1.2381 -0.9501  0.1880
16263TIP3   OH270279   3.117   6.008   4.322  0.5149  0.1934 -0.0325
16263TIP3    H170280   3.114   5.926   4.274  2.1788  0.7976 -1.2537
16263TIP3    H270281   3.151   5.985   4.408  0.1479 -0.5048 -0.0699
16264TIP3   OH270282   1.088   3.141   0.994 -0.2326 -0.2022  1.0713
16264TIP3    H170283   1.027   3.173   1.060 -1.0061 -3.4756  2.1237
16264TIP3    H270284   1.043   3.154   0.911 -1.1279  0.0346  1.5893
16265TIP3   OH270285   4.241   3.330   1.728 -0.5846 -0.4338 -0.5455
16265TIP3    H170286   4.247   3.424   1.743 -0.7349 -0.3084 -1.2435
16265TIP3    H270287   4.151   3.307   1.752 -0.1958 -0.6235  0.7921
16266TIP3   OH270288   3.248   5.579  10.866  0.0761  0.0555  0.2536
16266TIP3    H170289   3.201   5.496  10.857 -3.0737  1.7761 -0.6629
16266TIP3    H270290   3.263   5.608  10.776  1.0090  0.5800  0.5636
16267TIP3   OH270291   6.329   2.393   3.121  0.6312 -0.5334  0.1722
16267TIP3    H170292   6.372   2.399   3.035 -1.5824 -0.4325 -0.9868
16267TIP3    H270293   6.281   2.475   3.130 -1.9985 -1.9362 -0.1505
16268TIP3   OH270294   5.856   0.625  13.373  0.4905  0.5396 -0.6956
16268TIP3    H170295   5.908   0.600  13.297  0.7854 -1.5659  0.1309
16268TIP3    H270296   5.771   0.650  13.338  0.7583 -0.0014 -1.7424
16269TIP3   OH270297   5.067   1.678  11.149  0.3709  0.1948 -0.0978
16269TIP3    H170298   5.116   1.754  11.179  0.2867  0.6200 -0.9958
16269TIP3    H270299   5.043   1.699  11.059 -1.1843 -0.1408  0.2074
16270TIP3   OH270300   1.182   1.081  14.276  0.1152 -0.5138  0.5316
16270TIP3    H170301   1.142   1.109  14.358  0.3175 -0.9351  0.7737
16270TIP3    H270302   1.117   1.024  14.236 -0.8214  1.2185 -0.5454
16271TIP3   OH270303   3.055   4.620   0.530 -0.6212  0.1265  0.0891
16271TIP3    H170304   3.068   4.663   0.614 -0.7562  1.3570 -0.4897
16271TIP3    H270305   2.979   4.665   0.491 -0.2738 -0.0898 -0.8824
16272TIP3   OH270306   5.074   0.633   5.541 -0.6698  0.1364  0.0309
16272TIP3    H170307   5.071   0.638   5.445  0.3917 -0.3319 -0.0395
16272TIP3    H270308   5.166   0.646   5.563 -0.8846  0.1167  0.9899
16273TIP3   OH270309   1.964   1.101   4.593 -0.2021 -0.0802 -0.2069
16273TIP3    H170310   1.934   1.097   4.502  0.2291 -2.4210 -0.2906
16273TIP3    H270311   1.928   1.023   4.633 -1.6871  1.6565  2.1141
16274TIP3   OH270312   0.973   2.656  15.763 -0.3471 -0.0391  0.2352
16274TIP3    H170313   1.060   2.681  15.733  0.0517 -2.6409 -1.0178
16274TIP3    H270314   0.986   2.622  15.851  0.0975 -1.3422 -0.3209
16275TIP3   OH270315   4.389   4.140   5.749 -0.1864 -0.4653  0.6940
16275TIP3    H170316   4.357   4.051   5.740 -0.8912 -0.2214  0.7156
16275TIP3    H270317   4.314   4.195   5.729 -0.3770  0.1287  2.8113
16276TIP3   OH270318   5.039   6.554   1.067  0.4408  0.6534  0.2736
16276TIP3    H170319   4.949   6.549   1.034 -0.0654 -0.2243  1.7013
16276TIP3    H270320   5.089   6.498   1.009 -0.3265 -0.4167  0.6165
16277TIP3   OH270321   1.071   4.156  15.099 -0.2361 -0.0590 -0.3583
16277TIP3    H170322   1.053   4.098  15.173  1.5703 -1.2421 -0.7988
16277TIP3    H270323   1.120   4.103  15.037 -0.1212  1.4294 -1.6145
16278TIP3   OH270324   3.701   3.104  15.477 -0.5160 -0.0272  1.0304
16278TIP3    H170325   3.766   3.065  15.419  0.0016  2.9326 -0.5780
16278TIP3    H270326   3.749   3.126  15.557 -0.4327 -1.0568  1.2753
16279TIP3   OH270327   0.741   6.019   2.068  0.0538  0.3464 -0.5760
16279TIP3    H170328   0.715   5.952   2.004  1.0640  0.0303 -0.6693
16279TIP3    H270329   0.781   6.088   2.015 -0.1713  0.6209 -0.3913
16280TIP3   OH270330   3.527   3.493  10.926  0.2074  0.4614 -0.7173
16280TIP3    H170331   3.524   3.577  10.971 -0.8160  0.9599 -1.6907
16280TIP3    H270332   3.448   3.491  10.871  1.1064 -0.3719 -2.0477
16281TIP3   OH270333   4.296   4.679  14.339  0.3435  0.1195 -0.0765
16281TIP3    H170334   4.305   4.712  14.250  1.0461 -0.4933 -0.2418
16281TIP3    H270335   4.258   4.592  14.329  1.3574 -0.3672  0.1383
16282TIP3   OH270336   3.447   4.289  13.515  0.2754  0.3558  0.2153
16282TIP3    H170337   3.401   4.342  13.451  0.8146  1.8691  1.0300
16282TIP3    H270338   3.399   4.206  13.517 -0.1630  0.5253 -1.6104
16283TIP3   OH270339   6.819   5.341  15.488  0.6552  0.3387 -0.1663
16283TIP3    H170340   6.813   5.404  15.416 -0.0783  0.9552  0.4065
16283TIP3    H270341   6.765   5.267  15.460  3.6943 -1.3596 -2.0598
16284TIP3   OH270342   4.736   4.361   0.402  0.2791  0.0823  0.5090
16284TIP3    H170343   4.735   4.364   0.306  0.6391 -1.6993  0.4185
16284TIP3    H270344   4.732   4.453   0.428 -2.7519  0.5516 -1.1339
16285TIP3   OH270345   2.418   0.405   0.730  0.2377  0.0275 -0.4204
16285TIP3    H170346   2.378   0.381   0.813  0.6128 -0.7020 -0.4396
16285TIP3    H270347   2.442   0.322   0.690  3.3531  0.4260  0.3794
16286TIP3   OH270348   1.102   4.764   5.040 -0.6418  0.0341  0.3694
16286TIP3    H170349   1.180   4.817   5.027 -1.1544  0.6672 -0.2229
16286TIP3    H270350   1.103   4.701   4.967 -0.0697 -0.7374  1.0330
16287TIP3   OH270351   0.078   6.592  13.161  0.4537 -0.5765 -0.1713
16287TIP3    H170352   0.069   6.523  13.096 -0.2774 -0.1234 -0.5629
16287TIP3    H270353   0.003   6.581  13.219 -0.3608  0.6260 -0.9584
16288TIP3   OH270354   5.615   6.556   3.178  0.4084 -0.1986  0.3204
16288TIP3    H170355   5.688   6.603   3.137  0.4056  1.6726  2.2824
16288TIP3    H270356   5.639   6.463   3.170  2.9887  0.3466  0.8115
16289TIP3   OH270357   5.286   3.914   2.538 -0.5757  0.6806 -0.0344
16289TIP3    H170358   5.374   3.879   2.528 -0.7758 -0.5449  1.8446
16289TIP3    H270359   5.288   3.959   2.623 -2.0381 -0.4085  0.6156
16290TIP3   OH270360   3.043   0.934   1.850 -0.2629  0.4188 -0.4537
16290TIP3    H170361   3.083   1.016   1.821  0.8840  0.2120  0.4211
16290TIP3    H270362   3.011   0.892   1.771 -1.8357  2.1881 -0.8072
16291TIP3   OH270363   3.914   0.535  12.212  0.5669  0.1202  0.5903
16291TIP3    H170364   3.902   0.608  12.273  2.2983 -0.5076  1.7760
16291TIP3    H270365   3.826   0.518  12.178  0.3309  3.9079 -1.2176
16292TIP3   OH270366   5.686   0.813  12.830 -0.2390  0.3512 -0.2987
16292TIP3    H170367   5.673   0.886  12.770 -0.5542 -0.9188 -1.8250
16292TIP3    H270368   5.740   0.751  12.782 -0.4254 -0.6741  0.7657
16293TIP3   OH270369   6.774   1.260  11.841 -0.2930 -0.2540  0.7949
16293TIP3    H170370   6.817   1.180  11.809 -0.9032 -0.3905  0.3125
16293TIP3    H270371   6.681   1.244  11.827 -0.4110  0.5860  0.6092
16294TIP3   OH270372   0.657   1.796  11.546 -0.7787  0.6499 -0.1780
16294TIP3    H170373   0.568   1.762  11.538 -1.3928  2.3566 -1.2458
16294TIP3    H270374   0.704   1.754  11.474 -0.4286 -1.0024  0.9741
16295TIP3   OH270375   4.630   2.649  16.176 -0.1628 -0.3018 -0.2830
16295TIP3    H170376   4.546   2.694  16.177  0.2690  0.5632  1.9756
16295TIP3    H270377   4.652   2.642  16.083 -2.3275  0.1547 -0.8857
16296TIP3   OH270378   0.560   0.455   4.256  0.9757  0.4892  0.2615
16296TIP3    H170379   0.476   0.493   4.280  1.1505  1.9700 -1.3108
16296TIP3    H270380   0.576   0.388   4.323 -3.1976 -2.5161 -1.3483
16297TIP3   OH270381   6.108   2.175   2.894 -0.1726 -0.3906  0.4355
16297TIP3    H170382   6.113   2.107   2.827  0.1521 -0.0444  0.1077
16297TIP3    H270383   6.091   2.256   2.846  3.7576  0.5773  0.2694
16298TIP3   OH270384   0.954   1.397  13.722  0.0232  0.3684 -0.0483
16298TIP3    H170385   0.938   1.303  13.715  0.0688  0.3226  0.4124
16298TIP3    H270386   0.944   1.430  13.633  1.6853 -0.3390 -0.5357
16299TIP3   OH270387   5.213   1.390  12.346  0.2229  0.7324  0.0108
16299TIP3    H170388   5.274   1.382  12.273 -0.0510  0.3058 -0.1814
16299TIP3    H270389   5.259   1.442  12.411  0.4481  1.1657 -0.4906
16300TIP3   OH270390   5.147   6.483  14.241  0.1650 -0.1864  0.4847
16300TIP3    H170391   5.107   6.420  14.182 -1.7260  2.1107 -0.8232
16300TIP3    H270392   5.208   6.430  14.293  0.3252 -2.6936 -1.9808
16301TIP3   OH270393   6.175   2.647   0.229 -0.0290  0.4583  0.2672
16301TIP3    H170394   6.083   2.629   0.206  0.4014 -0.7877 -0.5400
16301TIP3    H270395   6.174   2.738   0.260 -1.6317  0.2781  0.8319
16302TIP3   OH270396   6.817   3.696  12.792 -0.5216  0.0449 -0.3905
16302TIP3    H170397   6.786   3.787  12.794 -1.0520 -0.1401  0.3123
16302TIP3    H270398   6.749   3.648  12.744 -0.0198  0.0885 -1.1635
16303TIP3   OH270399   3.147   4.290  13.321  0.1834  0.0260 -0.2355
16303TIP3    H170400   3.055   4.287  13.294  0.2714 -1.7414 -0.4591
16303TIP3    H270401   3.153   4.225  13.392  1.3713 -0.3386 -0.6488
16304TIP3   OH270402   0.410   2.566   5.862 -0.0657 -0.3987  0.7322
16304TIP3    H170403   0.363   2.582   5.780 -1.3385  0.6684  1.6232
16304TIP3    H270404   0.457   2.484   5.848  1.2430  0.6790 -1.7047
16305TIP3   OH270405   4.256   0.208  12.085 -0.1153  0.2938 -0.2976
16305TIP3    H170406   4.163   0.230  12.079  0.1285  0.9850 -2.5898
16305TIP3    H270407   4.257   0.114  12.106 -1.3261  0.3030 -0.1275
16306TIP3   OH270408   4.074   4.610   6.010 -0.3052  0.4684  0.1029
16306TIP3    H170409   4.048   4.564   6.090  1.5580 -0.0792  0.4353
16306TIP3    H270410   4.111   4.693   6.042  3.2931 -1.0093  0.1483
16307TIP3   OH270411   1.903   6.336  12.517  0.6270  0.1154 -0.4365
16307TIP3    H170412   1.995   6.325  12.494  0.4842 -0.6828 -0.6350
16307TIP3    H270413   1.861   6.254  12.493 -0.2022  0.5815 -0.6402
16308TIP3   OH270414   3.365   0.905   4.608  0.1530 -0.7576  0.2858
16308TIP3    H170415   3.363   0.825   4.556 -1.2195 -0.7338  0.2721
16308TIP3    H270416   3.456   0.914   4.635  0.5799 -1.6024 -0.8206
16309TIP3   OH270417   0.139   4.373  11.108 -0.0605  0.1102 -0.2620
16309TIP3    H170418   0.192   4.431  11.163  1.7580  0.3130 -2.1222
16309TIP3    H270419   0.203   4.320  11.060 -1.6081 -1.0554 -1.1480
16310TIP3   OH270420   1.615   4.549   0.836  0.4288 -0.0390 -0.3340
16310TIP3    H170421   1.588   4.534   0.745  0.6715  0.5814 -0.5173
16310TIP3    H270422   1.705   4.517   0.839  0.8536  1.0635 -0.6541
16311TIP3   OH270423   4.858   1.426  11.437 -0.1233  0.3997 -0.4080
16311TIP3    H170424   4.892   1.432  11.347 -2.1558  2.1710 -1.1371
16311TIP3    H270425   4.778   1.375  11.429 -0.6276  1.0593  0.2771
16312TIP3   OH270426   0.175   0.821  13.303 -0.1237  0.8920  0.6054
16312TIP3    H170427   0.081   0.834  13.289 -0.1705 -1.3975 -1.8485
16312TIP3    H270428   0.217   0.865  13.230  0.6828  1.0406  1.1402
16313TIP3   OH270429   1.141   5.432   1.366  0.1980 -0.4814 -0.1613
16313TIP3    H170430   1.083   5.357   1.379  0.1718 -0.3494  0.5074
16313TIP3    H270431   1.197   5.406   1.292 -0.3061 -0.8502 -0.4183
16314TIP3   OH270432   6.384   6.686   2.470  0.2542  0.4962 -0.2926
16314TIP3    H170433   6.347   6.771   2.495  0.8477  0.7809 -0.3722
16314TIP3    H270434   6.328   6.622   2.514 -0.3166  0.9171 -0.3852
16315TIP3   OH270435   5.401   0.526   2.600 -0.1678  0.4851 -0.8508
16315TIP3    H170436   5.339   0.582   2.553 -1.2204  0.5870  0.6135
16315TIP3    H270437   5.424   0.575   2.679  1.2698  0.1502 -1.0284
16316TIP3   OH270438   4.052   6.141   5.195 -0.1078  0.7133  0.0989
16316TIP3    H170439   4.043   6.103   5.107  0.6106  0.1335  0.2699
16316TIP3    H270440   4.030   6.069   5.254 -2.3661  1.5687  0.4135
16317TIP3   OH270441   2.617   6.351  13.302  0.2147 -0.2568  0.5590
16317TIP3    H170442   2.616   6.291  13.227  0.6747  1.8023 -1.2054
16317TIP3    H270443   2.526   6.378  13.312  0.2839  0.1490  0.1346
16318TIP3   OH270444   0.283   5.876  14.052 -0.0065 -0.2493 -0.2410
16318TIP3    H170445   0.295   5.781  14.057 -1.7411 -0.4748  0.5169
16318TIP3    H270446   0.365   5.912  14.085 -0.0740 -1.5403  1.5084
16319TIP3   OH270447   2.503   2.473   2.260  0.2323 -0.1772 -0.5040
16319TIP3    H170448   2.526   2.414   2.188  0.5746  0.3418 -0.8228
16319TIP3    H270449   2.410   2.492   2.247 -0.0020 -1.0153 -0.1273
16320TIP3   OH270450   5.926   2.463  15.608  0.0201  0.1294 -0.1626
16320TIP3    H170451   5.845   2.421  15.636  0.7371 -0.8896  0.4657
16320TIP3    H270452   5.985   2.390  15.589  0.9033  0.8597 -0.2647
16321TIP3   OH270453   4.801   5.815  10.482  0.1152 -0.5691 -0.7024
16321TIP3    H170454   4.824   5.881  10.548  1.2762 -1.2347 -0.4029
16321TIP3    H270455   4.879   5.810  10.426  0.3405 -2.1575 -0.3066
16322TIP3   OH270456   6.370   0.767  12.387 -0.4296 -0.3121  0.1687
16322TIP3    H170457   6.370   0.827  12.461  0.5930 -1.2609  0.9908
16322TIP3    H270458   6.314   0.694  12.415  0.7159 -1.1224  0.4320
16323TIP3   OH270459   5.801   6.568  12.889 -0.6642 -0.3581 -0.1811
16323TIP3    H170460   5.751   6.546  12.811 -0.8899 -2.0880  0.4091
16323TIP3    H270461   5.746   6.632  12.935 -0.1202  1.3801 -1.8202
16324TIP3   OH270462   0.378   5.491  11.186  0.1997  0.0221 -0.7340
16324TIP3    H170463   0.330   5.567  11.156  0.3186  0.8054  0.9363
16324TIP3    H270464   0.458   5.526  11.225 -0.2363 -0.8326  1.0375
16325TIP3   OH270465   1.019   5.324  11.810  0.7542  0.3412 -0.0704
16325TIP3    H170466   1.021   5.283  11.896  0.7994 -0.3234 -0.3841
16325TIP3    H270467   1.066   5.263  11.753  0.7870  0.8107 -0.5517
16326TIP3   OH270468   1.660   0.876  14.551 -0.3524 -0.0832  0.4289
16326TIP3    H170469   1.753   0.884  14.572 -0.6801 -1.6053  2.8570
16326TIP3    H270470   1.620   0.955  14.586  0.0791  1.0575 -1.4973
16327TIP3   OH270471   6.677   1.216  16.093  0.7305  0.2538 -0.5379
16327TIP3    H170472   6.635   1.172  16.019 -0.6539  0.1583  0.2657
16327TIP3    H270473   6.629   1.184  16.170  0.1833  2.5534  0.1571
16328TIP3   OH270474   4.629   1.877  13.231  0.3031 -0.5547  0.1798
16328TIP3    H170475   4.546   1.846  13.196  0.3714  0.3156 -0.8059
16328TIP3    H270476   4.604   1.930  13.307 -0.1330  0.4880 -0.6712
16329TIP3   OH270477   0.382   6.614  11.926  0.4641  0.2695  0.0933
16329TIP3    H170478   0.323   6.591  11.997  0.8373 -0.6944  0.1080
16329TIP3    H270479   0.330   6.669  11.868 -0.7536 -1.2777 -0.3602
16330TIP3   OH270480   4.398   5.113   1.497 -0.3674 -0.4436 -0.5461
16330TIP3    H170481   4.431   5.077   1.579 -1.1912 -1.6257 -0.6872
16330TIP3    H270482   4.403   5.208   1.507  1.6314 -0.5634 -0.0199
16331TIP3   OH270483   5.920   5.645  14.180 -0.0560 -0.0725 -0.3131
16331TIP3    H170484   5.859   5.629  14.108 -2.0342  0.6321  1.1265
16331TIP3    H270485   5.899   5.579  14.246  1.1413 -0.1793 -0.0167
16332TIP3   OH270486   3.882   4.276   5.338  0.2299 -0.6270  0.0639
16332TIP3    H170487   3.960   4.223   5.322  0.6029  0.0314 -0.3219
16332TIP3    H270488   3.840   4.286   5.253 -0.0334 -0.5985  0.1940
16333TIP3   OH270489   0.605   0.292  17.107  0.1007  0.0145 -0.5671
16333TIP3    H170490   0.553   0.216  17.083 -0.2951  0.4064 -0.9773
16333TIP3    H270491   0.665   0.304  17.033 -0.8752  1.0113 -1.2231
16334TIP3   OH270492   4.169   0.447   1.061 -0.0654 -0.0608 -0.2666
16334TIP3    H170493   4.258   0.443   1.096 -0.4870  0.9123  1.0037
16334TIP3    H270494   4.146   0.540   1.064 -1.1149 -0.2979 -0.5928
16335TIP3   OH270495   4.720   0.609  13.631 -0.1681 -0.2669 -0.4312
16335TIP3    H170496   4.714   0.515  13.615  0.8607 -0.5348  0.6054
16335TIP3    H270497   4.638   0.631  13.675  0.1828 -0.9675  0.6034
16336TIP3   OH270498   3.448   3.145  15.416  0.1514 -0.3347  0.0120
16336TIP3    H170499   3.462   3.239  15.413 -0.2418 -0.3050 -0.9372
16336TIP3    H270500   3.535   3.109  15.437  0.9572  0.0806 -2.3244
16337TIP3   OH270501   5.647   2.465  16.409  0.5183  1.2664 -0.0669
16337TIP3    H170502   5.603   2.493  16.489 -1.4102  0.4220 -0.7724
16337TIP3    H270503   5.601   2.510  16.339 -0.5899 -1.1027 -0.9806
16338TIP3   OH270504   3.631   0.127  14.837 -0.3890  0.2007 -0.3184
16338TIP3    H170505   3.715   0.119  14.792 -0.4099  0.3323 -0.3822
16338TIP3    H270506   3.642   0.200  14.897 -0.1629 -0.3675  0.3414
16339TIP3   OH270507   0.599   4.854  13.412  0.2704 -0.2271 -0.3960
16339TIP3    H170508   0.694   4.841  13.408  0.2217 -0.5319 -0.5361
16339TIP3    H270509   0.585   4.940  13.372  0.6107  0.3634  0.6930
16340TIP3   OH270510   4.640   5.187  16.916 -0.1494 -0.0181 -0.7681
16340TIP3    H170511   4.587   5.110  16.897 -0.5096  0.3257 -1.1800
16340TIP3    H270512   4.645   5.190  17.011 -2.9081  1.2993 -0.5665
16341TIP3   OH270513   6.138   4.819   3.547 -0.0082 -0.0461  0.5233
16341TIP3    H170514   6.051   4.856   3.564 -1.7016 -2.0120 -2.7281
16341TIP3    H270515   6.133   4.730   3.581  0.4864 -0.3523 -0.1789
16342TIP3   OH270516   6.000   2.744  10.781  0.4638  0.0183 -0.3479
16342TIP3    H170517   6.045   2.664  10.808 -1.2752 -1.2574 -0.9999
16342TIP3    H270518   6.059   2.784  10.716  2.5279  0.6978  1.8004
16343TIP3   OH270519   4.180   5.906   0.156  0.0952  0.0991 -0.3499
16343TIP3    H170520   4.222   5.822   0.173 -0.7875 -0.0877  1.1235
16343TIP3    H270521   4.089   5.884   0.136  0.3003  0.5941 -1.9274
16344TIP3   OH270522   4.519   6.772   5.798  0.0785  0.1837 -0.4256
16344TIP3    H170523   4.495   6.749   5.708  0.3310 -2.5236  0.1121
16344TIP3    H270524   4.445   6.824   5.830 -0.0641  1.1028 -2.1304
16345TIP3   OH270525   3.929   3.199  16.197 -0.1784  0.3655  0.1392
16345TIP3    H170526   3.882   3.153  16.266  1.0571  0.1104  0.8435
16345TIP3    H270527   3.983   3.131  16.155 -0.4225  0.6468 -0.6448
16346TIP3   OH270528   3.882   5.573  16.004 -0.0070 -0.0576 -0.9209
16346TIP3    H170529   3.805   5.623  16.032  1.0845  0.7888  0.7856
16346TIP3    H270530   3.934   5.636  15.954  0.1322 -0.2746 -1.0489
16347TIP3   OH270531   3.468   3.322   1.312  0.0637  0.2983  0.5632
16347TIP3    H170532   3.512   3.374   1.245  0.1308 -1.4263 -0.7843
16347TIP3    H270533   3.488   3.231   1.290 -0.1835 -0.3460  2.7466
16348TIP3   OH270534   4.782   1.660  12.884  0.1723 -0.1845 -0.2936
16348TIP3    H170535   4.780   1.589  12.819 -2.2475 -2.8045  2.2861
16348TIP3    H270536   4.869   1.654  12.924  0.5473 -0.6972 -1.1596
16349TIP3   OH270537   6.113   5.664   4.160 -0.6548  0.4281 -0.1241
16349TIP3    H170538   6.042   5.700   4.108 -0.0160 -0.2023 -1.4824
16349TIP3    H270539   6.113   5.716   4.241 -1.7798  1.3168 -0.6773
16350TIP3   OH270540   0.609   4.924   0.160 -0.4458 -0.0151 -0.0582
16350TIP3    H170541   0.697   4.889   0.175 -0.8785 -0.9665  0.4306
16350TIP3    H270542   0.551   4.856   0.195 -1.4387 -0.3656 -2.2528
16351TIP3   OH270543   0.412   2.295  16.713 -0.1123 -0.1201  0.0816
16351TIP3    H170544   0.433   2.353  16.640  0.5498 -0.9435 -0.3990
16351TIP3    H270545   0.479   2.313  16.778  0.3819 -0.6735 -0.2640
16352TIP3   OH270546   0.290   0.861  11.682  0.2067 -0.0260 -0.2958
16352TIP3    H170547   0.316   0.770  11.697 -0.8448 -0.3803 -0.5211
16352TIP3    H270548   0.234   0.857  11.604  0.8031  0.9305 -0.7877
16353TIP3   OH270549   4.961   1.194   5.051  0.2076 -0.9224  0.2486
16353TIP3    H170550   5.051   1.218   5.072 -0.1446 -0.2891  1.0357
16353TIP3    H270551   4.933   1.258   4.986  0.0492 -0.6065  0.6248
16354TIP3   OH270552   1.843   0.660   3.133 -0.1753 -0.3222  0.3601
16354TIP3    H170553   1.893   0.598   3.079 -0.5026 -0.4289  0.1762
16354TIP3    H270554   1.894   0.667   3.214 -0.0609 -0.7219  0.3260
16355TIP3   OH270555   3.641   4.712  13.612  0.2502 -0.2550  0.4349
16355TIP3    H170556   3.710   4.688  13.551  0.5828 -0.2122  0.7918
16355TIP3    H270557   3.570   4.744  13.556  0.2083 -1.0522  0.0155
16356TIP3   OH270558   4.077   4.725  13.495 -0.2470  0.5475 -0.4391
16356TIP3    H170559   4.135   4.728  13.571  1.7721 -1.3492 -1.7763
16356TIP3    H270560   4.130   4.760  13.423 -1.7099  1.2217 -1.2358
16357TIP3   OH270561   5.819   5.215  15.073 -0.0517 -0.1547 -0.3419
16357TIP3    H170562   5.727   5.236  15.090  0.1687  2.7592 -2.0639
16357TIP3    H270563   5.867   5.291  15.106  1.9435 -2.0841  1.5395
16358TIP3   OH270564   5.314   2.264   1.221  0.4024 -0.1573 -0.2256
16358TIP3    H170565   5.260   2.186   1.223 -1.5780  1.1470  0.4126
16358TIP3    H270566   5.396   2.238   1.262  0.4865 -2.3303 -1.6232
16359TIP3   OH270567   1.496   1.507  10.974  0.1733 -0.4766  0.3496
16359TIP3    H170568   1.542   1.429  10.942  1.3789  0.3584 -0.0358
16359TIP3    H270569   1.557   1.579  10.958 -1.6028  0.8373 -0.9048
16360TIP3   OH270570   4.062   1.901   1.470 -0.0378 -0.8417  0.3919
16360TIP3    H170571   4.114   1.972   1.434 -0.0819 -0.8735  0.2666
16360TIP3    H270572   3.972   1.934   1.468 -0.1534 -1.1818 -0.3551
16361TIP3   OH270573   5.974   4.302   1.488 -0.1198 -0.1063  0.1190
16361TIP3    H170574   6.059   4.302   1.444 -0.5618 -0.6056 -0.7495
16361TIP3    H270575   5.985   4.363   1.561  1.4711 -1.3317  0.9744
16362TIP3   OH270576   4.118   2.094   4.680  0.2640 -0.0522 -0.3728
16362TIP3    H170577   4.155   2.168   4.632  1.0730  0.2346  0.6445
16362TIP3    H270578   4.079   2.133   4.759  1.3161 -0.7517  0.5267
16363TIP3   OH270579   3.050   3.289   0.012  0.1669 -0.5043  0.1709
16363TIP3    H170580   3.084   3.266   0.099 -0.2923 -0.0152  0.4851
16363TIP3    H270581   3.112   3.250  -0.049  0.7137 -0.5098  0.7256
16364TIP3   OH270582   5.246   2.559   0.512 -0.2187  0.2499 -0.6316
16364TIP3    H170583   5.151   2.567   0.514 -0.1349  1.6863  1.4661
16364TIP3    H270584   5.274   2.623   0.446 -0.6667  0.6638 -0.4320
16365TIP3   OH270585   4.291   5.684   3.987 -0.2768  0.0295 -0.6368
16365TIP3    H170586   4.314   5.752   3.923 -0.7827 -1.0946 -2.0537
16365TIP3    H270587   4.196   5.691   3.997  0.0031  1.6953  1.8015
16366TIP3   OH270588   0.124   5.106  15.111  0.1685 -0.0247  0.1221
16366TIP3    H170589   0.130   5.040  15.180  0.4555  0.3306  0.4399
16366TIP3    H270590   0.215   5.122  15.084 -0.0053 -1.0615 -1.2141
16367TIP3   OH270591   6.165   5.250   4.387  0.4786  0.4285 -0.0728
16367TIP3    H170592   6.163   5.252   4.291  0.7291  2.2171 -0.0915
16367TIP3    H270593   6.112   5.174   4.411  1.0666 -0.5258 -1.6272
16368TIP3   OH270594   2.041   0.897   5.495 -0.6764 -0.6686 -0.0602
16368TIP3    H170595   2.034   0.991   5.510 -1.9785 -0.9085  1.0164
16368TIP3    H270596   2.122   0.872   5.539 -0.2653 -0.0469 -0.4412
16369TIP3   OH270597   4.907   6.785  10.666  0.4109  0.4733 -0.4402
16369TIP3    H170598   4.882   6.692  10.664 -3.1326  1.2742 -0.5090
16369TIP3    H270599   4.989   6.789  10.618  0.6767 -2.6347 -0.4194
16370TIP3   OH270600   5.129   1.679   5.841 -0.3243  0.1663  0.9503
16370TIP3    H170601   5.068   1.634   5.782  1.5104 -0.2338 -0.7471
16370TIP3    H270602   5.141   1.618   5.914  0.1147 -0.9543 -0.0319
16371TIP3   OH270603   0.090   4.898   4.852  0.6415 -0.0315  0.5320
16371TIP3    H170604   0.182   4.880   4.833  0.3509 -0.9087 -0.1118
16371TIP3    H270605   0.068   4.974   4.797  0.5473 -0.8476 -0.5905
16372TIP3   OH270606   2.546   4.438   2.415 -0.2445  0.7815 -0.1984
16372TIP3    H170607   2.546   4.382   2.493 -0.2226  0.3409 -0.5106
16372TIP3    H270608   2.459   4.424   2.376 -0.2815  1.0543 -0.2165
16373TIP3   OH270609   1.770   1.491   1.676  0.0519 -0.5377  0.2420
16373TIP3    H170610   1.757   1.397   1.686  1.8747 -0.8940 -0.2742
16373TIP3    H270611   1.851   1.509   1.724  0.5411  0.4691 -0.9019
16374TIP3   OH270612   5.313   4.774  10.675  0.0929 -0.3165 -0.5905
16374TIP3    H170613   5.386   4.800  10.619 -0.0466  0.2472 -0.5075
16374TIP3    H270614   5.277   4.696  10.632  0.3670 -0.2447 -0.9546
16375TIP3   OH270615   4.311   6.398   2.251 -0.2384  0.5072 -0.0536
16375TIP3    H170616   4.335   6.362   2.336  0.1951 -1.2637 -0.8788
16375TIP3    H270617   4.395   6.408   2.205 -0.5253  0.7042 -0.5402
16376TIP3   OH270618   3.368   5.485   0.773  0.3855 -0.1486 -0.4365
16376TIP3    H170619   3.422   5.562   0.791 -0.6846  0.4145  0.4451
16376TIP3    H270620   3.335   5.459   0.859  0.4666 -1.4071 -0.7660
16377TIP3   OH270621   2.624   5.771   1.570  0.0762  0.4804  0.2467
16377TIP3    H170622   2.632   5.719   1.490 -1.3601 -0.7629  0.8512
16377TIP3    H270623   2.710   5.764   1.611  0.7757  0.9856 -1.0638
16378TIP3   OH270624   5.558   3.236  17.086  0.3467 -0.0437  0.0161
16378TIP3    H170625   5.538   3.308  17.145  1.0584 -0.2799  0.5588
16378TIP3    H270626   5.481   3.228  17.030  0.4621  1.4686 -0.3880
16379TIP3   OH270627   1.958   0.187   3.672  0.1848 -0.7150 -0.2572
16379TIP3    H170628   1.867   0.165   3.651  0.1018  0.3959 -1.1738
16379TIP3    H270629   1.979   0.261   3.614  0.7446  0.9811  1.9812
16380TIP3   OH270630   1.052   6.673  16.087 -0.0776  0.0033  0.8343
16380TIP3    H170631   0.958   6.669  16.106 -0.1913  0.3486  0.3524
16380TIP3    H270632   1.086   6.588  16.114 -0.8120 -0.7505 -0.5144
16381TIP3   OH270633   4.697   5.130  16.653  1.0483  0.0223 -0.5425
16381TIP3    H170634   4.791   5.144  16.659  1.2361 -1.5528  1.1395
16381TIP3    H270635   4.664   5.143  16.742 -0.0514 -1.0160 -0.7588
16382TIP3   OH270636   5.606   6.108   5.462 -0.0720  0.1443  0.0069
16382TIP3    H170637   5.525   6.144   5.497 -0.0711  2.8248 -2.3690
16382TIP3    H270638   5.673   6.174   5.483  0.8311 -0.4424 -0.9103
16383TIP3   OH270639   2.839   2.953  16.417  0.6099  0.0888  0.1661
16383TIP3    H170640   2.903   2.903  16.467 -0.6308 -0.6821  1.0469
16383TIP3    H270641   2.779   2.988  16.483  0.7260  1.7128 -0.5415
16384TIP3   OH270642   6.459   2.412   4.807 -0.0636  0.4148  0.3025
16384TIP3    H170643   6.497   2.403   4.895 -0.5637 -0.4653  0.4358
16384TIP3    H270644   6.490   2.497   4.777 -0.1905  0.9086  1.4878
16385TIP3   OH270645   6.632   2.113   0.256  0.2425  0.1602  0.0379
16385TIP3    H170646   6.588   2.196   0.278  0.1475  0.3658 -0.8787
16385TIP3    H270647   6.725   2.136   0.252  0.4445 -0.2074  1.6615
16386TIP3   OH270648   4.759   6.290   2.603 -0.7163 -0.1419 -0.0968
16386TIP3    H170649   4.776   6.383   2.584  1.2748 -0.8859 -2.3906
16386TIP3    H270650   4.694   6.264   2.537 -1.3420 -0.3995  0.6065
16387TIP3   OH270651   5.097   2.329  13.889  0.6207  0.5293  0.4542
16387TIP3    H170652   5.019   2.370  13.925  1.8077  2.7541  0.7224
16387TIP3    H270653   5.153   2.312  13.965  0.0653 -1.9252  0.3684
16388TIP3   OH270654   3.222   0.362  13.517 -0.1604  0.2157 -0.3672
16388TIP3    H170655   3.288   0.415  13.561 -0.9262  0.4618  0.5260
16388TIP3    H270656   3.233   0.381  13.424 -0.7946  2.4352 -0.0459
16389TIP3   OH270657   0.835   5.012  11.640  0.1975  0.6848  0.1486
16389TIP3    H170658   0.823   4.963  11.722 -0.6521  0.4047 -0.1274
16389TIP3    H270659   0.930   5.019  11.630  0.3147  0.9597  1.2914
16390TIP3   OH270660   0.722   2.725  14.987 -0.3828  0.1761  0.7403
16390TIP3    H170661   0.691   2.784  14.918 -1.0188  0.0057  0.8764
16390TIP3    H270662   0.814   2.751  15.001 -0.0718 -0.1428 -0.5435
16391TIP3   OH270663   0.707   3.847   5.306 -0.0239 -0.2274  0.3460
16391TIP3    H170664   0.735   3.818   5.393 -1.3063 -0.5577  0.6747
16391TIP3    H270665   0.711   3.767   5.253 -0.2423 -0.2609  0.3777
16392TIP3   OH270666   6.527   3.557   1.363  0.7950 -0.2400  0.2819
16392TIP3    H170667   6.622   3.555   1.356  0.7901  0.5534 -0.0717
16392TIP3    H270668   6.510   3.574   1.456  1.0757  3.1917 -0.1879
16393TIP3   OH270669   6.548   3.348   5.510 -0.4439  0.0061  0.1374
16393TIP3    H170670   6.481   3.396   5.559 -0.5694  0.4756 -0.4729
16393TIP3    H270671   6.499   3.306   5.438 -0.1835 -0.2123  0.0878
16394TIP3   OH270672   6.271   2.666   0.533  0.7180 -0.3105  0.0471
16394TIP3    H170673   6.223   2.653   0.615  2.1840 -4.2115  0.4973
16394TIP3    H270674   6.203   2.678   0.467 -0.6208  0.1010  1.4524
16395TIP3   OH270675   4.613   2.950  14.955  0.6059 -0.1687  0.2729
16395TIP3    H170676   4.594   2.895  15.031 -1.3204  1.3424  0.9548
16395TIP3    H270677   4.612   3.040  14.989  0.3171  0.5065 -1.4128
16396TIP3   OH270678   1.084   2.967   5.849 -0.7491  0.1306 -0.2803
16396TIP3    H170679   1.065   2.976   5.942 -1.3825  0.1363 -0.4117
16396TIP3    H270680   1.129   3.048   5.825  0.8728 -0.5309  0.3788
16397TIP3   OH270681   6.718   6.800  13.339  0.0190  0.3564 -0.0011
16397TIP3    H170682   6.685   6.732  13.398 -0.9006  0.4671 -0.3698
16397TIP3    H270683   6.809   6.813  13.366  0.1415 -0.8534  0.2253
16398TIP3   OH270684   2.347   5.402  11.179 -0.2806 -0.7287 -0.0635
16398TIP3    H170685   2.375   5.431  11.092 -2.1950  1.3648 -0.0930
16398TIP3    H270686   2.252   5.395  11.172 -0.8288  2.0863  2.4500
16399TIP3   OH270687   1.078   2.575   4.209  0.6102  0.4838 -0.1951
16399TIP3    H170688   1.050   2.548   4.296  1.4909  0.6938  0.1694
16399TIP3    H270689   1.174   2.579   4.215  0.6479  1.0690 -1.0032
16400TIP3   OH270690   3.880   5.668   0.422 -0.2840 -0.3669  0.7570
16400TIP3    H170691   3.859   5.626   0.339 -0.3703  1.5480 -0.2352
16400TIP3    H270692   3.965   5.631   0.447  0.3568 -0.0504 -0.8449
16401TIP3   OH270693   4.582   4.981   5.395 -0.1892 -0.0744  0.1330
16401TIP3    H170694   4.570   4.982   5.490  1.2941  0.0702  0.3509
16401TIP3    H270695   4.533   4.905   5.365  1.1154 -1.4329  1.3003
16402TIP3   OH270696   3.359   0.925  13.976 -0.0147  0.1735 -0.2699
16402TIP3    H170697   3.276   0.896  14.013  0.8587 -0.3222  1.4302
16402TIP3    H270698   3.402   0.971  14.048  2.1417 -1.6094 -0.2930
16403TIP3   OH270699   3.773   1.508  16.732 -0.3326  0.4889 -0.0922
16403TIP3    H170700   3.861   1.493  16.698  0.0654 -2.5325  1.9151
16403TIP3    H270701   3.721   1.436  16.696 -1.6102  1.2935  0.0655
16404TIP3   OH270702   0.911   4.073   1.728  0.4139  0.1033  0.7466
16404TIP3    H170703   0.933   4.136   1.660  3.6220 -0.2121  1.3376
16404TIP3    H270704   0.913   3.988   1.684  0.5215  0.0661  0.8212
16405TIP3   OH270705   1.901   6.118   3.945  0.1008  0.1765 -0.0253
16405TIP3    H170706   1.832   6.161   3.994 -1.2274 -0.2232 -1.4546
16405TIP3    H270707   1.959   6.082   4.012 -0.3410  1.6216  1.2068
16406TIP3   OH270708   0.663   4.065   5.139  0.3162 -0.0374  0.2854
16406TIP3    H170709   0.679   4.006   5.212  1.8120  0.1674  0.1577
16406TIP3    H270710   0.635   4.147   5.179  1.8366  0.3009  0.6915
16407TIP3   OH270711   5.396   0.725  10.950 -0.4211  0.2767 -0.0656
16407TIP3    H170712   5.414   0.817  10.931  0.6203  0.0274 -0.3354
16407TIP3    H270713   5.300   0.718  10.945 -0.4419  1.0887 -1.1910
16408TIP3   OH270714   1.012   3.199   0.748  0.8055  0.1927  0.3264
16408TIP3    H170715   1.005   3.259   0.674  0.4252 -2.0908 -1.6184
16408TIP3    H270716   1.023   3.112   0.708 -0.7803 -1.3543  2.9211
16409TIP3   OH270717   4.339   0.479   5.582  0.0008  0.1376  1.3151
16409TIP3    H170718   4.400   0.461   5.654  1.6254 -0.1556 -0.0811
16409TIP3    H270719   4.352   0.407   5.521 -0.8963  0.7166  0.4112
16410TIP3   OH270720   6.236   0.281  13.505  0.2013 -0.8786  0.2016
16410TIP3    H170721   6.331   0.281  13.496  0.2247 -3.3317 -0.2766
16410TIP3    H270722   6.203   0.255  13.419 -0.8707 -0.6674  0.5302
16411TIP3   OH270723   3.736   5.117   1.212 -0.3673  0.0122  0.4580
16411TIP3    H170724   3.718   5.023   1.220 -0.4964  0.0093  0.1283
16411TIP3    H270725   3.804   5.133   1.278  0.2163 -0.4670 -0.0116
16412TIP3   OH270726   5.368   0.466  13.084 -0.4312 -0.7159  0.7711
16412TIP3    H170727   5.454   0.453  13.123  1.0625 -0.8383 -2.2463
16412TIP3    H270728   5.338   0.377  13.063  0.2398 -0.5756 -1.0138
16413TIP3   OH270729   5.268   6.265   2.275 -0.0505  0.6098  0.1645
16413TIP3    H170730   5.330   6.198   2.249  0.7460  1.4092 -0.0386
16413TIP3    H270731   5.188   6.245   2.226 -0.0542 -0.5789  0.6265
16414TIP3   OH270732   1.356   4.582  14.551  0.4436  0.5862  0.1810
16414TIP3    H170733   1.300   4.648  14.592  2.6053  2.6303  0.0002
16414TIP3    H270734   1.324   4.576  14.461 -1.7036 -0.9519  0.9498
16415TIP3   OH270735   4.484   6.660   5.534 -0.0191  0.0009 -0.5840
16415TIP3    H170736   4.502   6.566   5.540  1.6505  0.3689  2.6910
16415TIP3    H270737   4.519   6.686   5.448  0.4633 -2.1727 -1.1029
16416TIP3   OH270738   6.232   0.298  16.694  0.1832  0.3929 -0.2163
16416TIP3    H170739   6.270   0.386  16.691  0.8579  0.0985 -0.7462
16416TIP3    H270740   6.212   0.284  16.786 -2.3277  2.0742 -0.4037
16417TIP3   OH270741   6.769   2.047   3.898  0.4032  0.8895 -0.5970
16417TIP3    H170742   6.841   2.105   3.872  2.0262  0.0057  1.5454
16417TIP3    H270743   6.771   1.976   3.833  2.9710 -0.2159  0.5110
16418TIP3   OH270744   6.423   5.726   1.918  0.2050 -0.1210 -0.0762
16418TIP3    H170745   6.431   5.822   1.914  0.3947 -0.0498  1.3920
16418TIP3    H270746   6.484   5.694   1.852  1.7969  0.7422  0.9081
16419TIP3   OH270747   0.706   0.372   3.112 -0.4278  0.4773 -0.3533
16419TIP3    H170748   0.708   0.468   3.105  0.4786  0.5722  0.8064
16419TIP3    H270749   0.702   0.342   3.021 -0.3116  1.6158 -0.7607
16420TIP3   OH270750   2.247   0.476  12.206  0.0535 -0.0355 -0.4403
16420TIP3    H170751   2.199   0.453  12.285  0.1998  1.3693  0.0848
16420TIP3    H270752   2.184   0.463  12.135 -0.1447 -1.0964 -0.0851
16421TIP3   OH270753   0.803   5.762  15.970 -0.0680 -0.5779 -0.1283
16421TIP3    H170754   0.718   5.804  15.959  1.1145  1.4455 -2.5166
16421TIP3    H270755   0.792   5.706  16.047 -2.7205  1.7544  1.4078
16422TIP3   OH270756   4.580   5.221  11.059  0.7682  0.3218 -0.8784
16422TIP3    H170757   4.674   5.228  11.075  0.8361 -0.0935 -1.0685
16422TIP3    H270758   4.568   5.258  10.972  0.5563  1.5927 -0.3314
16423TIP3   OH270759   4.544   5.321  11.419 -0.1241  0.1991  0.0289
16423TIP3    H170760   4.635   5.333  11.392  0.7336 -2.8472  1.2157
16423TIP3    H270761   4.493   5.358  11.347  1.9860  2.6673 -0.3453
16424TIP3   OH270762   4.879   3.829  13.671  0.5309 -1.0313 -0.3309
16424TIP3    H170763   4.944   3.883  13.624 -1.4168  1.8733  0.0289
16424TIP3    H270764   4.932   3.764  13.718  3.0484  0.2112 -1.2249
16425TIP3   OH270765   1.315   2.327  12.788 -0.1506  0.3826 -0.2931
16425TIP3    H170766   1.332   2.335  12.882  0.2996 -0.3467 -0.3075
16425TIP3    H270767   1.378   2.262  12.757  1.5085  2.4764 -1.5958
16426TIP3   OH270768   4.806   2.131   2.450  0.2615 -0.3795  0.7510
16426TIP3    H170769   4.735   2.159   2.392 -0.6939 -0.1783  1.9974
16426TIP3    H270770   4.846   2.057   2.403  0.7930  0.9796 -1.0748
16427TIP3   OH270771   4.806   1.665  13.263  0.0320  0.2917  0.5512
16427TIP3    H170772   4.738   1.732  13.264 -0.6848 -0.3330 -1.2376
16427TIP3    H270773   4.880   1.706  13.218 -0.2242  0.0693 -0.0878
16428TIP3   OH270774   3.033   2.458   0.461 -0.1048  0.0439 -0.0891
16428TIP3    H170775   3.018   2.394   0.530 -0.2264  0.3744  0.1959
16428TIP3    H270776   3.116   2.432   0.421 -0.0774 -0.1976  0.1288
16429TIP3   OH270777   3.509   5.405  11.965 -0.7057 -0.6155 -0.6221
16429TIP3    H170778   3.425   5.449  11.980 -1.0203 -1.0413 -1.1213
16429TIP3    H270779   3.573   5.463  12.005 -1.2612 -0.4059 -0.0152
16430TIP3   OH270780   6.488   3.202   6.418 -0.2357 -0.0708 -0.5075
16430TIP3    H170781   6.557   3.260   6.386  1.2313 -1.4045  0.1351
16430TIP3    H270782   6.411   3.258   6.424  0.9236  1.6029 -0.6823
16431TIP3   OH270783   4.438   6.324  16.797 -0.3242 -0.3697 -0.6023
16431TIP3    H170784   4.444   6.396  16.734  2.0084  0.2671  0.2492
16431TIP3    H270785   4.369   6.351  16.858 -0.8615  0.1779 -1.4230
16432TIP3   OH270786   0.822   6.777   2.366  0.2271  0.5910  0.1477
16432TIP3    H170787   0.771   6.856   2.386  1.3549  1.1364  1.0237
16432TIP3    H270788   0.878   6.765   2.443 -1.3231 -2.2758  0.9319
16433TIP3   OH270789   3.218   2.873  16.272 -0.0919 -0.3632 -0.5112
16433TIP3    H170790   3.136   2.852  16.229 -1.9817  1.2196  1.9828
16433TIP3    H270791   3.240   2.961  16.241 -0.1479 -0.1998 -0.0993
16434TIP3   OH270792   0.138   4.751   1.375 -0.4735  0.5820 -0.4375
16434TIP3    H170793   0.174   4.820   1.319  0.2548 -0.9953 -1.9996
16434TIP3    H270794   0.176   4.670   1.342 -1.4425 -0.6237  1.2198
16435TIP3   OH270795   6.725   5.781  17.208  0.0368 -0.3357  0.1486
16435TIP3    H170796   6.715   5.778  17.303 -0.1668  0.2189  0.1475
16435TIP3    H270797   6.817   5.757  17.193 -0.2597 -1.6646  0.4010
16436TIP3   OH270798   1.983   5.257   0.735  0.8022  0.3214  0.6627
16436TIP3    H170799   2.029   5.264   0.818  0.6337 -0.3050  0.8150
16436TIP3    H270800   1.891   5.267   0.757  0.6922 -0.6170  0.6655
16437TIP3   OH270801   3.712   3.919   0.431  0.2720 -0.3699  0.0782
16437TIP3    H170802   3.660   3.860   0.377  2.0205 -1.2152 -0.7861
16437TIP3    H270803   3.688   4.007   0.401 -0.6724 -0.7246 -0.2445
16438TIP3   OH270804   1.568   4.077  12.209 -0.1441  0.4780 -0.4155
16438TIP3    H170805   1.541   4.143  12.146 -0.6510 -0.7038 -1.4690
16438TIP3    H270806   1.659   4.098  12.229  0.1493  0.6281 -1.8511
16439TIP3   OH270807   2.897   1.457  12.091  0.0534 -0.1930  0.1968
16439TIP3    H170808   2.902   1.385  12.154 -0.5256  0.1233  0.6148
16439TIP3    H270809   2.876   1.414  12.008  0.6714 -0.5985  0.2384
16440TIP3   OH270810   0.819   0.866   2.680  0.3549 -0.4916  0.1765
16440TIP3    H170811   0.891   0.888   2.620  0.8325 -0.2169  0.8412
16440TIP3    H270812   0.749   0.834   2.622  1.1666 -1.1962 -0.4415
16441TIP3   OH270813   0.177   6.412   3.218  0.0777 -0.0290  0.3253
16441TIP3    H170814   0.231   6.475   3.266  0.1902  0.3059 -0.2181
16441TIP3    H270815   0.153   6.459   3.138 -2.2739  0.4126  1.1995
16442TIP3   OH270816   5.920   1.133  14.599  0.5201 -0.0704 -0.2632
16442TIP3    H170817   5.928   1.047  14.559 -0.8504 -0.8125  0.9720
16442TIP3    H270818   5.908   1.193  14.525 -2.3473 -1.4417 -1.0471
16443TIP3   OH270819   2.820   2.589   4.395 -0.1778 -0.6121  0.2075
16443TIP3    H170820   2.793   2.628   4.478 -0.6620 -1.0006  0.2373
16443TIP3    H270821   2.823   2.662   4.333  0.5970 -0.2493  0.6633
16444TIP3   OH270822   0.228   2.708  16.486 -0.4771  0.6898 -0.2674
16444TIP3    H170823   0.287   2.727  16.559 -0.1442 -0.9192 -0.0772
16444TIP3    H270824   0.153   2.665  16.526 -0.7292  0.6524 -0.7720
16445TIP3   OH270825   2.863   4.567   5.568 -0.2383  0.8895  0.6371
16445TIP3    H170826   2.933   4.590   5.507  0.6718  0.6481  1.5524
16445TIP3    H270827   2.876   4.474   5.586 -0.9891  0.7685  0.5853
16446TIP3   OH270828   6.448   5.806   5.702  0.1083  0.5555  0.3366
16446TIP3    H170829   6.458   5.754   5.781 -1.6244  2.1434  1.6777
16446TIP3    H270830   6.517   5.872   5.707  0.2291  0.4265  0.3471
16447TIP3   OH270831   1.011   5.604  11.805  0.0853  0.0200 -0.6232
16447TIP3    H170832   0.936   5.594  11.864 -1.4067 -1.5965 -2.6676
16447TIP3    H270833   1.053   5.519  11.804  0.6179  0.2829 -1.2379
16448TIP3   OH270834   2.955   0.240  13.584 -0.0238 -0.5223 -0.8698
16448TIP3    H170835   2.919   0.322  13.617  0.0996 -0.4146 -1.0005
16448TIP3    H270836   3.027   0.267  13.527  0.0941 -0.7266 -0.8169
16449TIP3   OH270837   0.681   0.306   5.465  0.1486 -0.4618 -0.0631
16449TIP3    H170838   0.731   0.381   5.497  0.0392 -0.5013  0.2079
16449TIP3    H270839   0.618   0.344   5.404 -0.3061 -0.2513  0.5277
16450TIP3   OH270840   6.662   1.350  16.380  0.2863  0.1933 -0.2818
16450TIP3    H170841   6.669   1.372  16.472 -0.9425  2.6170 -0.6921
16450TIP3    H270842   6.592   1.285  16.376 -2.3835  2.8073  0.2665
16451TIP3   OH270843   1.971   6.172   0.960  0.0508  1.1926  0.5537
16451TIP3    H170844   1.978   6.226   0.881 -1.0569 -0.8316 -0.9982
16451TIP3    H270845   2.062   6.146   0.978  0.0935 -0.7696 -1.9171
16452TIP3   OH270846   5.393   1.176  14.813  0.2279 -0.5066  0.1642
16452TIP3    H170847   5.357   1.118  14.880  0.3585  0.9272  1.5192
16452TIP3    H270848   5.484   1.191  14.840  0.9924 -1.6509 -1.5688
16453TIP3   OH270849   5.524   5.409  15.276  0.2813 -0.4744  0.2303
16453TIP3    H170850   5.511   5.503  15.275  0.7024 -0.3524  2.0395
16453TIP3    H270851   5.559   5.391  15.363  1.8887 -2.0892 -0.6799
16454TIP3   OH270852   5.583   6.595   4.547  0.2429 -0.4295  0.0300
16454TIP3    H170853   5.617   6.665   4.604 -2.6260  1.7757 -0.6876
16454TIP3    H270854   5.608   6.621   4.459 -0.4839 -0.5132 -0.2098
16455TIP3   OH270855   3.785   4.566   1.751 -0.0694  0.8195 -0.1259
16455TIP3    H170856   3.695   4.576   1.719  0.3259  1.8469 -0.9867
16455TIP3    H270857   3.775   4.548   1.845 -1.1579  1.7078 -0.0478
16456TIP3   OH270858   1.735   6.807  15.131  0.2686  0.4323 -0.8760
16456TIP3    H170859   1.747   6.885  15.185  1.1313 -0.1425 -0.2093
16456TIP3    H270860   1.819   6.795  15.086  0.1737 -0.1642 -0.9010
16457TIP3   OH270861   2.974   3.542   1.376 -0.0832  0.3258 -0.0886
16457TIP3    H170862   3.041   3.494   1.328  1.0423  2.2677 -0.5583
16457TIP3    H270863   2.983   3.513   1.467  0.9440  0.0691 -0.2650
16458TIP3   OH270864   3.225   2.084   0.947 -0.0996 -0.4975  0.0475
16458TIP3    H170865   3.154   2.124   0.997 -1.0316  0.9768 -2.3014
16458TIP3    H270866   3.244   2.146   0.877  2.1757 -1.7630 -0.5882
16459TIP3   OH270867   4.510   6.254   4.994  0.6191  0.3527 -0.1637
16459TIP3    H170868   4.535   6.161   5.000 -0.0443  0.1487 -0.4530
16459TIP3    H270869   4.500   6.282   5.084  1.1815  0.2463 -0.0612
16460TIP3   OH270870   4.858   2.635  15.060  0.4349 -0.3935 -0.0008
16460TIP3    H170871   4.932   2.584  15.026  0.8321 -0.7210  1.3033
16460TIP3    H270872   4.781   2.591  15.025  0.8320 -0.3816 -0.9247
16461TIP3   OH270873   0.127   3.209  16.300 -0.3677  0.0696 -0.4292
16461TIP3    H170874   0.112   3.138  16.363 -2.3571  1.2873  0.5695
16461TIP3    H270875   0.222   3.210  16.287 -0.2987 -3.6483 -1.5844
16462TIP3   OH270876   4.423   3.528  12.158  0.5538  0.2733  0.0028
16462TIP3    H170877   4.423   3.478  12.239  1.2189 -0.6496 -0.5388
16462TIP3    H270878   4.340   3.575  12.157  0.8844  0.9438  1.5908
16463TIP3   OH270879   1.973   2.439   2.380 -0.5028  0.8608 -0.0110
16463TIP3    H170880   1.938   2.364   2.428 -1.8015  1.3691 -0.1487
16463TIP3    H270881   1.957   2.513   2.438  2.6037  0.8494  1.0667
16464TIP3   OH270882   1.341   1.080   5.398  0.1379 -0.2403 -0.2858
16464TIP3    H170883   1.246   1.094   5.390  0.2943  0.6072 -0.7901
16464TIP3    H270884   1.354   0.992   5.365 -0.5760 -0.6849  0.5681
16465TIP3   OH270885   3.831   6.553   1.038 -0.2152  0.1866  0.0734
16465TIP3    H170886   3.759   6.515   1.088  1.1017 -2.0317  0.4308
16465TIP3    H270887   3.882   6.602   1.103 -0.4285  0.3045  0.1553
16466TIP3   OH270888   0.648   4.653   5.888 -0.0448 -0.2902 -0.2514
16466TIP3    H170889   0.594   4.727   5.918  0.3944 -0.9817  2.4788
16466TIP3    H270890   0.592   4.576   5.901  0.4508 -0.6937 -0.4774
16467TIP3   OH270891   1.946   3.717  14.701 -0.2558 -0.4963  0.2803
16467TIP3    H170892   1.897   3.672  14.633 -0.0036 -0.8940  0.3600
16467TIP3    H270893   2.031   3.673  14.703 -0.1548 -0.2917  0.6450
16468TIP3   OH270894   1.794   5.861  12.555  0.0315  0.6213  0.0633
16468TIP3    H170895   1.717   5.809  12.574 -0.0690  1.2001  1.3436
16468TIP3    H270896   1.806   5.853  12.461 -2.2027  1.3458 -0.3405
16469TIP3   OH270897   2.727   5.251   4.550 -0.2152 -0.5463  0.1598
16469TIP3    H170898   2.776   5.330   4.526 -2.1594  0.6999  0.0379
16469TIP3    H270899   2.737   5.244   4.645  0.9599 -0.8706  0.0227
16470TIP3   OH270900   5.692   2.328   2.342 -0.0351 -0.3628  0.3962
16470TIP3    H170901   5.742   2.247   2.334 -1.0343 -0.9674  0.1292
16470TIP3    H270902   5.648   2.338   2.258 -0.8330 -0.1626  0.8223
16471TIP3   OH270903   3.478   1.785  15.641  0.1659  0.0205 -0.0495
16471TIP3    H170904   3.428   1.864  15.660 -0.0005  0.0166 -0.4689
16471TIP3    H270905   3.491   1.786  15.547 -0.7119 -0.9627 -0.2016
16472TIP3   OH270906   2.879   1.959   4.465 -0.0156  0.0970 -0.4105
16472TIP3    H170907   2.863   2.020   4.393 -0.5758 -0.2536 -0.5907
16472TIP3    H270908   2.852   1.874   4.431 -1.6297  0.1253  0.6617
16473TIP3   OH270909   2.636   2.180   5.604  0.0136 -0.1982  0.0810
16473TIP3    H170910   2.565   2.209   5.662 -0.3937 -0.2612 -0.3807
16473TIP3    H270911   2.611   2.212   5.518  1.9360  2.2597  0.3322
16474TIP3   OH270912   0.532   0.466   4.947  0.2715 -0.1788  0.2323
16474TIP3    H170913   0.497   0.449   4.859  0.9839 -0.7747  0.0493
16474TIP3    H270914   0.458   0.502   4.996  0.1844  1.4069 -0.9718
16475TIP3   OH270915   0.091   1.278   3.130  0.1180 -0.3992 -0.3928
16475TIP3    H170916   0.157   1.225   3.085  1.4148  0.8848 -0.0538
16475TIP3    H270917   0.009   1.231   3.115  1.1869 -2.4384 -0.2158
16476TIP3   OH270918   2.631   5.477   0.164  0.2104  0.1219 -1.1278
16476TIP3    H170919   2.548   5.495   0.119  0.4622 -0.9229 -2.0447
16476TIP3    H270920   2.614   5.398   0.215  0.3608  0.4691 -0.5365
16477TIP3   OH270921   5.472   4.190  14.931  0.0781 -0.2096 -0.1278
16477TIP3    H170922   5.469   4.100  14.961 -1.2916 -0.0933  0.1498
16477TIP3    H270923   5.418   4.192  14.852 -1.6780  0.7416  1.0225
16478TIP3   OH270924   2.289   0.447   1.308 -0.2625 -0.2075  0.1676
16478TIP3    H170925   2.206   0.414   1.275 -1.4820  2.4997  0.2918
16478TIP3    H270926   2.312   0.387   1.379 -1.0056 -2.2030 -1.2003
16479TIP3   OH270927   5.799   4.051  12.198 -0.1128  0.2149 -0.1123
16479TIP3    H170928   5.835   3.968  12.166 -1.4551 -0.6055  0.4307
16479TIP3    H270929   5.799   4.108  12.122  3.7218  0.8250  0.1389
16480TIP3   OH270930   6.101   4.744  11.031  0.0952  0.1260 -0.3638
16480TIP3    H170931   6.067   4.662  10.994 -0.5615  0.0059  0.4831
16480TIP3    H270932   6.072   4.812  10.969  2.2996 -0.4251 -2.1373
16481TIP3   OH270933   5.216   6.743   5.413  0.1688  0.2953  0.3595
16481TIP3    H170934   5.286   6.780   5.359 -0.2855  1.4236  0.5175
16481TIP3    H270935   5.252   6.660   5.445  1.4944  0.9197  0.5608
16482TIP3   OH270936   5.108   3.603   0.482  0.3986 -0.1774 -0.0030
16482TIP3    H170937   5.178   3.664   0.457  0.7008 -0.8159 -0.7781
16482TIP3    H270938   5.152   3.539   0.538  0.5360 -0.8076 -0.8175
16483TIP3   OH270939   0.164   5.021   0.739 -0.5653  0.2140  0.0789
16483TIP3    H170940   0.237   5.074   0.709 -0.0500 -0.2692  0.4387
16483TIP3    H270941   0.206   4.946   0.782 -1.2719 -0.3565 -0.2142
16484TIP3   OH270942   3.074   5.092   2.344 -0.3841  0.1555 -0.1272
16484TIP3    H170943   3.122   5.047   2.413  0.6176  0.6672 -0.4703
16484TIP3    H270944   3.076   5.031   2.270  1.0967  0.7795 -0.6386
16485TIP3   OH270945   3.779   2.901  14.159  0.0679 -0.0779 -0.6376
16485TIP3    H170946   3.712   2.833  14.146 -0.9270  0.8261 -0.3308
16485TIP3    H270947   3.795   2.902  14.253  1.8944 -1.5383 -0.8608
16486TIP3   OH270948   0.563   2.588   1.876 -0.0284  0.6981 -0.2731
16486TIP3    H170949   0.512   2.577   1.956 -1.5707  0.4260 -1.2475
16486TIP3    H270950   0.610   2.670   1.888  0.0209  0.4919  1.0419
16487TIP3   OH270951   3.183   2.571  10.895 -0.0981 -0.1430 -0.7939
16487TIP3    H170952   3.105   2.569  10.841  0.0674  0.8032 -1.0824
16487TIP3    H270953   3.255   2.556  10.834 -0.0406 -1.0551 -0.5232
16488TIP3   OH270954   0.814   2.215   3.300  0.1221 -0.4462  0.1448
16488TIP3    H170955   0.832   2.277   3.370 -1.7907 -1.0514  1.2438
16488TIP3    H270956   0.720   2.224   3.283  0.3463 -1.0205 -1.6781
16489TIP3   OH270957   6.804   0.110   4.581 -0.4171  0.1415 -0.4516
16489TIP3    H170958   6.881   0.134   4.530 -0.8021  1.9209 -0.2551
16489TIP3    H270959   6.731   0.152   4.535 -0.8691  1.0767  1.0760
16490TIP3   OH270960   4.809   5.791   2.904  0.6288  0.3439  0.2222
16490TIP3    H170961   4.748   5.728   2.942  0.3836  0.7551  0.5275
16490TIP3    H270962   4.895   5.765   2.937  0.6019 -0.1642 -0.1088
16491TIP3   OH270963   1.769   4.634  11.153 -0.0138  0.4146 -0.2300
16491TIP3    H170964   1.782   4.682  11.071 -0.6566 -1.2813 -1.3690
16491TIP3    H270965   1.855   4.634  11.194  0.6579  0.1068 -1.5777
16492TIP3   OH270966   3.638   5.012   6.326  0.7492 -0.3287  0.0585
16492TIP3    H170967   3.700   5.082   6.305  0.9481 -0.2657  0.8032
16492TIP3    H270968   3.565   5.026   6.266  1.3038 -0.1947 -0.5997
16493TIP3   OH270969   4.428   6.557  12.543 -0.0682 -0.0945 -0.2393
16493TIP3    H170970   4.414   6.565  12.449 -3.1051 -2.3242 -0.1559
16493TIP3    H270971   4.463   6.469  12.554 -0.3452 -0.0968  0.7236
16494TIP3   OH270972   5.746   2.303   0.609 -0.0239 -0.7721  0.2821
16494TIP3    H170973   5.723   2.297   0.702  0.5841 -1.7931  0.3778
16494TIP3    H270974   5.810   2.373   0.604 -0.1810 -0.6038  0.6051
16495TIP3   OH270975   1.338   5.620  11.836 -0.1236 -0.0167  0.0951
16495TIP3    H170976   1.308   5.647  11.923  1.4843  2.7687 -0.1175
16495TIP3    H270977   1.266   5.644  11.777 -0.1353  0.5585  0.3418
16496TIP3   OH270978   2.114   4.286  16.921 -0.3722  0.1156 -0.4735
16496TIP3    H170979   2.056   4.334  16.981 -0.6676 -0.7652 -0.0240
16496TIP3    H270980   2.187   4.259  16.976  0.5156  1.2728 -1.0517
16497TIP3   OH270981   1.110   2.294  15.132  0.1669 -0.0878  0.1943
16497TIP3    H170982   1.039   2.271  15.191  0.5957 -0.3907  0.6020
16497TIP3    H270983   1.067   2.321  15.051 -0.3893 -1.5670 -0.0271
16498TIP3   OH270984   4.367   3.169  10.999 -0.0363 -0.0328 -0.1096
16498TIP3    H170985   4.291   3.135  11.046 -0.1049  0.2442 -0.0169
16498TIP3    H270986   4.333   3.243  10.950 -0.0261 -0.5025 -0.8320
16499TIP3   OH270987   0.358   3.719  14.807 -0.2561 -0.4764 -0.1830
16499TIP3    H170988   0.435   3.761  14.845 -1.0714  0.4511  0.4920
16499TIP3    H270989   0.379   3.626  14.807  0.0062 -0.4622  2.0378
16500TIP3   OH270990   2.377   0.746   5.562 -0.6983 -0.3225 -0.1196
16500TIP3    H170991   2.429   0.825   5.580 -4.1622  2.7172 -2.0141
16500TIP3    H270992   2.341   0.721   5.648 -1.2819  1.5852  0.2381
16501TIP3   OH270993   0.906   1.775   5.681 -0.8859  0.0497 -0.0609
16501TIP3    H170994   0.901   1.811   5.770 -0.0286  2.6153 -0.9378
16501TIP3    H270995   0.995   1.797   5.653 -1.4083  0.0016 -1.8158
16502TIP3   OH270996   1.858   0.405  16.365 -0.4344 -0.9958 -0.0195
16502TIP3    H170997   1.765   0.425  16.360 -0.0028  1.2079 -0.1515
16502TIP3    H270998   1.894   0.434  16.282  0.9317  1.9457  1.4337
16503TIP3   OH270999   5.421   0.636  13.828 -0.0982 -0.3469 -0.1246
16503TIP3    H171000   5.423   0.693  13.752 -0.1259  0.5899  0.5617
16503TIP3    H271001   5.376   0.557  13.798  0.2476 -0.1586 -1.1818
16504TIP3   OH271002   5.144   2.553  13.528  0.8050  0.0480  0.0599
16504TIP3    H171003   5.236   2.539  13.550  1.0657 -0.0967 -1.0428
16504TIP3    H271004   5.096   2.499  13.590  1.5543 -1.3182 -0.5083
16505TIP3   OH271005   1.966   4.155  13.208 -0.5193 -0.0707 -0.2240
16505TIP3    H171006   1.909   4.113  13.272 -1.0258  0.6279 -0.2182
16505TIP3    H271007   1.921   4.235  13.183 -0.8898 -0.8765 -2.3222
16506TIP3   OH271008   0.527   4.450   1.992 -0.1676  0.6633 -0.7441
16506TIP3    H171009   0.451   4.416   1.944  0.9604 -1.5449 -1.0653
16506TIP3    H271010   0.602   4.421   1.942  0.9455  2.9420 -0.5078
16507TIP3   OH271011   6.105   0.054   6.435  0.1154 -1.0562 -0.3699
16507TIP3    H171012   6.188   0.086   6.471 -0.9678  1.4166  0.1969
16507TIP3    H271013   6.053   0.031   6.512 -0.4208 -0.6217 -0.5918
16508TIP3   OH271014   5.671   4.876   4.992 -0.5173  0.1885  0.2717
16508TIP3    H171015   5.712   4.893   5.077 -2.0101 -0.6139  1.2016
16508TIP3    H271016   5.613   4.801   5.008  1.3171 -1.9157 -2.1528
16509TIP3   OH271017   1.746   4.378   1.910 -0.4601  0.3605  0.3713
16509TIP3    H171018   1.681   4.434   1.866 -0.1669  0.4561  0.0622
16509TIP3    H271019   1.694   4.324   1.969 -0.9678 -0.4533 -0.7844
16510TIP3   OH271020   1.750   0.561   3.907 -0.1934 -0.6891 -0.6343
16510TIP3    H171021   1.690   0.554   3.981  1.5266 -2.4646  0.7057
16510TIP3    H271022   1.718   0.497   3.844 -0.1288 -1.1215 -0.2337
16511TIP3   OH271023   2.401   3.622  15.313  0.1589 -0.5623  0.0784
16511TIP3    H171024   2.380   3.644  15.222  0.6396 -1.3402 -0.2335
16511TIP3    H271025   2.496   3.610  15.313  0.5669  2.1186  1.2933
16512TIP3   OH271026   5.108   3.292  12.444  0.0927 -0.5678  0.0982
16512TIP3    H171027   5.101   3.387  12.456  1.1292 -0.5122  0.4048
16512TIP3    H271028   5.055   3.254  12.513 -0.4371 -0.2105 -0.1099
16513TIP3   OH271029   5.882   6.717  11.009 -0.4702  0.0645  0.0944
16513TIP3    H171030   5.902   6.679  10.924 -0.1925  1.1541 -0.3429
16513TIP3    H271031   5.788   6.731  11.007 -0.3443  0.9121 -0.3982
16514TIP3   OH271032   4.588   2.843   2.719  0.8755  0.0795  0.3411
16514TIP3    H171033   4.577   2.923   2.667 -1.4436  1.0121  2.0810
16514TIP3    H271034   4.682   2.825   2.715  1.5487  3.0764  0.1370
16515TIP3   OH271035   6.255   0.710   3.117 -0.2264 -0.2205 -0.6484
16515TIP3    H171036   6.238   0.775   3.049 -0.2405  2.2895  1.5767
16515TIP3    H271037   6.347   0.722   3.139 -0.2134 -1.0157 -0.2644
16516TIP3   OH271038   4.378   1.439  12.996 -0.0599  0.2816 -0.2378
16516TIP3    H171039   4.468   1.419  12.973  0.3297  2.8111 -1.1384
16516TIP3    H271040   4.381   1.459  13.090  0.7736  2.5241 -0.7015
16517TIP3   OH271041   0.616   5.169  15.297  0.4214  0.4588 -0.5352
16517TIP3    H171042   0.583   5.242  15.245 -1.1216 -0.1025 -0.3721
16517TIP3    H271043   0.563   5.169  15.376 -0.6647 -1.7461 -1.1870
16518TIP3   OH271044   4.836   0.704  12.698 -0.1336  0.3031 -0.0562
16518TIP3    H171045   4.795   0.620  12.715  1.6652 -0.5035  0.4971
16518TIP3    H271046   4.814   0.758  12.774  0.4541 -0.3740  0.6065
16519TIP3   OH271047   5.402   2.313   3.091  0.0446  0.0779 -0.5185
16519TIP3    H171048   5.351   2.394   3.090  0.7933  0.5632 -0.4237
16519TIP3    H271049   5.487   2.338   3.055  0.2045 -0.7282 -0.7227
16520TIP3   OH271050   0.571   0.229  11.705  0.0942  0.2992 -0.1321
16520TIP3    H171051   0.481   0.262  11.706  0.0627  0.2226  0.6145
16520TIP3    H271052   0.615   0.279  11.775  0.7625  0.6805 -0.8104
16521TIP3   OH271053   1.716   0.378  11.404 -0.0460  0.1247  0.0781
16521TIP3    H171054   1.681   0.346  11.321 -0.7147 -3.1556  1.4547
16521TIP3    H271055   1.808   0.354  11.403  0.0053  0.3171  0.1667
16522TIP3   OH271056   6.133   2.025   2.048  0.1594  0.0224 -0.2723
16522TIP3    H171057   6.145   2.119   2.055  0.2547 -0.0019 -0.1046
16522TIP3    H271058   6.093   2.012   1.962 -0.0631  0.2329 -0.2012
16523TIP3   OH271059   6.524   3.711  12.137 -0.0303 -0.2770  0.3648
16523TIP3    H171060   6.609   3.679  12.168  0.4501 -0.5482 -1.1248
16523TIP3    H271061   6.491   3.766  12.207  1.2326 -0.4323  1.1009
16524TIP3   OH271062   6.502   6.115   2.163  0.2638  0.0046  0.6346
16524TIP3    H171063   6.493   6.179   2.234  0.3813  2.4652 -1.4298
16524TIP3    H271064   6.596   6.101   2.154  0.6931  3.4442 -1.9921
16525TIP3   OH271065   4.356   6.787   4.514  0.1490 -0.0217  0.1778
16525TIP3    H171066   4.394   6.701   4.533  2.1415  0.7087 -0.2164
16525TIP3    H271067   4.351   6.831   4.598  0.6340  0.0320  0.1828
16526TIP3   OH271068   2.810   4.522  13.957  0.0731  0.1147  0.1510
16526TIP3    H171069   2.905   4.528  13.966  0.0346 -0.3540  1.0143
16526TIP3    H271070   2.794   4.431  13.935 -0.2428 -0.1228  1.2793
16527TIP3   OH271071   4.323   0.284   5.008 -0.2806 -0.3717  0.0852
16527TIP3    H171072   4.261   0.348   4.971 -1.5189 -0.2669  2.1687
16527TIP3    H271073   4.324   0.213   4.944 -1.0129  0.5128 -0.9669
16528TIP3   OH271074   4.831   4.019   1.599 -0.1376 -0.5432 -0.0906
16528TIP3    H171075   4.866   3.955   1.661 -0.7130  0.3963  1.2623
16528TIP3    H271076   4.892   4.092   1.603 -1.8108  0.8831  1.8871
16529TIP3   OH271077   3.132   5.057   1.488 -0.0327  0.0220 -0.1254
16529TIP3    H171078   3.073   5.079   1.560 -1.0287  0.0096 -0.9025
16529TIP3    H271079   3.174   5.140   1.465  1.4473 -0.2582  1.4345
16530TIP3   OH271080   4.641   2.685  15.394  0.0450  0.0858  0.6466
16530TIP3    H171081   4.626   2.703  15.487 -0.9727  2.7698  0.0391
16530TIP3    H271082   4.590   2.605  15.378  0.3193 -0.4960  2.3869
16531TIP3   OH271083   3.176   0.546   3.262 -0.0783  0.2125  0.2302
16531TIP3    H171084   3.140   0.584   3.181 -1.3393  0.0036  0.6663
16531TIP3    H271085   3.166   0.452   3.249 -2.0838  0.2185  1.3808
16532TIP3   OH271086   2.090   3.039   3.174  0.1100 -0.4046 -0.3718
16532TIP3    H171087   2.065   3.030   3.266  0.0561  0.4722 -0.2975
16532TIP3    H271088   2.013   3.077   3.131 -0.3028 -1.8854 -1.0258
16533TIP3   OH271089   2.196   0.019  15.639 -0.5578  0.0751  0.1169
16533TIP3    H171090   2.275  -0.021  15.675  0.4486  1.4794 -0.4182
16533TIP3    H271091   2.158   0.068  15.712 -0.5953 -0.0936  0.2114
16534TIP3   OH271092   5.905   0.638   6.926 -0.5651  0.1730 -0.2163
16534TIP3    H171093   5.864   0.574   6.868 -1.1759  0.4462 -0.0990
16534TIP3    H271094   5.839   0.655   6.993 -0.2564  0.6274 -0.0220
16535TIP3   OH271095   0.205   6.095   5.748 -0.3432  0.3337 -0.2135
16535TIP3    H171096   0.114   6.119   5.767 -1.0789 -1.3809 -1.3495
16535TIP3    H271097   0.248   6.179   5.731 -1.6200  1.2088  0.6103
16536TIP3   OH271098   5.059   1.600   2.628  0.2229 -0.2673  0.4653
16536TIP3    H171099   5.149   1.579   2.604  0.7860  0.9404  1.4194
16536TIP3    H271100   5.038   1.541   2.700 -0.1174 -1.2155 -0.3789
16537TIP3   OH271101   3.176   4.468  15.900 -0.5397  0.1575  0.2526
16537TIP3    H171102   3.143   4.475  15.810  1.8287  0.6282 -0.6508
16537TIP3    H271103   3.167   4.375  15.921 -1.1781  0.0512 -0.4485
16538TIP3   OH271104   5.662   4.758   3.667 -0.2061  0.1891  0.7570
16538TIP3    H171105   5.714   4.695   3.618  0.7240  0.9432  0.7445
16538TIP3    H271106   5.666   4.726   3.758  0.7126  0.4901  0.8417
16539TIP3   OH271107   5.374   4.389  12.759 -0.4038 -0.2636  0.1956
16539TIP3    H171108   5.312   4.404  12.688 -1.8805 -0.5734  1.3410
16539TIP3    H271109   5.319   4.356  12.831  0.7842  1.3254  1.9308
16540TIP3   OH271110   3.713   4.712   2.468  0.0435 -0.1049 -0.4648
16540TIP3    H171111   3.672   4.711   2.381 -0.2692  1.3272 -0.3591
16540TIP3    H271112   3.803   4.739   2.451  0.1265 -0.3297 -0.3885
16541TIP3   OH271113   3.853   1.561  14.311 -0.6942 -0.5769  0.2681
16541TIP3    H171114   3.856   1.646  14.355 -0.0376 -0.7291  0.5303
16541TIP3    H271115   3.803   1.577  14.231  0.1332  0.2492 -0.0933
16542TIP3   OH271116   6.132   4.151   1.721  0.1913 -0.0472 -0.0190
16542TIP3    H171117   6.214   4.116   1.757  1.2083  2.9690  0.8509
16542TIP3    H271118   6.064   4.116   1.780  1.1272 -0.5258  0.8104
16543TIP3   OH271119   6.743   6.764   6.337 -0.9261 -0.3030 -0.1295
16543TIP3    H171120   6.801   6.840   6.337 -0.4361 -0.6284  1.8308
16543TIP3    H271121   6.676   6.784   6.402 -2.4315 -0.4184 -1.5599
16544TIP3   OH271122   2.026   0.454  12.053  0.5987 -0.0179  0.3949
16544TIP3    H171123   2.016   0.521  11.986  0.6479  1.9911  2.2688
16544TIP3    H271124   1.954   0.393  12.038 -1.1205  1.9507  0.2147
16545TIP3   OH271125   5.672   4.754   0.859  0.0005 -0.1408 -0.0549
16545TIP3    H171126   5.642   4.825   0.914  0.8443  2.2610 -2.4843
16545TIP3    H271127   5.764   4.742   0.882 -0.0860 -0.3254  0.2045
16546TIP3   OH271128   5.038   4.095  17.089  0.8080 -0.4470  0.9043
16546TIP3    H171129   5.131   4.094  17.113  1.2050 -1.7356 -0.5258
16546TIP3    H271130   5.033   4.157  17.017  0.4757 -0.0481  1.2720
16547TIP3   OH271131   6.591   6.780  12.957  0.4240 -0.5338 -1.2275
16547TIP3    H171132   6.558   6.814  12.874  0.3886 -0.6254 -1.2515
16547TIP3    H271133   6.606   6.857  13.011 -3.7587 -0.5372  0.3141
16548TIP3   OH271134   4.613   1.019  16.791  0.0782  0.4673  0.2067
16548TIP3    H171135   4.647   1.101  16.756  2.4092 -0.2071  0.7129
16548TIP3    H271136   4.549   0.990  16.727  1.5643  1.0973 -1.6500
16549TIP3   OH271137   5.656   3.690  15.279 -0.4483 -0.1103 -0.1218
16549TIP3    H171138   5.585   3.646  15.325 -1.1058  1.1932  0.1617
16549TIP3    H271139   5.671   3.770  15.330  1.8316 -0.7514  0.3353
16550TIP3   OH271140   4.958   1.854  16.706  0.4745 -0.5637 -0.2082
16550TIP3    H171141   4.946   1.811  16.791  1.6139 -0.0472  0.2353
16550TIP3    H271142   5.048   1.884  16.708 -0.0223  1.0423 -0.8834
16551TIP3   OH271143   5.719   2.229   0.876 -0.4638  0.5133 -0.5601
16551TIP3    H171144   5.784   2.297   0.896 -0.3851  1.1029 -2.5424
16551TIP3    H271145   5.635   2.270   0.895 -0.3314  0.2605  0.6278
16552TIP3   OH271146   5.890   5.796   4.288 -0.6513 -0.5337  0.1440
16552TIP3    H171147   5.805   5.799   4.331 -0.5209 -0.7281  0.4166
16552TIP3    H271148   5.876   5.842   4.205 -0.6950  0.5696  0.7462
16553TIP3   OH271149   2.051   1.700  15.208 -0.0800  0.2316  0.3078
16553TIP3    H171150   1.982   1.652  15.163 -0.4971 -0.9459  2.1121
16553TIP3    H271151   2.118   1.715  15.140 -0.8850 -0.9966 -0.8121
16554TIP3   OH271152   3.247   0.580   3.642 -0.6103 -0.6533  0.6084
16554TIP3    H171153   3.192   0.636   3.587  0.6203 -0.2733 -0.2549
16554TIP3    H271154   3.319   0.636   3.670  1.8042 -2.2252 -1.9463
16555TIP3   OH271155   1.534   3.416   4.080 -0.8435  0.4936 -0.2230
16555TIP3    H171156   1.534   3.483   4.148 -0.2699  1.2917 -0.9934
16555TIP3    H271157   1.558   3.335   4.127 -2.4990  0.5982  0.8928
16556TIP3   OH271158   4.928   1.576   1.491  0.4507 -0.3447  0.2038
16556TIP3    H171159   4.945   1.483   1.506 -0.8522 -0.7665 -0.7462
16556TIP3    H271160   4.836   1.580   1.466  0.7066  1.1074 -0.6379
16557TIP3   OH271161   2.668   5.410   3.326 -0.2081 -0.2207  0.6115
16557TIP3    H171162   2.583   5.369   3.342 -0.8579 -0.0674 -1.9672
16557TIP3    H271163   2.676   5.412   3.230  1.9297  1.3610  0.7437
16558TIP3   OH271164   6.657   0.823   2.591  0.8083  0.0407  0.3447
16558TIP3    H171165   6.565   0.835   2.614  0.9568  0.3266  0.7953
16558TIP3    H271166   6.676   0.897   2.532 -0.0290 -1.6057 -2.1391
16559TIP3   OH271167   3.180   4.442   3.557 -0.2524  0.1774  0.1410
16559TIP3    H171168   3.274   4.452   3.541  0.0222 -1.8121  0.3009
16559TIP3    H271169   3.160   4.506   3.625  1.3549 -0.5297  1.3414
16560TIP3   OH271170   3.348   1.547  15.747 -0.5638 -0.3749  0.1245
16560TIP3    H171171   3.353   1.591  15.832  3.2209  0.8065 -0.5061
16560TIP3    H271172   3.346   1.618  15.683 -0.4327 -1.1919 -0.8139
16561TIP3   OH271173   3.812   6.071   4.875 -0.0441 -0.1901  0.1281
16561TIP3    H171174   3.739   6.060   4.936 -1.5099  1.6545 -1.1675
16561TIP3    H271175   3.771   6.072   4.788  1.3182  2.0735 -0.5906
16562TIP3   OH271176   5.057   0.502  11.748 -0.2631 -0.2863  0.0974
16562TIP3    H171177   5.005   0.422  11.736 -0.7237 -0.5135  2.7566
16562TIP3    H271178   5.029   0.560  11.678 -3.7140 -0.6715  0.9480
16563TIP3   OH271179   0.027   1.312   2.202 -0.3185  0.1304  0.1965
16563TIP3    H171180  -0.026   1.233   2.194 -0.4587 -0.0430  2.3708
16563TIP3    H271181  -0.036   1.383   2.212 -0.1839  0.1596  0.9069
16564TIP3   OH271182   5.816   5.138  10.585  0.1636  0.2816  0.0873
16564TIP3    H171183   5.884   5.129  10.518 -1.9876 -1.2538 -2.0366
16564TIP3    H271184   5.735   5.112  10.542 -1.4869 -0.1585  3.1398
16565TIP3   OH271185   0.060   0.624  11.828 -0.3976 -0.2339  0.2660
16565TIP3    H171186   0.135   0.639  11.885  0.4929  0.4641 -1.0354
16565TIP3    H271187   0.086   0.549  11.774 -0.7992 -0.2383  0.0730
16566TIP3   OH271188   6.236   6.304  13.287  0.2655  0.6510  0.0102
16566TIP3    H171189   6.164   6.250  13.254  0.6414  1.2962 -1.9996
16566TIP3    H271190   6.301   6.242  13.319 -0.9985  0.0508  1.5333
16567TIP3   OH271191   1.527   0.047  11.378  0.0245 -0.2668  0.1482
16567TIP3    H171192   1.502   0.136  11.401  0.5325 -0.4370  1.4143
16567TIP3    H271193   1.573   0.056  11.295  1.1219  0.8221  0.8448
16568TIP3   OH271194   1.587   3.054   2.485 -0.2044  0.3437  0.2316
16568TIP3    H171195   1.520   3.040   2.418 -0.5913  3.8012 -0.2897
16568TIP3    H271196   1.556   3.004   2.561 -2.6795  0.7402 -0.4266
16569TIP3   OH271197   4.582   5.255   3.831 -0.0403 -0.0473  0.2885
16569TIP3    H171198   4.545   5.337   3.861 -0.8547  0.5667 -2.1439
16569TIP3    H271199   4.513   5.190   3.843 -0.1941  0.0978  0.1856
16570TIP3   OH271200   4.337   1.826   2.909 -0.8413 -0.1291 -0.1993
16570TIP3    H171201   4.291   1.904   2.938  0.9873  0.3524  1.6533
16570TIP3    H271202   4.290   1.753   2.949  0.1372  0.3774  2.0144
16571TIP3   OH271203   0.749   4.471   3.411 -0.6184  0.1017 -0.5919
16571TIP3    H171204   0.808   4.400   3.436  0.6772  1.7422  1.4280
16571TIP3    H271205   0.753   4.532   3.485 -1.2349  2.5204 -2.4122
16572TIP3   OH271206   2.279   2.198  17.224 -0.1752 -0.0809 -0.0988
16572TIP3    H171207   2.245   2.110  17.236  0.5497 -0.3701 -0.1446
16572TIP3    H271208   2.211   2.244  17.175 -0.0224 -0.9746 -1.1849
16573TIP3   OH271209   5.413   6.769  15.183  0.0285  0.0033  0.0240
16573TIP3    H171210   5.378   6.682  15.202  0.1024  0.0055  0.1730
16573TIP3    H271211   5.348   6.810  15.126 -0.4800  0.2158  0.7585
16574TIP3   OH271212   3.735   1.381  12.333  0.2395 -0.2521 -0.0981
16574TIP3    H171213   3.761   1.466  12.369  1.0438 -0.7242  0.4920
16574TIP3    H271214   3.710   1.329  12.410  2.5223 -1.4712 -0.0841
16575TIP3   OH271215   2.713   5.083  11.113 -0.0233 -0.4446 -0.3065
16575TIP3    H171216   2.757   5.066  11.197  1.3608  2.8173 -0.2165
16575TIP3    H271217   2.654   5.156  11.132 -0.3537 -0.2526 -1.9805
16576TIP3   OH271218   4.322   6.155  16.413  0.4745  0.2941  0.1915
16576TIP3    H171219   4.334   6.231  16.356  0.9104 -0.1240 -0.2786
16576TIP3    H271220   4.399   6.155  16.470  1.4013 -0.8280 -1.0179
16577TIP3   OH271221   0.625   6.067   2.516  0.3210  0.4222 -0.1523
16577TIP3    H171222   0.631   6.150   2.563  3.6629  0.5182 -0.5199
16577TIP3    H271223   0.647   6.089   2.426  0.3881 -0.7437 -0.4312
16578TIP3   OH271224   1.751   0.927   3.957  0.1571  0.6452  0.4859
16578TIP3    H171225   1.751   1.016   3.922 -1.6851  0.3322 -0.3944
16578TIP3    H271226   1.690   0.879   3.902  0.8900 -1.1205  1.1231
16579TIP3   OH271227   1.469   0.677   0.048  0.0048 -0.0039 -0.3922
16579TIP3    H171228   1.485   0.590   0.085 -0.2192  0.2589  0.3441
16579TIP3    H271229   1.444   0.660  -0.043 -0.4143 -0.7303 -0.1514
16580TIP3   OH271230   3.121   6.585  17.213 -0.5050  0.5724 -0.1015
16580TIP3    H171231   3.059   6.520  17.246  0.9451 -0.6439  0.3416
16580TIP3    H271232   3.146   6.552  17.127  0.0278  0.6729  0.0110
16581TIP3   OH271233   5.256   4.080  13.185 -0.1549 -0.7008 -0.1122
16581TIP3    H171234   5.194   4.142  13.224 -0.6091 -1.0926 -0.1949
16581TIP3    H271235   5.319   4.135  13.139 -1.2476 -0.3013 -1.2178
16582TIP3   OH271236   3.918   4.306   2.017 -1.0530 -0.7546 -0.2124
16582TIP3    H171237   3.903   4.245   2.089 -1.4987 -0.4561 -0.0461
16582TIP3    H271238   3.904   4.254   1.938  0.2818 -1.3072 -0.1148
16583TIP3   OH271239   2.519   3.755   1.271  0.0479  0.2108  0.1421
16583TIP3    H171240   2.464   3.680   1.294  0.6690 -0.4577 -0.4963
16583TIP3    H271241   2.457   3.827   1.260 -0.6768 -0.4579 -0.2902
16584TIP3   OH271242   0.578   3.197  13.805 -0.4975  0.0559 -0.6041
16584TIP3    H171243   0.606   3.116  13.849 -2.0398 -0.7556 -1.0202
16584TIP3    H271244   0.633   3.202  13.727 -0.1760 -0.4287 -0.4138
16585TIP3   OH271245   4.709   0.354  13.394 -0.2551 -0.0284 -0.0101
16585TIP3    H171246   4.762   0.277  13.371 -1.5302 -1.7387  2.3644
16585TIP3    H271247   4.692   0.397  13.310 -2.2775 -4.2060 -2.0481
16586TIP3   OH271248   0.487   2.502  17.125 -0.1091 -0.3401 -0.1987
16586TIP3    H171249   0.578   2.473  17.114  0.3542  0.2494  1.7141
16586TIP3    H271250   0.493   2.598  17.124 -0.9164 -0.2870 -1.3860
16587TIP3   OH271251   1.123   0.818   3.450  0.7001  0.1784 -0.8068
16587TIP3    H171252   1.030   0.839   3.449  1.0083  1.6936 -0.5637
16587TIP3    H271253   1.167   0.903   3.443  2.0651 -0.4163  0.0264
16588TIP3   OH271254   5.523   3.308   3.861 -0.1205 -0.3266 -0.1818
16588TIP3    H171255   5.511   3.220   3.823 -1.2501  0.2114 -1.1583
16588TIP3    H271256   5.513   3.367   3.786 -2.9529  0.8175  0.9687
16589TIP3   OH271257   5.663   5.236  13.914 -0.3254 -0.2897 -0.1363
16589TIP3    H171258   5.628   5.325  13.902 -1.5532 -0.6560  0.5835
16589TIP3    H271259   5.756   5.250  13.933 -0.6229  0.8932  0.5926
16590TIP3   OH271260   0.717   2.217  12.988  0.2801 -0.1710 -0.1247
16590TIP3    H171261   0.709   2.257  12.901  2.8791  0.6674 -0.0601
16590TIP3    H271262   0.738   2.125  12.970 -1.6993 -0.6123 -0.3176
16591TIP3   OH271263   2.763   0.459  11.204 -0.1635 -0.0842  0.3047
16591TIP3    H171264   2.681   0.502  11.179  0.5458  0.3496 -1.4089
16591TIP3    H271265   2.736   0.379  11.249 -1.5146  1.2936  2.1070
16592TIP3   OH271266   4.101   3.222   5.521 -0.2744  0.5251  0.1881
16592TIP3    H171267   4.018   3.191   5.483  1.1224 -0.7623 -2.0899
16592TIP3    H271268   4.147   3.142   5.547  0.5114  1.1748  0.8518
16593TIP3   OH271269   5.126   5.167  16.402 -0.0907 -0.2020 -0.5023
16593TIP3    H171270   5.189   5.196  16.336  0.3646 -1.0891 -0.4774
16593TIP3    H271271   5.078   5.095  16.360  0.8634 -1.4420  0.4173
16594TIP3   OH271272   5.179   3.767   1.901 -0.5281 -0.2621  0.1833
16594TIP3    H171273   5.213   3.706   1.966 -0.3915 -0.7755 -0.3627
16594TIP3    H271274   5.254   3.822   1.879 -1.1609  1.6135  2.3022
16595TIP3   OH271275   1.802   3.463  16.582 -0.0675  0.1436  0.4800
16595TIP3    H171276   1.835   3.494  16.498 -1.0271  0.4366  0.1948
16595TIP3    H271277   1.706   3.471  16.574 -0.1845 -0.1997  1.4506
16596TIP3   OH271278   0.005   1.258   6.775 -0.3358  0.3550  0.6190
16596TIP3    H171279   0.027   1.168   6.751 -0.2909  0.5711 -0.1543
16596TIP3    H271280  -0.084   1.252   6.811 -1.4105  0.3610 -1.8615
16597TIP3   OH271281   3.836   5.482   3.672  0.0706 -0.1419  0.7366
16597TIP3    H171282   3.856   5.456   3.762 -0.4281 -0.9531  0.6211
16597TIP3    H271283   3.921   5.506   3.635  0.3779 -0.4724  1.2157
16598TIP3   OH271284   1.245   6.332  14.121  0.0595  0.7816  0.8730
16598TIP3    H171285   1.205   6.247  14.138  0.7056  0.7525  2.4781
16598TIP3    H271286   1.284   6.324  14.034 -0.2762 -0.4088  0.8202
16599TIP3   OH271287   1.945   4.962  14.512 -0.9008 -0.1100 -0.0646
16599TIP3    H171288   1.996   5.003  14.442 -1.1380 -1.2153 -0.9181
16599TIP3    H271289   1.882   5.029  14.538  0.2891  0.9189  0.2879
16600TIP3   OH271290   4.322   0.575  14.339  0.3810 -0.3865  0.0869
16600TIP3    H171291   4.307   0.646  14.401  1.3242 -2.0197  2.3516
16600TIP3    H271292   4.393   0.606  14.283  0.8046  0.4567  1.0659
16601TIP3   OH271293   6.701   6.696   5.512  0.0794  0.1460 -0.2083
16601TIP3    H171294   6.652   6.700   5.595  0.3330  1.5302 -0.0957
16601TIP3    H271295   6.634   6.707   5.445 -0.2930 -2.1595 -0.2879
16602TIP3   OH271296   1.705   0.138  16.770 -0.0823 -0.5127  0.2795
16602TIP3    H171297   1.613   0.122  16.749  0.4970 -2.0488 -1.3542
16602TIP3    H271298   1.708   0.229  16.800 -2.0907 -0.3925  0.2426
16603TIP3   OH271299   0.237   6.618   5.955  0.3721 -0.5273  0.1574
16603TIP3    H171300   0.294   6.542   5.960  1.0114 -0.1253 -0.6344
16603TIP3    H271301   0.180   6.611   6.031  0.9049 -1.4023  0.4914
16604TIP3   OH271302   6.487   2.245   5.696  0.2654  0.1083 -0.4532
16604TIP3    H171303   6.561   2.230   5.638  0.6568  2.7371 -0.7513
16604TIP3    H271304   6.507   2.193   5.774  1.5249 -0.6287 -1.2349
16605TIP3   OH271305   6.121   1.425   0.546  0.4767  0.2549 -0.4977
16605TIP3    H171306   6.174   1.431   0.467 -0.9013 -0.3266 -1.4978
16605TIP3    H271307   6.098   1.515   0.567  1.2553  0.4545 -0.4467
16606TIP3   OH271308   1.875   5.651  13.889 -0.1005 -0.4297 -0.2515
16606TIP3    H171309   1.894   5.562  13.857  1.1196 -0.3188  0.0931
16606TIP3    H271310   1.781   5.651  13.908  0.2472 -2.3844  1.9477
16607TIP3   OH271311   3.901   2.696   3.046 -0.1557 -0.1546  0.0226
16607TIP3    H171312   3.935   2.607   3.056  2.0304  0.6872  0.4581
16607TIP3    H271313   3.863   2.697   2.958 -1.1542 -1.7833  0.3923
16608TIP3   OH271314   0.674   5.665  12.534 -0.2306  0.7679 -0.7478
16608TIP3    H171315   0.656   5.600  12.467  3.3399  1.0500 -2.2087
16608TIP3    H271316   0.666   5.618  12.617 -2.0256 -0.3060 -1.4878
16609TIP3   OH271317   6.015   0.167   0.399  0.0400 -0.1181 -0.4470
16609TIP3    H171318   6.110   0.156   0.399  0.4962  2.0831  3.3309
16609TIP3    H271319   6.001   0.257   0.369 -0.7621 -0.0882 -0.0013
16610TIP3   OH271320   0.882   0.751  13.842  0.2568 -0.2359  0.6801
16610TIP3    H171321   0.896   0.844  13.858  1.2803 -0.4413  1.0241
16610TIP3    H271322   0.801   0.748  13.790  1.4504  1.0227 -1.3982
16611TIP3   OH271323   6.556   3.200  12.197  0.0226 -0.2226  0.8078
16611TIP3    H171324   6.613   3.258  12.248 -0.1371  0.4089  0.2797
16611TIP3    H271325   6.514   3.145  12.263  1.4289 -0.8808  1.1881
16612TIP3   OH271326   2.616   0.042  12.897 -0.9201 -0.1245 -0.6145
16612TIP3    H171327   2.552   0.097  12.942 -1.2947 -0.0534 -1.2231
16612TIP3    H271328   2.563  -0.014  12.840 -0.4794 -0.5147 -0.6461
16613TIP3   OH271329   5.938   4.330   3.443 -0.6428 -0.0690 -0.7361
16613TIP3    H171330   6.004   4.298   3.504 -2.2825 -1.4151  0.4218
16613TIP3    H271331   5.899   4.251   3.405 -1.0440  0.7069 -2.0186
16614TIP3   OH271332   6.237   3.187  14.354 -0.1361 -0.2715  0.2470
16614TIP3    H171333   6.144   3.170  14.346 -0.1055 -0.7595  0.8597
16614TIP3    H271334   6.242   3.260  14.417 -0.1874  1.0282 -1.1996
16615TIP3   OH271335   1.147   1.109  16.191 -0.7216 -0.2341  0.3712
16615TIP3    H171336   1.235   1.142  16.209  0.5556 -1.7682 -2.4137
16615TIP3    H271337   1.154   1.014  16.206 -1.7581 -0.4277 -0.3033
16616TIP3   OH271338   3.801   6.231   4.467 -0.5084 -0.3188 -0.4854
16616TIP3    H171339   3.874   6.188   4.422  0.4573  1.2110 -0.4478
16616TIP3    H271340   3.778   6.170   4.537  1.6414 -0.2566  0.3555
16617TIP3   OH271341   4.100   4.704  13.052  0.2685  0.1683  0.2529
16617TIP3    H171342   4.066   4.670  12.970  2.6597  1.4113 -1.3480
16617TIP3    H271343   4.187   4.665  13.061  0.2890  0.5015  1.9225
16618TIP3   OH271344   3.881   5.049  15.001  0.6419  0.1220  0.0245
16618TIP3    H171345   3.797   5.096  15.009  0.3660  0.0951 -2.1252
16618TIP3    H271346   3.882   4.989  15.076 -1.9274 -0.8719 -0.6285
16619TIP3   OH271347   6.263   0.524  12.520 -0.2644 -0.0988 -0.5521
16619TIP3    H171348   6.259   0.476  12.438  0.0164  0.1529 -0.7156
16619TIP3    H271349   6.274   0.457  12.587 -2.4220 -0.4897 -0.5003
16620TIP3   OH271350   6.373   5.740   1.298 -0.2270 -0.2416 -0.3800
16620TIP3    H171351   6.401   5.790   1.222  1.3844  0.2814  0.5001
16620TIP3    H271352   6.433   5.666   1.302 -0.4443 -0.3942  0.2272
16621TIP3   OH271353   3.701   1.254  14.407  0.0093 -0.1643  0.6621
16621TIP3    H171354   3.768   1.187  14.392  0.0133 -0.0856  0.3130
16621TIP3    H271355   3.746   1.337  14.387 -0.0518 -0.0734  0.9000
16622TIP3   OH271356   3.103   6.403  15.850  0.2414  0.2628 -0.8011
16622TIP3    H171357   3.171   6.341  15.877 -0.3598 -1.4456 -2.9381
16622TIP3    H271358   3.149   6.486  15.842  1.3158 -0.0833  1.0615
16623TIP3   OH271359   4.970   4.859   4.823 -0.2702  0.4920 -0.1292
16623TIP3    H171360   4.902   4.865   4.891 -0.7553  0.2133 -0.5878
16623TIP3    H271361   4.935   4.798   4.758  0.6360 -0.0645 -0.1268
16624TIP3   OH271362   3.084   1.692  16.521 -0.3458  0.0437 -0.0886
16624TIP3    H171363   3.159   1.735  16.562 -1.3434  2.2547 -0.4172
16624TIP3    H271364   3.123   1.624  16.466  1.3727  0.6534  0.3041
16625TIP3   OH271365   2.618   5.395   4.928 -0.5385  0.4583 -0.0060
16625TIP3    H171366   2.576   5.387   5.014 -0.7327  0.6889 -0.0802
16625TIP3    H271367   2.642   5.487   4.921  1.1640  0.0979  0.5907
16626TIP3   OH271368   4.700   0.634  11.699  0.4937  0.1480  0.0112
16626TIP3    H171369   4.772   0.612  11.639 -0.8883 -0.6457 -1.4237
16626TIP3    H271370   4.697   0.729  11.699  0.3822  0.1710 -1.3949
16627TIP3   OH271371   6.776   5.952   0.508  0.6617  0.3429 -0.2213
16627TIP3    H171372   6.710   5.978   0.444 -1.5882 -1.6335  1.1123
16627TIP3    H271373   6.772   6.019   0.576 -0.7683 -0.2548  0.3231
16628TIP3   OH271374   6.334   0.916   5.493 -0.1023  0.4121 -0.2795
16628TIP3    H171375   6.260   0.938   5.437 -0.0770  0.8328 -0.1512
16628TIP3    H271376   6.299   0.920   5.582 -0.5434 -1.7852 -0.3143
16629TIP3   OH271377   2.423   3.961   0.702 -0.2131  0.1160 -0.1554
16629TIP3    H171378   2.456   3.886   0.651  1.7678 -0.4048  1.7420
16629TIP3    H271379   2.457   3.946   0.790 -3.2389  1.1461  1.3135
16630TIP3   OH271380   2.787   2.539   1.449  0.0705 -0.1111  0.8491
16630TIP3    H171381   2.767   2.506   1.537 -2.2633 -0.8290  0.1299
16630TIP3    H271382   2.709   2.519   1.398  1.7912 -0.7509 -1.7170
16631TIP3   OH271383   1.480   4.438   5.454  0.0418 -0.0256  0.3416
16631TIP3    H171384   1.426   4.444   5.533  0.9308  2.8813  0.8519
16631TIP3    H271385   1.439   4.369   5.402 -1.6889 -0.7321  2.4903
16632TIP3   OH271386   6.178   5.213  13.593 -0.2571 -0.4886 -0.1155
16632TIP3    H171387   6.103   5.219  13.533 -0.8367 -2.8609  0.2693
16632TIP3    H271388   6.176   5.123  13.626  2.3923 -0.4463  0.4313
16633TIP3   OH271389   2.663   3.223  11.281  0.5541  0.4556 -0.0993
16633TIP3    H171390   2.716   3.192  11.354  0.9671 -1.7285 -1.2584
16633TIP3    H271391   2.725   3.267  11.223  0.4244  1.1323  0.2553
16634TIP3   OH271392   6.463   6.475  11.938 -0.1302  0.3416 -0.5558
16634TIP3    H171393   6.391   6.411  11.937  1.6212 -1.9767  2.4469
16634TIP3    H271394   6.525   6.444  11.872  1.1328 -1.8442  1.4871
16635TIP3   OH271395   3.031   5.344  12.066 -0.0518  0.0535 -0.1267
16635TIP3    H171396   2.960   5.295  12.023  0.1650 -0.0264 -0.3945
16635TIP3    H271397   3.092   5.276  12.095  0.3619  0.1775 -0.6988
16636TIP3   OH271398   0.636   0.576  12.906 -0.2092  0.3557 -0.3592
16636TIP3    H171399   0.710   0.544  12.958  1.0993 -0.5682 -2.6537
16636TIP3    H271400   0.618   0.506  12.844 -2.7923  0.7336 -0.1579
16637TIP3   OH271401   2.957   0.001   2.412 -0.4609 -0.8729 -0.6062
16637TIP3    H171402   2.907   0.001   2.330  0.2901 -0.5520 -1.0700
16637TIP3    H271403   2.991   0.090   2.419 -3.5758  0.3372  1.9788
16638TIP3   OH271404   1.784   0.199   5.662 -0.3171 -0.1395 -0.5173
16638TIP3    H171405   1.768   0.120   5.713 -0.5947  0.2836  0.0577
16638TIP3    H271406   1.828   0.258   5.723 -2.1033  0.9789 -0.2469
16639TIP3   OH271407   4.358   3.306  11.729 -0.2568 -0.0170 -0.2041
16639TIP3    H171408   4.422   3.343  11.791  0.4446  0.0123 -0.9251
16639TIP3    H271409   4.284   3.367  11.732  0.0459  0.3421  0.1163
16640TIP3   OH271410   3.213   1.523  13.644 -0.6947 -0.1305  0.5550
16640TIP3    H171411   3.135   1.527  13.589 -1.2235 -0.4785  1.2693
16640TIP3    H271412   3.228   1.430  13.659 -1.3157 -0.0196  2.0353
16641TIP3   OH271413   3.201   0.037  11.892  0.6199  0.3688  0.0019
16641TIP3    H171414   3.168   0.071  11.976 -1.8894 -0.0981 -0.7227
16641TIP3    H271415   3.176  -0.055  11.892  2.8171 -0.2776 -0.2491
16642TIP3   OH271416   4.981   3.988  12.322  0.3438  0.8053  0.4912
16642TIP3    H171417   5.062   3.971  12.273  1.6179  1.2040  2.3316
16642TIP3    H271418   4.956   3.903  12.357 -0.1009  0.6650 -0.1567
16643TIP3   OH271419   5.588   5.658  11.967 -0.6133 -0.0839  0.1833
16643TIP3    H171420   5.519   5.673  11.902 -1.0139 -0.3810  0.5351
16643TIP3    H271421   5.599   5.742  12.010  0.9790  0.6338 -1.5256
16644TIP3   OH271422   3.729   6.072   5.939 -0.4097  0.1584 -0.1957
16644TIP3    H171423   3.644   6.076   5.983 -0.8628  0.4770 -1.0868
16644TIP3    H271424   3.756   5.980   5.949 -0.7029  0.1225  0.3516
16645TIP3   OH271425   4.495   4.203  11.576 -0.0000  0.5869 -0.4047
16645TIP3    H171426   4.510   4.214  11.482 -0.9331  1.0293 -0.5112
16645TIP3    H271427   4.582   4.188  11.612  0.2600 -0.8350 -1.4996
16646TIP3   OH271428   1.930   1.023   1.648  0.0573  0.4909 -0.0997
16646TIP3    H171429   1.879   1.099   1.676 -0.2642 -0.5020  2.2245
16646TIP3    H271430   1.983   1.000   1.725  1.4660 -0.5868 -1.3350
16647TIP3   OH271431   3.653   4.249   0.871  0.3647  0.4053  0.4318
16647TIP3    H171432   3.615   4.248   0.783 -0.7543  0.3343  0.8875
16647TIP3    H271433   3.717   4.320   0.869 -0.5057  1.2122 -0.1232
16648TIP3   OH271434   1.838   1.952   4.618 -0.7044  0.2058  0.0534
16648TIP3    H171435   1.806   1.916   4.535  0.1072 -0.6751  0.1136
16648TIP3    H271436   1.927   1.919   4.626 -0.1390  1.7400  0.4205
16649TIP3   OH271437   5.473   4.161   5.888 -0.0856 -0.0397  0.2770
16649TIP3    H171438   5.482   4.244   5.841 -1.0211  0.3560  0.7801
16649TIP3    H271439   5.538   4.104   5.848  0.9556  1.0958  0.2759
16650TIP3   OH271440   6.062   5.187   0.901 -0.4096 -0.2169  0.1058
16650TIP3    H171441   6.071   5.148   0.814 -1.0271 -0.9135  0.3468
16650TIP3    H271442   5.972   5.168   0.927 -0.3178  0.2292  0.7893
16651TIP3   OH271443   4.159   2.245  11.024  0.0725 -0.2042  0.5765
16651TIP3    H171444   4.254   2.234  11.013 -0.1060 -0.3168 -0.9768
16651TIP3    H271445   4.141   2.334  10.993 -0.3761 -0.2931  0.5723
16652TIP3   OH271446   6.363   3.940  12.834  0.3152 -0.3338  0.6417
16652TIP3    H171447   6.278   3.939  12.790  0.8025 -2.0800 -0.3603
16652TIP3    H271448   6.370   3.854  12.875  0.8690  0.4284  2.2525
16653TIP3   OH271449   0.183   3.447  16.111  0.0192  0.1014  0.0492
16653TIP3    H171450   0.131   3.501  16.051 -1.9885 -0.8117  0.8787
16653TIP3    H271451   0.245   3.402  16.055  0.1192  1.4437 -0.9571
16654TIP3   OH271452   0.059   3.939  16.152 -0.2290  0.8359 -0.1037
16654TIP3    H171453   0.042   4.031  16.173  1.1558  1.8996 -3.1124
16654TIP3    H271454   0.153   3.929  16.165 -0.1990  0.1569 -0.7872
16655TIP3   OH271455   6.475   4.052   2.595  0.1102  0.3176 -0.5541
16655TIP3    H171456   6.528   4.131   2.590  2.6927 -1.2550  0.0853
16655TIP3    H271457   6.511   3.995   2.526  0.9809 -1.7145  1.4450
16656TIP3   OH271458   1.766   2.829  11.594 -0.1427 -0.0256  0.1838
16656TIP3    H171459   1.694   2.818  11.532 -1.3384 -1.1704  1.6769
16656TIP3    H271460   1.842   2.793  11.548 -0.7717  0.1012 -0.9964
16657TIP3   OH271461   2.792   3.192  15.749 -0.0560 -0.4435  0.3559
16657TIP3    H171462   2.802   3.106  15.790 -0.0894  0.9376  3.5761
16657TIP3    H271463   2.851   3.248  15.799 -4.8033  2.7827  3.2172
16658TIP3   OH271464   4.021   1.946   6.148  0.1582  0.3384  0.3546
16658TIP3    H171465   4.098   1.946   6.205 -0.6915  1.7698  1.5532
16658TIP3    H271466   3.947   1.957   6.207 -0.9702 -0.6172 -0.8236
16659TIP3   OH271467   0.951   2.686   2.546  0.2317  0.3045  0.1505
16659TIP3    H171468   0.939   2.616   2.610 -0.1337 -1.3070 -1.5675
16659TIP3    H271469   1.030   2.732   2.575 -0.1358 -0.1077  1.9259
16660TIP3   OH271470   6.695   5.915   5.097 -0.7337  0.0033  0.0933
16660TIP3    H171471   6.790   5.903   5.086 -0.6952  0.8235 -0.5803
16660TIP3    H271472   6.677   5.887   5.187  0.0005 -1.0090 -0.0589
16661TIP3   OH271473   5.712   1.099  10.954 -0.0699  0.6557  0.2072
16661TIP3    H171474   5.749   1.178  10.992  0.7443  0.2816  0.1949
16661TIP3    H271475   5.741   1.028  11.011  0.0343  0.2515 -0.3354
16662TIP3   OH271476   5.477   5.637   0.612 -0.1783  0.1222 -0.1738
16662TIP3    H171477   5.491   5.628   0.518  0.4442 -1.3252  0.0361
16662TIP3    H271478   5.400   5.694   0.619 -1.8535 -1.8169 -1.6177
16663TIP3   OH271479   4.070   2.148   1.782 -0.0849  0.0100 -0.0376
16663TIP3    H171480   4.084   2.236   1.748  1.2594 -0.0033  0.4209
16663TIP3    H271481   4.031   2.162   1.868  0.3834  0.1839  0.1540
16664TIP3   OH271482   6.155   4.896  13.336  0.1612 -0.0763 -0.3385
16664TIP3    H171483   6.071   4.872  13.298  0.0189  0.5946 -0.4534
16664TIP3    H271484   6.165   4.989  13.316  0.9154 -0.1427 -0.3000
16665TIP3   OH271485   0.058   1.589   6.265  0.2310 -0.4158 -0.4497
16665TIP3    H171486  -0.000   1.521   6.232  0.8891 -0.6122 -1.2269
16665TIP3    H271487   0.062   1.574   6.360  0.0159 -1.1799 -0.5603
16666TIP3   OH271488   2.036   6.481   4.697  0.0177  0.3514 -0.1548
16666TIP3    H171489   2.124   6.443   4.697 -0.3394 -0.4941  0.5676
16666TIP3    H271490   2.052   6.575   4.691  1.1289  0.4821  2.9556
16667TIP3   OH271491   2.621   3.942   1.671 -0.5740 -0.3780 -0.1053
16667TIP3    H171492   2.548   3.960   1.611 -1.7059 -2.6628  0.4928
16667TIP3    H271493   2.582   3.891   1.742  0.4162  3.2735  3.4177
16668TIP3   OH271494   6.766   2.738   3.788 -0.7169 -0.1751 -0.0028
16668TIP3    H171495   6.839   2.696   3.743 -1.0328  0.4430 -1.1421
16668TIP3    H271496   6.750   2.684   3.865 -0.7588 -1.8280 -1.1236
16669TIP3   OH271497   5.109   1.105  14.242  0.3003 -0.7355  0.1800
16669TIP3    H171498   5.023   1.068  14.222  0.3171 -2.0059  2.1752
16669TIP3    H271499   5.112   1.186  14.192 -2.1297 -0.5594  0.1828
16670TIP3   OH271500   2.950   2.021   3.496 -0.1281 -0.8798 -0.0356
16670TIP3    H171501   2.951   1.933   3.534  0.6932  0.5645  3.7509
16670TIP3    H271502   2.920   2.077   3.567  0.1831  2.0487 -2.0430
16671TIP3   OH271503   1.254   3.169   5.973 -0.2355 -0.0752 -0.1265
16671TIP3    H171504   1.333   3.212   5.938 -0.9596  1.2425 -0.1983
16671TIP3    H271505   1.287   3.090   6.015  0.8870 -0.7766 -2.1829
16672TIP3   OH271506   4.594   5.428  12.102 -0.3376  0.2618  0.6570
16672TIP3    H171507   4.594   5.523  12.112 -1.0214  0.5371 -1.3355
16672TIP3    H271508   4.633   5.413  12.016 -1.0178 -1.1981  0.5597
16673TIP3   OH271509   4.740   3.442  16.913 -0.8199  0.0302  0.7394
16673TIP3    H171510   4.758   3.354  16.945  0.8694  0.3583  0.7746
16673TIP3    H271511   4.657   3.434  16.866  0.5066 -2.1331 -1.4355
16674TIP3   OH271512   3.384   4.831  15.366 -0.2526 -0.7401  0.2711
16674TIP3    H171513   3.422   4.749  15.334  0.0732 -0.1309 -0.9275
16674TIP3    H271514   3.446   4.863  15.430  0.8423 -0.2133 -1.0165
16675TIP3   OH271515   0.263   3.583   1.872  0.3162 -0.5418  0.0314
16675TIP3    H171516   0.210   3.613   1.946  1.6465 -0.1171  0.8489
16675TIP3    H271517   0.345   3.632   1.879  1.6073 -2.5404 -0.0212
16676TIP3   OH271518   6.316   5.061   2.046  0.3932 -0.4380 -0.2384
16676TIP3    H171519   6.344   5.132   2.104  2.3963 -1.4793  0.1441
16676TIP3    H271520   6.340   5.091   1.958 -2.3100  0.9786 -0.6035
16677TIP3   OH271521   6.413   2.630  16.317 -0.3136 -0.3185  0.3938
16677TIP3    H171522   6.473   2.558  16.336  0.0770 -0.0925  0.0315
16677TIP3    H271523   6.334   2.608  16.366  0.0217 -0.6744  0.7875
16678TIP3   OH271524   6.049   1.428  13.466  0.6107  0.0170 -0.3812
16678TIP3    H171525   6.019   1.343  13.434 -0.3955 -0.3951  1.4951
16678TIP3    H271526   5.973   1.464  13.512  0.0996  3.2064 -3.3918
16679TIP3   OH271527   4.046   4.846   4.696  0.5824 -0.4459 -0.7605
16679TIP3    H171528   4.096   4.765   4.698 -2.8602 -2.7464  0.5172
16679TIP3    H271529   4.006   4.847   4.608  0.0764 -0.5080 -0.5332
16680TIP3   OH271530   3.649   2.478  15.869 -0.5314 -0.1747 -0.2947
16680TIP3    H171531   3.701   2.416  15.920 -0.8904  0.4587  0.8782
16680TIP3    H271532   3.586   2.424  15.822 -1.2810 -0.6773  1.2352
16681TIP3   OH271533   4.257   1.827  17.229 -0.0602 -0.3472 -0.1045
16681TIP3    H171534   4.200   1.853  17.301 -0.5003 -0.8054 -0.2798
16681TIP3    H271535   4.213   1.860  17.151  1.4827  2.0711 -0.0630
16682TIP3   OH271536   1.665   3.233   1.405 -0.1332  0.4707  0.7200
16682TIP3    H171537   1.718   3.190   1.339 -2.4246 -0.6903 -0.4661
16682TIP3    H271538   1.659   3.324   1.375 -0.2326  0.2131 -0.0456
16683TIP3   OH271539   6.485   5.573   0.995  0.6746  0.5545  0.2409
16683TIP3    H171540   6.513   5.663   1.012 -0.2607  1.1094 -0.9450
16683TIP3    H271541   6.501   5.526   1.077 -0.7260  2.2941  1.5796
16684TIP3   OH271542   0.851   5.939  16.565 -0.2340 -0.4964  0.1840
16684TIP3    H171543   0.826   6.021  16.522 -0.7840 -0.4720  0.5332
16684TIP3    H271544   0.935   5.959  16.607 -0.6256  0.0609  0.7272
16685TIP3   OH271545   1.205   2.699   1.707 -0.1606 -0.5014 -0.0847
16685TIP3    H171546   1.188   2.751   1.628  0.9307  0.4370  0.2707
16685TIP3    H271547   1.225   2.764   1.774  1.0528 -1.3718  0.4231
16686TIP3   OH271548   1.560   2.318  16.063  0.0984 -0.4139  0.2531
16686TIP3    H171549   1.550   2.391  16.124  0.3833  0.6189 -0.9031
16686TIP3    H271550   1.652   2.293  16.071 -0.1299 -1.0339  1.0584
16687TIP3   OH271551   6.431   0.466  13.329  0.0079  0.4681  0.1831
16687TIP3    H171552   6.434   0.522  13.252  0.2863  0.5561  0.2572
16687TIP3    H271553   6.522   0.463  13.360  0.0471 -0.2502  0.0125
16688TIP3   OH271554   2.028   6.597  11.185  0.1357 -0.1718 -0.5738
16688TIP3    H171555   2.046   6.624  11.275  0.7065  0.0964 -0.7620
16688TIP3    H271556   2.050   6.504  11.182 -1.5125 -0.6076 -0.0091
16689TIP3   OH271557   0.396   4.690  13.321 -0.1286  0.5339  1.0968
16689TIP3    H171558   0.464   4.755  13.335  0.0883  0.2549  1.3601
16689TIP3    H271559   0.375   4.697  13.228 -0.5305  1.3822  1.2474
16690TIP3   OH271560   3.521   4.648   5.918  0.2363  0.0061 -0.5037
16690TIP3    H171561   3.523   4.735   5.957  1.2004  0.7646 -2.1421
16690TIP3    H271562   3.428   4.631   5.904  0.0677  1.1936 -0.9966
16691TIP3   OH271563   2.310   4.723  11.313  0.1308  0.7789 -0.1198
16691TIP3    H171564   2.384   4.753  11.366  1.2212  1.5747 -1.9728
16691TIP3    H271565   2.300   4.791  11.247 -1.4050  0.0053 -0.7221
16692TIP3   OH271566   4.839   6.098   4.238 -0.1714 -0.5231 -0.3421
16692TIP3    H171567   4.755   6.063   4.265 -0.4962  0.3182 -0.2436
16692TIP3    H271568   4.902   6.030   4.263 -0.6050 -0.3488  1.3119
16693TIP3   OH271569   1.430   4.360  17.211  0.3713  0.0454  0.1858
16693TIP3    H171570   1.365   4.346  17.141  1.2169  2.6376 -1.2546
16693TIP3    H271571   1.498   4.414  17.170  3.5068 -2.5039  1.6322
16694TIP3   OH271572   4.036   6.118  11.975 -0.6633  0.1653 -0.8258
16694TIP3    H171573   4.037   6.207  11.941  1.2915  2.1157  3.5266
16694TIP3    H271574   3.960   6.115  12.032 -0.3245 -0.7129 -0.4084
16695TIP3   OH271575   1.128   3.908  13.375  0.0202  0.3885 -0.1079
16695TIP3    H171576   1.157   3.821  13.402 -0.5502 -0.2099 -1.3577
16695TIP3    H271577   1.033   3.906  13.386  0.1699  1.7054  2.1603
16696TIP3   OH271578   5.278   5.460   0.110 -0.5331 -0.6895  0.1583
16696TIP3    H171579   5.335   5.452   0.033 -1.3854 -1.1279 -0.4364
16696TIP3    H271580   5.199   5.503   0.078 -0.1353  0.9246  1.2032
16697TIP3   OH271581   6.315   5.619  11.846  0.4476  0.3813 -0.5486
16697TIP3    H171582   6.273   5.591  11.765 -0.3383  0.1445 -0.0673
16697TIP3    H271583   6.403   5.582  11.840  0.6185  0.9132 -1.5794
16698TIP3   OH271584   4.849   6.486   0.088  0.5388  0.3583  0.1526
16698TIP3    H171585   4.772   6.429   0.090  0.8436 -0.1267 -0.9406
16698TIP3    H271586   4.841   6.534   0.006  1.2589  0.4879  0.1463
16699TIP3   OH271587   0.167   3.618   4.264  0.6150 -0.0692 -0.3268
16699TIP3    H171588   0.131   3.703   4.289  2.2633  0.4158  0.5491
16699TIP3    H271589   0.197   3.580   4.347 -0.9658 -1.9717 -0.5568
16700TIP3   OH271590   5.060   0.388   1.143 -0.0704  0.4148 -0.3745
16700TIP3    H171591   4.978   0.339   1.140  0.7906 -1.2965  1.2052
16700TIP3    H271592   5.097   0.379   1.055 -1.5026  1.1609 -1.0878
16701TIP3   OH271593   4.386   0.920   4.177  0.1191  0.4935 -0.0916
16701TIP3    H171594   4.425   0.974   4.246  0.7798 -0.6089  0.4233
16701TIP3    H271595   4.326   0.980   4.132 -0.1595  1.3094  1.2793
16702TIP3   OH271596   2.535   2.784   2.491  0.6374 -0.2246  0.2415
16702TIP3    H171597   2.462   2.812   2.545  0.3252  0.6761 -0.6072
16702TIP3    H271598   2.557   2.696   2.522  1.0330  0.5707  2.3722
16703TIP3   OH271599   1.337   4.728  13.797  0.0455 -0.5279 -0.6447
16703TIP3    H171600   1.320   4.666  13.867 -1.3171  0.9362  0.4054
16703TIP3    H271601   1.429   4.714  13.774  0.8483 -0.3962  2.1318
16704TIP3   OH271602   5.557   3.010  13.576  0.5758 -0.1562  0.2639
16704TIP3    H171603   5.511   2.951  13.516 -1.8853  1.9823 -0.1175
16704TIP3    H271604   5.599   3.074  13.520 -0.4698  0.9675  0.7230
16705TIP3   OH271605   4.719   1.929  13.636 -0.5063 -0.1496  0.2980
16705TIP3    H171606   4.707   1.989  13.562 -0.3046 -1.9616 -1.2963
16705TIP3    H271607   4.791   1.967  13.686  0.3789  0.3795 -1.2898
16706TIP3   OH271608   0.293   4.688  16.735 -0.1203  0.0418 -0.3624
16706TIP3    H171609   0.268   4.608  16.781  1.2196  0.1970  0.6671
16706TIP3    H271610   0.306   4.753  16.804 -0.3696  0.9367 -1.1340
16707TIP3   OH271611   4.633   3.062   4.350 -0.3657  0.3035  0.5494
16707TIP3    H171612   4.629   3.004   4.426 -1.5368  1.4631  1.4035
16707TIP3    H271613   4.664   3.145   4.385  2.8143 -0.0952 -0.8972
16708TIP3   OH271614   4.463   2.260  15.804  0.2557 -0.2604  0.5257
16708TIP3    H171615   4.464   2.279  15.710  0.3182 -0.4520  0.4870
16708TIP3    H271616   4.505   2.336  15.845 -0.3824  0.1326  0.4572
16709TIP3   OH271617   5.014   6.768   3.232  0.5189 -0.2008  0.5273
16709TIP3    H171618   5.035   6.705   3.163 -0.6127  0.0799 -0.0996
16709TIP3    H271619   4.960   6.834   3.189  0.0147  0.1331  1.6210
16710TIP3   OH271620   5.223   5.982   3.309  0.7670 -0.4935  0.1246
16710TIP3    H171621   5.171   6.015   3.236  1.6388 -1.8390 -1.1702
16710TIP3    H271622   5.170   6.001   3.387  0.0565  1.4548 -0.7715
16711TIP3   OH271623   2.417   1.855  14.724 -0.2182  0.2891  0.3395
16711TIP3    H171624   2.420   1.769  14.682 -2.2668 -0.1636  1.0467
16711TIP3    H271625   2.508   1.870  14.752  0.7030 -0.4831 -1.9851
16712TIP3   OH271626   4.008   0.285  12.070  0.0561  0.1707  0.0699
16712TIP3    H171627   3.969   0.364  12.109 -0.1313 -1.3269  3.3098
16712TIP3    H271628   3.933   0.230  12.047  0.1942  0.6811 -1.6769
16713TIP3   OH271629   5.749   1.621  15.408  0.2408  0.1231  0.5533
16713TIP3    H171630   5.746   1.617  15.504 -0.5710 -3.0539  0.5238
16713TIP3    H271631   5.667   1.581  15.380  1.5639 -1.4550 -1.3877
16714TIP3   OH271632   2.953   1.236   4.492 -0.0648 -0.0154  0.2170
16714TIP3    H171633   3.008   1.262   4.418  0.0527  0.2742  0.4005
16714TIP3    H271634   2.929   1.146   4.474  0.3328 -0.0911  0.0483
16715TIP3   OH271635   4.207   0.520  12.742  0.2691 -0.0717  0.3262
16715TIP3    H171636   4.264   0.508  12.818  0.1777 -0.3009  0.3604
16715TIP3    H271637   4.262   0.500  12.667  0.2759 -0.1410  0.3503
16716TIP3   OH271638   3.573   1.263  11.370 -0.2259  0.3916  0.1651
16716TIP3    H171639   3.648   1.309  11.409  1.3230 -0.5670 -1.5340
16716TIP3    H271640   3.597   1.171  11.374 -2.3184 -0.1532  1.5240
16717TIP3   OH271641   5.740   1.787  15.126  0.3932 -0.1403 -0.0989
16717TIP3    H171642   5.658   1.738  15.118  1.3117 -2.2068  2.0876
16717TIP3    H271643   5.796   1.753  15.056  0.1112 -0.1919 -0.3033
16718TIP3   OH271644   4.350   2.057  16.390 -0.2093  0.1732 -0.4828
16718TIP3    H171645   4.324   2.141  16.428  2.6316  0.9445 -0.0091
16718TIP3    H271646   4.380   2.079  16.302  0.6909 -0.3170 -0.3034
16719TIP3   OH271647   4.214   0.467  11.451  0.4593 -0.5010  0.5309
16719TIP3    H171648   4.307   0.469  11.431  0.3349 -0.8260 -0.1072
16719TIP3    H271649   4.171   0.466  11.365 -0.1453  0.1842  0.8079
16720TIP3   OH271650   2.919   5.398  10.295 -0.4058  0.3119 -0.5942
16720TIP3    H171651   2.830   5.391  10.330 -1.8950  0.3625 -3.9728
16720TIP3    H271652   2.931   5.317  10.245  1.5482  0.2672 -0.1397
16721TIP3   OH271653   2.662   5.939   2.851 -0.4841  0.3215  0.3618
16721TIP3    H171654   2.651   6.019   2.901  0.3274 -0.0702  1.2010
16721TIP3    H271655   2.609   5.874   2.898 -1.2107  0.3662 -0.3647
16722TIP3   OH271656   6.437   1.024   2.233 -0.1816  0.1097  0.4472
16722TIP3    H171657   6.474   1.038   2.320 -0.5107 -1.0368  0.7875
16722TIP3    H271658   6.390   0.940   2.239  1.7405 -1.2266 -1.4326
16723TIP3   OH271659   4.658   0.371  11.715 -0.2964 -0.4296 -0.1536
16723TIP3    H171660   4.582   0.337  11.668 -0.0447 -0.4642 -0.5324
16723TIP3    H271661   4.662   0.464  11.692 -0.5439 -0.3013  0.2976
16724TIP3   OH271662   2.876   0.147  16.742  0.1363  0.4406 -0.3255
16724TIP3    H171663   2.967   0.169  16.758 -0.2440  0.6845  1.7504
16724TIP3    H271664   2.829   0.230  16.749 -0.3505  0.1932 -0.5524
16725TIP3   OH271665   1.360   1.440  13.804  0.1043 -0.3577 -0.7332
16725TIP3    H171666   1.351   1.356  13.759 -1.6209 -0.4941 -0.2132
16725TIP3    H271667   1.315   1.502  13.747 -1.4794 -0.4108  0.3789
16726TIP3   OH271668   5.774   1.086   3.467 -0.5120  0.2578  0.1569
16726TIP3    H171669   5.811   0.998   3.465 -2.2936 -0.5288 -0.2526
16726TIP3    H271670   5.775   1.110   3.560 -0.8754 -0.5978  0.3927
16727TIP3   OH271671   3.644   2.469  14.047 -0.5675 -0.3143  0.2707
16727TIP3    H171672   3.674   2.445  13.958 -0.1234  0.3554  0.2316
16727TIP3    H271673   3.608   2.388  14.082  0.4355 -0.9291 -0.0502
16728TIP3   OH271674   5.082   2.686   4.827  0.1072  0.7941 -0.5422
16728TIP3    H171675   5.009   2.735   4.864 -1.5275  0.1432 -2.7126
16728TIP3    H271676   5.088   2.607   4.882  1.4368  2.3263  1.6979
16729TIP3   OH271677   3.606   6.475   5.718 -0.4377 -0.0315 -0.0357
16729TIP3    H171678   3.660   6.397   5.701  0.8513 -0.0559  3.3025
16729TIP3    H271679   3.518   6.449   5.692  0.5305 -1.2367 -2.4436
16730TIP3   OH271680   2.059   5.453  16.754  0.2149  0.2142 -0.0454
16730TIP3    H171681   2.103   5.456  16.669 -0.8420 -0.2608 -0.6319
16730TIP3    H271682   1.984   5.511  16.744  0.2518  0.3940  0.6756
16731TIP3   OH271683   3.599   2.399   3.000  0.0564 -0.6031 -0.1664
16731TIP3    H171684   3.579   2.487   3.030 -0.5633 -0.9495  0.4537
16731TIP3    H271685   3.665   2.367   3.061 -1.6205 -1.5192  1.2312
16732TIP3   OH271686   5.810   0.496   3.519 -0.0262 -0.2629  0.5400
16732TIP3    H171687   5.726   0.469   3.555 -0.3820  1.6811  1.2997
16732TIP3    H271688   5.875   0.445   3.568 -0.6586  0.1152  1.8073
16733TIP3   OH271689   4.414   2.002   1.275  0.3068  0.4811  0.4916
16733TIP3    H171690   4.363   2.052   1.211  0.3157  0.3876  0.4117
16733TIP3    H271691   4.405   1.911   1.247 -0.2502  0.3703  1.0190
16734TIP3   OH271692   3.143   2.431  13.434  0.2143 -0.1556  0.2485
16734TIP3    H171693   3.204   2.358  13.428 -0.4469 -0.5552 -2.7715
16734TIP3    H271694   3.063   2.400  13.392 -1.7506  0.7889  2.9675
16735TIP3   OH271695   3.669   1.728   3.429  0.3204  0.5864  0.9690
16735TIP3    H171696   3.651   1.648   3.478  1.1965  0.0223  0.3814
16735TIP3    H271697   3.591   1.783   3.444  0.2722  0.1594  2.4105
16736TIP3   OH271698   2.374   4.581  15.977  0.3670  0.0471 -0.2332
16736TIP3    H171699   2.412   4.500  16.011 -0.2399 -0.7074 -1.2650
16736TIP3    H271700   2.283   4.559  15.958  0.5091  0.5698 -1.7248
16737TIP3   OH271701   5.460   1.052   3.605 -0.3614 -0.2868 -0.7006
16737TIP3    H171702   5.533   1.064   3.665 -0.6858  0.8567 -0.5164
16737TIP3    H271703   5.431   0.962   3.619 -0.4390 -0.0404  0.8677
16738TIP3   OH271704   1.620   1.492   1.029 -0.0051  0.1122  0.3243
16738TIP3    H171705   1.602   1.403   1.059 -3.2308  0.9701  1.2945
16738TIP3    H271706   1.621   1.486   0.934 -0.8428 -0.8725  0.3719
16739TIP3   OH271707   3.854   0.384  16.732 -0.1270 -0.1338  0.0874
16739TIP3    H171708   3.787   0.347  16.789 -0.1888  0.1566  0.2073
16739TIP3    H271709   3.889   0.309  16.683  0.7993 -0.6107  1.4057
16740TIP3   OH271710   3.023   2.034  15.001 -0.1341  0.3121 -0.7800
16740TIP3    H171711   3.047   2.118  15.040  1.6641 -1.4642  2.2569
16740TIP3    H271712   3.106   1.988  14.990 -1.2580 -2.2040  0.5462
16741TIP3   OH271713   6.499   1.872  15.063  0.2972  0.3691  0.2994
16741TIP3    H171714   6.426   1.887  15.123  0.6361 -1.2993  1.1749
16741TIP3    H271715   6.462   1.817  14.993  0.4107  0.5807  0.0716
16742TIP3   OH271716   1.476   1.533  12.866 -0.3052 -0.0270  0.2594
16742TIP3    H171717   1.522   1.518  12.949 -1.9149  0.4149  1.2745
16742TIP3    H271718   1.383   1.522  12.888 -0.7629  0.1780 -1.4714
16743TIP3   OH271719   4.721   5.941  13.252 -0.0222 -0.6516 -0.7969
16743TIP3    H171720   4.719   5.847  13.271 -1.0905 -0.9793 -2.3308
16743TIP3    H271721   4.629   5.968  13.252  0.2901  0.4516 -0.1479
16744TIP3   OH271722   5.423   4.959   6.221  0.0583  0.2768 -0.0708
16744TIP3    H171723   5.498   5.018   6.235 -1.0357  1.7435 -0.2292
16744TIP3    H271724   5.460   4.871   6.234  1.2729  1.0542  2.3804
16745TIP3   OH271725   3.087   0.687  13.765  0.5198 -0.0672 -0.2759
16745TIP3    H171726   3.069   0.746  13.839  0.3553  1.3031 -1.3793
16745TIP3    H271727   3.073   0.740  13.687 -1.4442 -2.0544 -1.3992
16746TIP3   OH271728   2.301   1.319   0.328  0.1707 -0.0430  0.0517
16746TIP3    H171729   2.335   1.336   0.416 -2.4950  1.2211  0.9696
16746TIP3    H271730   2.341   1.385   0.273 -0.8127  1.5283  1.1268
16747TIP3   OH271731   5.168   1.825  12.261 -0.3586  0.3360 -0.1875
16747TIP3    H171732   5.110   1.874  12.202  1.2657  1.4296 -0.9694
16747TIP3    H271733   5.110   1.770  12.312 -1.9660  0.4073 -1.8450
16748TIP3   OH271734   3.795   0.171   0.765 -0.1358  0.2278  0.1421
16748TIP3    H171735   3.837   0.177   0.679  0.2109 -0.5987  0.2456
16748TIP3    H271736   3.720   0.113   0.751  1.1005 -1.6301  0.8136
16749TIP3   OH271737   6.115   1.015   2.304 -0.8359  0.1660 -0.4355
16749TIP3    H171738   6.070   0.989   2.224 -0.3694  0.9631 -0.9795
16749TIP3    H271739   6.157   0.935   2.335 -0.3019  0.0122 -1.4863
16750TIP3   OH271740   0.116   0.254  16.180  0.8362 -0.3189  0.2566
16750TIP3    H171741   0.054   0.205  16.233 -1.7456  1.3381 -1.0483
16750TIP3    H271742   0.132   0.199  16.103  1.0002 -0.7329  0.5810
16751TIP3   OH271743   2.552   0.687   2.891 -0.0708 -0.7221  0.4574
16751TIP3    H171744   2.605   0.766   2.884 -0.8094 -0.2658 -0.0637
16751TIP3    H271745   2.604   0.619   2.847  0.1088 -0.2960  0.0056
16752TIP3   OH271746   1.512   4.242  14.765 -0.5519 -0.0913 -0.3587
16752TIP3    H171747   1.514   4.301  14.840 -2.3337 -0.7624  0.2796
16752TIP3    H271748   1.578   4.175  14.785 -0.2904  0.3017  0.0987
16753TIP3   OH271749   0.941   3.374   4.386  0.3187 -0.0645 -0.2637
16753TIP3    H171750   1.014   3.424   4.424 -0.5102  0.2268  0.9917
16753TIP3    H271751   0.906   3.431   4.318  0.5484  0.2736 -0.1033
16754TIP3   OH271752   5.053   1.222   3.031  0.0682 -0.5865  0.2806
16754TIP3    H171753   5.033   1.129   3.046  0.7944 -1.1018 -1.7049
16754TIP3    H271754   5.141   1.233   3.065 -0.7895 -0.0271  2.5314
16755TIP3   OH271755   5.222   6.593   6.783 -0.4043 -0.5449 -0.2241
16755TIP3    H171756   5.227   6.641   6.865  1.2060 -0.1561 -0.5207
16755TIP3    H271757   5.177   6.511   6.806 -1.1135  0.0971  0.7561
16756TIP3   OH271758   0.165   5.322   3.627  0.4833 -0.4227 -0.0476
16756TIP3    H171759   0.162   5.314   3.531  0.3094  1.3403 -0.2313
16756TIP3    H271760   0.174   5.232   3.658  1.1295 -0.9890 -1.7356
16757TIP3   OH271761   0.248   1.887  13.917 -0.2499  0.0873  0.6642
16757TIP3    H171762   0.333   1.925  13.894 -0.3075 -0.0800  0.1629
16757TIP3    H271763   0.246   1.889  14.013 -0.1550  1.1275  0.6550
16758TIP3   OH271764   1.167   1.941  15.363  0.3130  0.2718  0.3147
16758TIP3    H171765   1.224   1.996  15.309  1.0495 -0.1943  0.6070
16758TIP3    H271766   1.202   1.950  15.452  1.8401 -2.3360  0.0801
16759TIP3   OH271767   6.691   3.182  13.052 -0.4585  0.5440  0.0837
16759TIP3    H171768   6.679   3.091  13.078 -1.8066  0.1259 -1.8778
16759TIP3    H271769   6.605   3.223  13.063  0.5512  2.2278  2.9877
16760TIP3   OH271770   3.531   6.233  11.420  0.1307 -0.3245  0.0252
16760TIP3    H171771   3.614   6.199  11.386  0.1361  0.0204 -0.3131
16760TIP3    H271772   3.466   6.204  11.356  0.4383  2.4392 -1.7576
16761TIP3   OH271773   3.500   3.275  13.521  0.1193  0.5694  0.0086
16761TIP3    H171774   3.573   3.292  13.462 -0.9234  1.8495 -1.0100
16761TIP3    H271775   3.456   3.199  13.485 -0.3050  1.1334 -0.6997
16762TIP3   OH271776   2.367   2.665   3.620 -0.3261 -0.4858  0.4979
16762TIP3    H171777   2.424   2.591   3.599  0.3396  0.0516  0.3732
16762TIP3    H271778   2.288   2.626   3.658 -0.1314 -1.2749  0.0968
16763TIP3   OH271779   1.394   3.020  14.098  0.2291  0.2479 -0.1390
16763TIP3    H171780   1.398   2.954  14.029  0.8839  0.9177 -0.7509
16763TIP3    H271781   1.316   3.071  14.078  0.5348  0.5730 -0.5060
16764TIP3   OH271782   2.765   5.343  15.765 -0.3345 -0.0135  0.0973
16764TIP3    H171783   2.692   5.287  15.792 -0.5184  0.2420  0.1296
16764TIP3    H271784   2.832   5.282  15.734 -0.6585 -0.2361 -0.1661
16765TIP3   OH271785   4.175   5.152   3.176  0.1656 -0.3235  0.2307
16765TIP3    H171786   4.226   5.202   3.240 -0.2401  1.0186 -0.4454
16765TIP3    H271787   4.118   5.097   3.229 -1.2380  1.8332  1.1416
16766TIP3   OH271788   6.445   0.922   4.050  0.0670 -0.0289  0.1515
16766TIP3    H171789   6.402   0.904   4.133 -1.0222 -2.9839 -0.9273
16766TIP3    H271790   6.494   0.842   4.030  1.8071  1.2813 -1.2327
16767TIP3   OH271791   5.196   0.702  15.964  0.0122 -0.2086  0.1016
16767TIP3    H171792   5.227   0.622  15.923 -1.0386 -0.5465 -0.0460
16767TIP3    H271793   5.274   0.739  16.006  1.0300 -0.0848 -1.7945
16768TIP3   OH271794   3.170   2.842  14.465  0.6635 -0.0606 -0.3080
16768TIP3    H171795   3.092   2.880  14.505  2.4579  1.8148  1.6264
16768TIP3    H271796   3.178   2.887  14.381 -0.0037  0.1118 -0.2883
16769TIP3   OH271797   5.801   4.354   2.722  0.2252 -0.4536 -0.3224
16769TIP3    H171798   5.790   4.304   2.802  1.2232 -0.5858 -0.2455
16769TIP3    H271799   5.814   4.445   2.752 -2.6891  0.1092 -0.5084
16770TIP3   OH271800   6.512   2.608  12.890  0.0043  0.7373  0.1944
16770TIP3    H171801   6.552   2.641  12.971  0.2355  1.8770 -0.3597
16770TIP3    H271802   6.577   2.546  12.855 -1.1653 -1.7828  2.1294
16771TIP3   OH271803   1.226   6.748   2.456  0.1235 -0.2897 -0.1423
16771TIP3    H171804   1.249   6.660   2.426  2.2616  0.7636 -1.9340
16771TIP3    H271805   1.303   6.801   2.435 -1.3521  2.1669  0.2456
16772TIP3   OH271806   4.193   4.349   0.661  0.4715  0.5981  0.1437
16772TIP3    H171807   4.157   4.260   0.660  0.8859  0.4272  0.4499
16772TIP3    H271808   4.218   4.365   0.570  0.1544  0.5030  0.0373
16773TIP3   OH271809   4.696   3.828   4.263  0.3951  0.3686  0.7620
16773TIP3    H171810   4.647   3.836   4.181 -1.8381  0.0012  1.9810
16773TIP3    H271811   4.630   3.842   4.331  1.8973 -0.7691  2.5206
16774TIP3   OH271812   0.700   1.536   3.623  0.3123 -0.2127  0.2427
16774TIP3    H171813   0.764   1.483   3.575  0.9617  0.6045  0.1792
16774TIP3    H271814   0.637   1.563   3.557  1.2660  1.0024 -0.1969
16775TIP3   OH271815   2.791   2.316   0.388 -0.2634 -0.2594 -0.6501
16775TIP3    H171816   2.736   2.331   0.312  1.7351 -0.2633 -2.1935
16775TIP3    H271817   2.780   2.223   0.407 -1.8358  0.0276 -0.0159
16776TIP3   OH271818   2.094   4.292   1.222 -0.2767  0.8922  0.6977
16776TIP3    H171819   2.077   4.385   1.211 -0.5213  0.7457 -0.2370
16776TIP3    H271820   2.007   4.253   1.232 -0.1284  0.9157  2.6190
16777TIP3   OH271821   3.166   4.178   4.071 -0.1394 -0.1541 -0.0271
16777TIP3    H171822   3.151   4.095   4.026 -1.5572 -0.3893  0.8281
16777TIP3    H271823   3.211   4.153   4.152 -0.8603 -0.1453  0.3867
16778TIP3   OH271824   4.525   2.487   5.703 -0.2274  0.2248  0.7924
16778TIP3    H171825   4.449   2.444   5.741 -0.4933  1.1648  1.3713
16778TIP3    H271826   4.488   2.558   5.649  0.1704 -0.6198 -0.6446
16779TIP3   OH271827   6.178   1.737   0.990 -0.0708 -0.1699  0.3593
16779TIP3    H171828   6.204   1.786   0.912  1.6174  0.8306  1.4723
16779TIP3    H271829   6.119   1.797   1.037  0.4255  0.0183  0.7554
16780TIP3   OH271830   1.809   3.568  13.166  0.2842 -0.0291  0.1212
16780TIP3    H171831   1.745   3.618  13.215  2.0895  1.5287  1.0372
16780TIP3    H271832   1.794   3.593  13.075  0.3295  1.2385  0.4434
16781TIP3   OH271833   2.495   5.898  13.057 -0.2813 -0.5389  0.0155
16781TIP3    H171834   2.540   5.898  13.141 -0.4867 -0.0859  0.1247
16781TIP3    H271835   2.430   5.827  13.064 -1.2835  0.4233  0.7697
16782TIP3   OH271836   6.281   0.098   4.474 -0.5318 -0.0332  0.2517
16782TIP3    H171837   6.203   0.153   4.482 -0.8842 -0.4795 -0.0635
16782TIP3    H271838   6.284   0.074   4.381  0.5549  0.8116  0.0501
16783TIP3   OH271839   1.029   1.053   6.273 -0.1243 -0.1624  0.5081
16783TIP3    H171840   1.119   1.032   6.298 -0.5251 -1.9423  0.5553
16783TIP3    H271841   1.017   1.144   6.300  1.3522 -0.2034  1.3789
16784TIP3   OH271842   1.774   4.994  12.025  0.3370 -0.1651 -0.1714
16784TIP3    H171843   1.713   4.932  11.985  0.1428  0.1314 -0.3362
16784TIP3    H271844   1.859   4.950  12.021  0.4115  0.0564 -1.3496
16785TIP3   OH271845   2.685   5.714  12.951 -0.0630 -0.3762  0.0934
16785TIP3    H171846   2.616   5.779  12.965  0.6685  0.2333  0.9480
16785TIP3    H271847   2.639   5.630  12.950 -0.6964 -0.0992  1.9671
16786TIP3   OH271848   1.268   5.543  16.855 -0.0964 -0.3901  0.7658
16786TIP3    H171849   1.202   5.562  16.788 -0.8742 -1.7605  1.1110
16786TIP3    H271850   1.242   5.459  16.892  0.3725  0.2823  2.7481
16787TIP3   OH271851   2.917   2.596  14.035  0.0049  0.5742 -0.0772
16787TIP3    H171852   2.845   2.580  14.096  0.3796 -1.0215 -0.0071
16787TIP3    H271853   2.987   2.539  14.066 -0.0907 -0.9645 -2.5032
16788TIP3   OH271854   1.982   1.061  13.489  0.1532  0.1778  0.1881
16788TIP3    H171855   1.941   1.146  13.472 -1.3051 -0.7062 -0.9061
16788TIP3    H271856   2.072   1.072  13.459 -0.1506  1.1791 -0.4260
16789TIP3   OH271857   6.755   5.786   0.739  0.1087  0.4374  0.5318
16789TIP3    H171858   6.728   5.788   0.648 -0.7484  0.2315  0.7761
16789TIP3    H271859   6.842   5.826   0.739 -0.2695  1.2944 -0.2453
16790TIP3   OH271860   5.244   3.100   4.580 -0.1229  0.5478 -0.7737
16790TIP3    H171861   5.283   3.146   4.506  1.9325  0.3211  0.0970
16790TIP3    H271862   5.284   3.140   4.657 -1.1604 -0.1500  0.1643
16791TIP3   OH271863   6.336   1.761   2.403  0.0827  0.2674 -0.0330
16791TIP3    H171864   6.368   1.814   2.475  1.4040  0.6576 -0.8565
16791TIP3    H271865   6.384   1.793   2.326 -0.2329 -1.0617 -0.8306
16792TIP3   OH271866   4.134   4.108  13.632  0.6185  0.1354  0.5123
16792TIP3    H171867   4.073   4.181  13.646  0.5747  0.0916  0.5482
16792TIP3    H271868   4.185   4.134  13.556 -0.7709 -0.7015 -0.7527
16793TIP3   OH271869   2.922   6.371  16.096  0.7608  0.1476 -0.1583
16793TIP3    H171870   2.970   6.418  16.029  0.1221  1.7946  0.4904
16793TIP3    H271871   2.931   6.278  16.072  0.3777  0.6765 -2.6215
16794TIP3   OH271872   1.503   2.438   4.980  0.1728 -0.5100  0.2951
16794TIP3    H171873   1.567   2.408   4.915  3.8473  0.3798  3.1932
16794TIP3    H271874   1.471   2.521   4.946  0.3489 -1.0560 -1.3067
16795TIP3   OH271875   2.696   1.208  17.041  0.2355 -0.0460  0.1306
16795TIP3    H171876   2.616   1.256  17.023  0.1171 -0.0898  0.5195
16795TIP3    H271877   2.765   1.256  16.995  0.1002  0.4246  0.4178
16796TIP3   OH271878   5.131   5.689   6.368 -0.3962 -0.1655 -0.1583
16796TIP3    H171879   5.071   5.690   6.442  0.2555 -1.3741  0.4252
16796TIP3    H271880   5.132   5.779   6.336  0.1261  0.6424  1.9715
16797TIP3   OH271881   3.532   1.927  12.611 -0.5977  0.1410 -0.2618
16797TIP3    H171882   3.556   2.010  12.569 -0.0103 -0.2167 -0.6498
16797TIP3    H271883   3.575   1.860  12.558  1.6824 -0.2659  1.8825
16798TIP3   OH271884   5.290   5.622   2.557 -1.0422  0.3227  0.1791
16798TIP3    H171885   5.254   5.663   2.635  1.7981 -0.7673  2.2243
16798TIP3    H271886   5.256   5.533   2.558 -0.4130  0.0784  0.6483
16799TIP3   OH271887   5.409   1.760   0.446  0.6760 -0.3197 -0.6006
16799TIP3    H171888   5.361   1.842   0.450  1.8999  0.3805  0.8408
16799TIP3    H271889   5.344   1.695   0.417 -0.4557  1.0213 -1.1639
16800TIP3   OH271890   2.741   5.521  16.217  0.5420  0.6661  0.5156
16800TIP3    H171891   2.685   5.510  16.141 -0.5238  1.7910  1.1008
16800TIP3    H271892   2.801   5.447  16.214  0.5813  0.7175 -1.4495
16801TIP3   OH271893   5.751   4.087  15.851 -0.1433 -0.7405  0.6514
16801TIP3    H171894   5.726   4.107  15.941 -0.5020  1.6610  0.1145
16801TIP3    H271895   5.825   4.145  15.833  0.6535 -1.9934 -0.2643
16802TIP3   OH271896   4.212   3.397  11.126  0.3460 -0.4104  0.3017
16802TIP3    H171897   4.157   3.366  11.054  0.4707 -0.8938  0.4074
16802TIP3    H271898   4.202   3.492  11.125 -0.2150 -0.4687  0.1003
16803TIP3   OH271899   1.797   2.063  13.091 -0.3669 -0.2559 -0.0433
16803TIP3    H171900   1.766   2.115  13.016  0.5614 -1.2665 -1.1713
16803TIP3    H271901   1.735   1.990  13.097  1.2153 -1.8518 -1.8118
16804TIP3   OH271902   5.131   4.266  16.166 -0.3724  0.1943  0.0924
16804TIP3    H171903   5.227   4.262  16.159 -0.2485  1.9985  0.2854
16804TIP3    H271904   5.099   4.235  16.082  0.4113  0.1025 -0.1794
16805TIP3   OH271905   2.978   1.695   5.863 -0.6761  0.0393 -0.3774
16805TIP3    H171906   2.923   1.617   5.865 -1.6307  0.6836 -0.4519
16805TIP3    H271907   3.068   1.662   5.863 -1.0597 -1.0707 -1.1803
16806TIP3   OH271908   0.668   0.338   4.491 -0.0602  0.2867  0.4977
16806TIP3    H171909   0.682   0.276   4.562 -2.8292 -1.3578 -0.2470
16806TIP3    H271910   0.678   0.424   4.532 -1.0449 -0.6066  2.7477
16807TIP3   OH271911   4.164   5.216  15.273 -0.3339  0.1345  0.4626
16807TIP3    H171912   4.246   5.201  15.225 -1.1884 -0.6308 -0.8346
16807TIP3    H271913   4.155   5.141  15.331  1.8674  2.1427  3.7376
16808TIP3   OH271914   5.048   0.770   4.058 -0.6468  0.0858  0.3234
16808TIP3    H171915   5.058   0.836   3.989 -0.2638  1.6198  1.7891
16808TIP3    H271916   4.962   0.787   4.095 -0.3957  0.0182  0.9460
16809TIP3   OH271917   5.695   0.058   3.141  0.4901 -0.3601 -0.1552
16809TIP3    H171918   5.600   0.064   3.133  0.3488 -2.3578 -0.5407
16809TIP3    H271919   5.717   0.115   3.214 -1.0351 -0.0402  0.0853
16810TIP3   OH271920   0.572   3.000  16.696  0.0168 -0.5228 -0.8852
16810TIP3    H171921   0.525   3.029  16.775 -0.7341 -2.6803 -0.4819
16810TIP3    H271922   0.624   2.925  16.725 -0.8058 -1.8070 -2.5647
16811TIP3   OH271923   1.612   5.512  12.121  0.0274 -0.1705  0.2592
16811TIP3    H171924   1.532   5.524  12.171  0.1587 -1.3372  0.7839
16811TIP3    H271925   1.630   5.418  12.126  0.9280 -0.0665 -0.6213
16812TIP3   OH271926   5.227   2.131   4.713 -0.1316  0.2431 -0.2721
16812TIP3    H171927   5.199   2.045   4.744 -1.1605  0.6757  0.0284
16812TIP3    H271928   5.305   2.150   4.763  1.3223 -1.3835 -1.7500
16813TIP3   OH271929   0.609   4.040   2.024 -0.3498  0.3302  0.1045
16813TIP3    H171930   0.660   3.964   2.052  0.2375  0.3698 -0.8276
16813TIP3    H271931   0.674   4.101   1.987 -0.4434  2.3366  2.9003
16814TIP3   OH271932   0.570   1.842  11.903 -0.4388 -0.6761 -0.4693
16814TIP3    H171933   0.549   1.782  11.832 -1.0836 -0.8600 -0.1364
16814TIP3    H271934   0.550   1.793  11.983  3.2443 -1.6438  0.0454
16815TIP3   OH271935   5.357   0.974  16.834  0.0681  0.5024  0.3925
16815TIP3    H171936   5.365   0.879  16.843 -0.1787  0.4803  0.3857
16815TIP3    H271937   5.393   1.010  16.915  3.3670  0.5581 -0.9153
16816TIP3   OH271938   2.742   0.449   4.281 -0.1834 -0.0117 -0.5240
16816TIP3    H171939   2.648   0.468   4.273 -0.0761  0.3412 -1.0281
16816TIP3    H271940   2.755   0.370   4.228 -0.4450 -0.9234  0.7300
16817TIP3   OH271941   6.499   4.008   6.906 -0.1886 -0.1584  0.7042
16817TIP3    H171942   6.582   4.056   6.911 -0.3442  0.6523 -2.5602
16817TIP3    H271943   6.517   3.926   6.952  1.8097  0.7581  1.7081
16818TIP3   OH271944   1.444   3.720  15.178  0.6082  0.3182 -0.3766
16818TIP3    H171945   1.442   3.751  15.269  0.1380 -0.3694 -0.1412
16818TIP3    H271946   1.528   3.675  15.170 -0.2079 -1.4619  0.3792
16819TIP3   OH271947   2.641   5.903   0.763 -0.3333  0.2370  0.0141
16819TIP3    H171948   2.682   5.982   0.725 -1.0592  0.5031 -0.2236
16819TIP3    H271949   2.662   5.833   0.700 -1.5392  0.6772 -0.9266
16820TIP3   OH271950   4.706   4.759   2.110 -0.1569  0.2894  0.2151
16820TIP3    H171951   4.671   4.848   2.102  1.5971  0.9847 -0.2782
16820TIP3    H271952   4.733   4.736   2.021  1.7844  0.3215  0.7631
16821TIP3   OH271953   3.508   1.675  11.130 -0.7595 -0.2885 -0.0781
16821TIP3    H171954   3.571   1.604  11.119  0.8045  0.6884  2.0083
16821TIP3    H271955   3.518   1.728  11.051  0.3036 -0.7197 -0.2523
16822TIP3   OH271956   2.707   0.661   3.132  0.5670  0.1692 -0.2625
16822TIP3    H171957   2.671   0.710   3.059 -0.9975  0.1455  0.4520
16822TIP3    H271958   2.673   0.572   3.121  1.6924 -0.2622 -0.4063
16823TIP3   OH271959   6.208   0.655  16.977  0.0280  0.6637 -0.2677
16823TIP3    H171960   6.124   0.668  16.933  0.3848 -0.3303 -1.2768
16823TIP3    H271961   6.225   0.738  17.022 -0.5033  1.6092 -1.7591
16824TIP3   OH271962   3.455   2.785  16.170  0.9256  0.2519 -0.1053
16824TIP3    H171963   3.378   2.823  16.212  0.4550 -1.9735  1.2031
16824TIP3    H271964   3.426   2.767  16.080  0.2537  0.3738  0.0802
16825TIP3   OH271965   3.748   3.587   1.755 -0.1080  0.4543 -0.4405
16825TIP3    H171966   3.730   3.542   1.837 -0.0030  1.8726  0.3913
16825TIP3    H271967   3.673   3.567   1.699  1.6237 -3.9484 -1.6343
16826TIP3   OH271968   5.137   0.695   2.071 -0.1441  0.1006  0.2321
16826TIP3    H171969   5.192   0.767   2.039  0.0527  0.0065  0.3511
16826TIP3    H271970   5.108   0.724   2.157 -0.7030  0.3688 -0.0456
16827TIP3   OH271971   1.397   6.147  13.067 -0.0426 -0.2635 -0.1591
16827TIP3    H171972   1.440   6.191  13.139 -0.4745  0.5137 -0.3707
16827TIP3    H271973   1.463   6.085  13.034  0.1609 -0.6057  0.8666
16828TIP3   OH271974   4.139   5.149  16.227  0.0926 -0.1786  0.6536
16828TIP3    H171975   4.161   5.154  16.134  2.1486  2.0665  1.1317
16828TIP3    H271976   4.071   5.216  16.239  0.0199 -0.2776  0.7874
16829TIP3   OH271977   4.572   5.966   4.262 -1.1380  0.0386 -0.4996
16829TIP3    H171978   4.609   5.882   4.235 -2.0098 -1.3946  2.3937
16829TIP3    H271979   4.480   5.961   4.236 -1.4228 -0.3554  0.5444
16830TIP3   OH271980   2.076   0.162  14.837  0.3013 -0.2610 -0.1805
16830TIP3    H171981   2.115   0.223  14.899  1.5788  0.3476 -1.5152
16830TIP3    H271982   2.151   0.122  14.793 -0.5652 -0.9126 -1.1025
16831TIP3   OH271983   5.942   1.180   4.772 -0.6216 -0.0102  0.3684
16831TIP3    H171984   5.966   1.133   4.852  0.1173 -0.8401 -0.3097
16831TIP3    H271985   5.968   1.271   4.789 -0.9897 -0.0663  1.2721
16832TIP3   OH271986   6.272   2.061  15.891 -0.1673 -0.7515  0.1621
16832TIP3    H171987   6.286   1.997  15.961  1.9768 -1.7587 -1.0715
16832TIP3    H271988   6.359   2.098  15.875 -1.0695  1.2533 -0.3209
16833TIP3   OH271989   4.317   0.133  17.046 -1.1836 -0.0119 -0.5070
16833TIP3    H171990   4.235   0.182  17.042 -1.1587  0.0959  0.1037
16833TIP3    H271991   4.354   0.156  17.132 -1.0367 -0.8880 -0.3242
16834TIP3   OH271992   2.856   2.060   0.961 -0.4874 -0.5064 -0.8399
16834TIP3    H171993   2.883   2.152   0.955 -0.2921 -0.5364 -0.4428
16834TIP3    H271994   2.832   2.048   1.053  3.9481 -2.0876  0.3489
16835TIP3   OH271995   5.755   0.175   6.275  0.1785 -0.0187 -0.2074
16835TIP3    H171996   5.796   0.254   6.311  0.4044  0.2228 -0.9732
16835TIP3    H271997   5.740   0.119   6.352  0.9417  0.3439  0.2241
16836TIP3   OH271998   5.314   2.474   4.378  0.3188 -0.1063 -0.0632
16836TIP3    H171999   5.241   2.491   4.319  0.0977  0.3244  0.3308
16836TIP3    H272000   5.289   2.515   4.461  1.0949  0.2198  0.0200
16837TIP3   OH272001   2.086   0.121   5.440  0.2691 -0.0911 -0.0042
16837TIP3    H172002   2.034   0.201   5.438  0.6457  0.2423  1.7306
16837TIP3    H272003   2.136   0.122   5.358 -1.1753  0.4313 -0.9028
16838TIP3   OH272004   4.241   1.368  15.283 -0.1208  0.1750  0.0241
16838TIP3    H172005   4.214   1.291  15.234  0.6690  0.2703 -0.5899
16838TIP3    H272006   4.179   1.374  15.356  0.9110 -2.1379  1.2124
16839TIP3   OH272007   1.118   1.581  14.594 -0.0836 -1.0162  0.4925
16839TIP3    H172008   1.065   1.509  14.627 -1.4808  0.2907  1.2352
16839TIP3    H272009   1.138   1.634  14.672 -0.4715  0.2589 -0.2452
16840TIP3   OH272010   4.012   1.878   2.826  0.0799  0.4553  0.0429
16840TIP3    H172011   4.039   1.970   2.814 -2.2244  1.1857 -0.0254
16840TIP3    H272012   4.060   1.831   2.759  1.3824  1.5782  0.1241
16841TIP3   OH272013   3.292   4.677  16.799 -0.0420 -0.4587  0.4935
16841TIP3    H172014   3.255   4.607  16.745 -0.3749  0.0553  0.0558
16841TIP3    H272015   3.225   4.695  16.865 -0.7308  0.7158 -0.5133
16842TIP3   OH272016   2.001   2.320   4.951  0.2234  0.4230 -0.2672
16842TIP3    H172017   2.013   2.375   4.874  0.7166  0.0728 -0.4502
16842TIP3    H272018   1.951   2.245   4.919 -1.0581  1.0890  0.1354
16843TIP3   OH272019   3.016   6.585   0.577  0.4563  0.0548 -0.1068
16843TIP3    H172020   3.001   6.563   0.669  1.7502  1.1912  0.4132
16843TIP3    H272021   3.082   6.522   0.548 -0.1049 -0.4387 -0.3357
16844TIP3   OH272022   5.329   3.798   0.038 -0.3918 -0.4750  0.0125
16844TIP3    H172023   5.261   3.846  -0.009 -1.6661  0.0671  2.2783
16844TIP3    H272024   5.281   3.735   0.092  0.8287  0.2122  2.0173
16845TIP3   OH272025   2.398   3.854  14.680  0.4947 -0.6742 -0.4148
16845TIP3    H172026   2.403   3.948  14.666  3.4669 -0.7409 -0.2686
16845TIP3    H272027   2.441   3.816  14.604  0.5241 -1.8471  0.1654
16846TIP3   OH272028   1.829   0.362   2.987  0.3602 -0.8213  0.4583
16846TIP3    H172029   1.739   0.340   2.962  0.1795 -0.1091  0.4395
16846TIP3    H272030   1.883   0.292   2.952 -0.0304 -0.5253 -0.7696
16847TIP3   OH272031   3.612   1.862  16.792 -0.1539 -0.1047  0.4464
16847TIP3    H172032   3.522   1.845  16.821  0.7358 -3.6316  1.7277
16847TIP3    H272033   3.611   1.840  16.699 -0.3018 -2.0464  0.8599
16848TIP3   OH272034   2.480   4.846  16.075  0.5538 -0.2474 -0.7467
16848TIP3    H172035   2.438   4.764  16.052 -1.7185  0.3914  0.7871
16848TIP3    H272036   2.431   4.913  16.027 -1.5538  0.6831  2.3552
16849TIP3   OH272037   4.161   2.424   0.523  0.5527  0.4526  0.0250
16849TIP3    H172038   4.100   2.360   0.560  3.0118 -2.8758 -1.2103
16849TIP3    H272039   4.228   2.435   0.590  0.6220  1.0752 -0.1363
16850TIP3   OH272040   1.087   0.847  11.797  0.0163  0.4771 -0.2081
16850TIP3    H172041   1.152   0.912  11.826 -0.8230  1.0969  0.3198
16850TIP3    H272042   1.104   0.771  11.852 -0.6015  1.1283  0.9112
16851TIP3   OH272043   1.570   4.303   2.361 -0.0370  0.2081 -0.6440
16851TIP3    H172044   1.636   4.234   2.370 -0.2504  0.1552  0.6714
16851TIP3    H272045   1.620   4.385   2.364 -0.0086  0.1625  0.1391
16852TIP3   OH272046   2.727   5.742  12.424 -0.4642  0.5663  0.0949
16852TIP3    H172047   2.666   5.668  12.428 -0.2740  0.3283 -0.9015
16852TIP3    H272048   2.671   5.818  12.411 -0.6373  0.5358  0.6667
16853TIP3   OH272049   2.988   5.201  15.913  0.0938  0.0605  0.2357
16853TIP3    H172050   2.963   5.129  15.971  2.2070 -0.7371  0.2319
16853TIP3    H272051   2.969   5.280  15.964  0.7136 -0.5914  1.5212
16854TIP3   OH272052   2.300   0.206   1.761 -0.1624  0.8814 -0.3401
16854TIP3    H172053   2.272   0.240   1.846  2.0222  3.3727 -0.4808
16854TIP3    H272054   2.388   0.170   1.777 -0.5764 -0.6007 -1.1776
16855TIP3   OH272055   5.925   2.815   4.207 -0.4851 -0.1984 -0.4091
16855TIP3    H172056   5.895   2.897   4.247  0.1480 -0.2423  0.1720
16855TIP3    H272057   5.849   2.785   4.157 -0.4456  1.1884 -1.3638
16856TIP3   OH272058   2.790   4.896  17.084  0.5122  0.1631 -0.1053
16856TIP3    H172059   2.778   4.898  17.179  0.4874  0.7592 -0.1151
16856TIP3    H272060   2.796   4.803  17.062 -2.4910 -0.1873  0.1007
16857TIP3   OH272061   6.604   6.766   2.745  0.2899  0.0187  0.3399
16857TIP3    H172062   6.511   6.750   2.733  0.5644 -1.2179 -0.2786
16857TIP3    H272063   6.609   6.819   2.825 -0.9216 -0.0507  0.4738
16858TIP3   OH272064   1.780   3.478  15.995  0.2203 -0.4211  0.2620
16858TIP3    H172065   1.750   3.388  15.987 -2.1404  0.3545 -0.4691
16858TIP3    H272066   1.762   3.500  16.087 -2.9840  0.4116 -0.4203
16859TIP3   OH272067   4.919   5.919   0.269 -0.2333  0.1482 -0.0617
16859TIP3    H172068   4.882   5.977   0.336 -1.4200 -1.0684  0.3774
16859TIP3    H272069   4.843   5.873   0.233  0.6974 -1.3862 -0.1311
16860TIP3   OH272070   0.244   0.876   0.983 -0.1916  0.4024 -0.2142
16860TIP3    H172071   0.208   0.890   0.896  0.5432  3.3627 -0.1403
16860TIP3    H272072   0.316   0.814   0.970  0.7537  1.7989 -1.9898
16861TIP3   OH272073   3.127   1.703  12.215 -0.2333 -0.0526 -0.0320
16861TIP3    H172074   3.046   1.651  12.216 -0.3453  0.1192  0.4987
16861TIP3    H272075   3.177   1.670  12.289 -1.6518  2.6242  2.3520
16862TIP3   OH272076   6.554   1.640   6.814  0.0568  0.0158 -0.1643
16862TIP3    H172077   6.643   1.673   6.803  0.5389 -0.8861  0.8572
16862TIP3    H272078   6.524   1.622   6.725  1.1527 -0.3166 -0.4900
16863TIP3   OH272079   5.722   4.684   3.987  0.0514 -0.2691  0.7586
16863TIP3    H172080   5.808   4.706   4.023  0.0142 -0.3864  0.9199
16863TIP3    H272081   5.708   4.593   4.011  0.7895 -0.9027 -1.0454
16864TIP3   OH272082   3.380   1.037   3.503 -0.2611  0.2312 -0.0904
16864TIP3    H172083   3.310   1.059   3.441 -1.6001  0.9218  1.5736
16864TIP3    H272084   3.408   1.121   3.539  2.0000  0.0422 -1.2354
16865TIP3   OH272085   3.902   0.678  14.015  0.1649  0.0392 -0.0469
16865TIP3    H172086   3.874   0.676  14.107 -0.5086 -0.7276 -0.2502
16865TIP3    H272087   3.839   0.736  13.972 -0.0814 -0.3367 -0.1942
16866TIP3   OH272088   1.414   6.199  16.863 -0.6893  0.2099 -0.1356
16866TIP3    H172089   1.505   6.189  16.892 -1.6823  0.1762  3.4409
16866TIP3    H272090   1.396   6.293  16.872 -1.0117  0.2126 -0.7933
16867TIP3   OH272091   2.773   3.168  12.318 -0.3049  0.1511 -0.2023
16867TIP3    H172092   2.844   3.225  12.347  0.1530 -0.3585 -0.3128
16867TIP3    H272093   2.694   3.207  12.356  0.1560  0.1304  0.8121
16868TIP3   OH272094   6.239   5.207   3.805  0.1505 -0.2707  0.1681
16868TIP3    H172095   6.283   5.127   3.776  0.6501  0.9769 -2.8785
16868TIP3    H272096   6.303   5.276   3.790 -1.5370  1.1376 -0.8833
16869TIP3   OH272097   6.541   4.678  11.832  0.5220  0.6782  0.4080
16869TIP3    H172098   6.523   4.752  11.890  2.3543  0.9590  0.6881
16869TIP3    H272099   6.533   4.601  11.887 -0.5006  0.7275  0.3377
16870TIP3   OH272100   5.804   4.289   4.437  0.2895 -0.5503  0.6432
16870TIP3    H172101   5.876   4.296   4.500  0.4884  3.2127  0.2099
16870TIP3    H272102   5.751   4.367   4.452 -1.2806 -0.9944 -1.9553
16871TIP3   OH272103   2.226   3.050  14.117  0.5082  0.1393 -0.1675
16871TIP3    H172104   2.316   3.030  14.090  0.1882  0.0850 -1.2603
16871TIP3    H272105   2.186   3.089  14.039 -0.9497 -1.4829 -0.2745
16872TIP3   OH272106   3.959   5.974   0.509 -0.4404 -0.3732 -0.2649
16872TIP3    H172107   3.907   6.041   0.554  0.5048  0.1590  0.0662
16872TIP3    H272108   3.901   5.897   0.505 -0.8592 -0.1525  1.0779
16873TIP3   OH272109   1.085   0.506   5.178  0.7254 -0.1785  0.8165
16873TIP3    H172110   1.008   0.500   5.235  0.1946  0.1041  0.1304
16873TIP3    H272111   1.058   0.462   5.097  0.2153  2.4827 -0.5706
16874TIP3   OH272112   2.717   2.833  13.298  0.7900 -0.2883  0.1869
16874TIP3    H172113   2.699   2.744  13.330  0.8082 -0.7477 -1.0087
16874TIP3    H272114   2.811   2.833  13.278  0.6670 -0.2316 -0.4354
16875TIP3   OH272115   2.970   0.197  17.039  0.0443 -0.1644  0.1593
16875TIP3    H172116   2.995   0.105  17.028  1.3807  0.0961  0.8197
16875TIP3    H272117   2.892   0.194  17.094  0.5496 -0.8893  0.8598
16876TIP3   OH272118   2.865   0.712  11.327 -0.5340  0.7267 -0.4912
16876TIP3    H172119   2.944   0.754  11.295 -0.7311  0.5406 -1.2554
16876TIP3    H272120   2.864   0.627  11.283 -0.6845  0.3548  0.2179
16877TIP3   OH272121   5.009   3.913  11.929  0.3045  0.7556  0.3985
16877TIP3    H172122   4.955   3.896  12.006  2.2815  0.3650  1.7788
16877TIP3    H272123   4.994   4.005  11.909 -2.7739  0.1159 -0.9096
16878TIP3   OH272124   3.419   1.929   0.329  0.1170 -0.8678  0.2206
16878TIP3    H172125   3.424   1.839   0.361 -1.8189 -0.2560  2.5592
16878TIP3    H272126   3.485   1.976   0.380 -0.4384 -0.5702  0.6784
16879TIP3   OH272127   2.137   3.799  11.919  0.3131  0.1323  0.8387
16879TIP3    H172128   2.080   3.770  11.848 -0.4121 -0.3413  1.5787
16879TIP3    H272129   2.186   3.720  11.944  0.7034  0.3416  0.7337
16880TIP3   OH272130   0.631   1.982   5.247 -0.5574 -0.4846 -0.1174
16880TIP3    H172131   0.638   2.059   5.304 -1.6441  0.7749 -1.5780
16880TIP3    H272132   0.676   1.912   5.294  1.6839  1.3782  0.6536
16881TIP3   OH272133   1.857   0.345   5.158  0.0935 -0.4749  0.0824
16881TIP3    H172134   1.862   0.421   5.100  0.5547 -0.8970 -0.4497
16881TIP3    H272135   1.862   0.270   5.098 -2.4760 -0.9633  0.3864
16882TIP3   OH272136   0.741   5.575  15.248 -0.4927 -0.5592  0.3794
16882TIP3    H172137   0.807   5.621  15.299  2.0495 -2.6161 -0.7962
16882TIP3    H272138   0.657   5.605  15.284  1.0418  1.9142  2.2037
16883TIP3   OH272139   4.886   4.210   0.588  0.4493 -0.3051 -0.0740
16883TIP3    H172140   4.815   4.238   0.531 -0.7512 -3.0121 -0.0943
16883TIP3    H272141   4.955   4.179   0.529 -0.0571 -1.4134 -0.1239
16884TIP3   OH272142   0.391   6.740  14.845 -0.0916  0.2327 -0.2178
16884TIP3    H172143   0.378   6.669  14.908 -1.0770 -0.1701 -0.8494
16884TIP3    H272144   0.459   6.708  14.786 -0.9085 -0.4256 -0.8205
16885TIP3   OH272145   0.693   5.724  11.590 -0.0962 -0.1704 -0.0267
16885TIP3    H172146   0.715   5.759  11.504 -2.2309  0.8599 -0.2294
16885TIP3    H272147   0.736   5.783  11.652 -1.5920  1.3881 -0.4001
16886TIP3   OH272148   2.957   1.785  12.808 -0.5797 -0.7467 -0.3528
16886TIP3    H172149   2.970   1.700  12.850 -0.2641  0.2326  1.6511
16886TIP3    H272150   3.029   1.839  12.841  0.0154 -0.0193 -2.6191
16887TIP3   OH272151   1.638   4.461  16.860  0.5841 -0.1981  0.1363
16887TIP3    H172152   1.576   4.531  16.842  0.2967 -1.1288 -3.1862
16887TIP3    H272153   1.713   4.505  16.901  0.3589  2.0803 -1.7040
16888TIP3   OH272154   3.423   0.535  13.578  0.2109  0.2242  0.2725
16888TIP3    H172155   3.506   0.577  13.600  1.5944 -0.3969 -3.1223
16888TIP3    H272156   3.374   0.602  13.531 -0.0767 -0.1611  0.0125
16889TIP3   OH272157   4.346   6.424  10.466 -0.4198  0.5135 -0.6216
16889TIP3    H172158   4.389   6.351  10.510 -1.9174  0.8189  1.4813
16889TIP3    H272159   4.255   6.397  10.458 -1.1864  2.3805  0.9052
16890TIP3   OH272160   1.675   6.760  13.827 -0.2719 -0.1576 -0.7937
16890TIP3    H172161   1.764   6.779  13.798 -0.1899  0.5901 -0.0846
16890TIP3    H272162   1.640   6.845  13.855  0.2437 -0.9957  2.9119
16891TIP3   OH272163   2.547   1.352  13.665  0.1676 -0.2164 -0.1453
16891TIP3    H172164   2.545   1.424  13.602 -0.6427  1.4474  1.6641
16891TIP3    H272165   2.638   1.348  13.693  0.1310  0.4562  0.0968
16892TIP3   OH272166   2.166   4.075  11.933 -0.2884  0.3448 -0.2000
16892TIP3    H172167   2.240   4.092  11.992 -0.0650 -1.2473  0.0298
16892TIP3    H272168   2.145   3.983  11.948 -4.5588  1.4469  2.3338
16893TIP3   OH272169   3.138   1.657   3.838  0.0174  0.2244 -0.3233
16893TIP3    H172170   3.159   1.745   3.870 -0.6465  0.0528  0.6535
16893TIP3    H272171   3.212   1.603   3.864 -0.1454  0.2550  0.2295
16894TIP3   OH272172   4.913   4.046  11.538  0.3094 -0.3222 -0.7980
16894TIP3    H172173   4.978   4.059  11.607  0.4954  0.4595 -1.1167
16894TIP3    H272174   4.829   4.062  11.581  0.3776 -0.5443 -0.5817
16895TIP3   OH272175   1.337   5.129   2.647 -0.8728 -1.1509 -0.2529
16895TIP3    H172176   1.420   5.176   2.644 -1.4468 -0.1337 -1.0114
16895TIP3    H272177   1.359   5.041   2.679  0.5356 -1.0156 -0.8229
16896TIP3   OH272178   1.530   0.044  13.544  0.3203 -0.3324 -0.6451
16896TIP3    H172179   1.476   0.082  13.613 -0.9600 -1.5554 -0.9488
16896TIP3    H272180   1.607   0.102  13.540 -0.1031  0.4035  1.0091
16897TIP3   OH272181   1.657   5.798   5.040  0.3410 -0.2195 -0.1221
16897TIP3    H172182   1.647   5.705   5.059  0.9222 -0.2299  0.1674
16897TIP3    H272183   1.596   5.842   5.099  0.3779 -0.3940  0.0477
16898TIP3   OH272184   3.081   4.176  15.417  0.3362 -0.3415  0.4565
16898TIP3    H172185   3.171   4.177  15.450  0.4904 -0.0345  0.0468
16898TIP3    H272186   3.085   4.229  15.337 -0.5233  1.0236  1.2721
16899TIP3   OH272187   4.901   3.468   0.399  0.3335  0.2257  0.2785
16899TIP3    H172188   4.863   3.426   0.476 -1.3072  2.1176  0.5679
16899TIP3    H272189   4.980   3.512   0.432 -0.1569  0.7112  0.8329
16900TIP3   OH272190   1.201   2.662   2.851  0.2391 -0.2168 -0.7057
16900TIP3    H172191   1.292   2.636   2.833  0.6849  0.7678  0.0437
16900TIP3    H272192   1.149   2.611   2.789  1.2480 -1.2834 -0.7009
16901TIP3   OH272193   3.835   5.549   1.640  0.2825 -0.4266 -0.4126
16901TIP3    H172194   3.751   5.527   1.600  0.5927 -2.7931  0.0530
16901TIP3    H272195   3.815   5.561   1.733  0.3647 -0.3890 -0.3993
16902TIP3   OH272196   2.413   0.868   1.702  0.3380  0.2937  0.1635
16902TIP3    H172197   2.329   0.829   1.677 -0.7210  2.5438 -0.0237
16902TIP3    H272198   2.475   0.834   1.637 -0.3173 -1.5974  0.4447
16903TIP3   OH272199   6.762   5.734   2.815 -0.0417  0.5604  0.2844
16903TIP3    H172200   6.856   5.727   2.799 -0.2614 -2.4215 -0.1549
16903TIP3    H272201   6.734   5.807   2.759  1.7017  0.1572 -1.2032
16904TIP3   OH272202   4.097   2.263  16.043 -0.1858 -0.7267 -0.2581
16904TIP3    H172203   4.038   2.188  16.041 -1.4100  0.1374  1.2886
16904TIP3    H272204   4.182   2.226  16.068 -0.7538 -1.6122  0.4454
16905TIP3   OH272205   0.694   5.925   1.810 -0.0660  0.1402  0.6976
16905TIP3    H172206   0.711   5.831   1.808  1.1134  0.3550 -0.0330
16905TIP3    H272207   0.774   5.965   1.777  0.4763  1.5687  3.4984
16906TIP3   OH272208   2.426   4.941  14.311 -0.1862  0.3289 -0.0272
16906TIP3    H172209   2.392   4.949  14.400  2.1834  0.0520  0.9728
16906TIP3    H272210   2.464   5.026  14.292 -0.3149  0.2590 -0.6117
16907TIP3   OH272211   3.844   6.816  13.509  0.0625 -0.3295  0.1109
16907TIP3    H172212   3.853   6.771  13.425  1.1955 -1.3025  0.7194
16907TIP3    H272213   3.804   6.751  13.567 -1.8770  0.7336  0.0455
16908TIP3   OH272214   5.127   3.532   4.398  0.1993 -0.4154 -0.0044
16908TIP3    H172215   5.194   3.601   4.387  0.5902 -0.5179  1.5398
16908TIP3    H272216   5.066   3.547   4.325  0.8949  0.8475 -0.3703
16909TIP3   OH272217   2.752   4.093  10.804 -0.2613  0.0934 -0.2726
16909TIP3    H172218   2.715   4.118  10.719  0.3822  0.9225 -0.3319
16909TIP3    H272219   2.689   4.125  10.868 -0.8317 -0.6810 -0.4308
16910TIP3   OH272220   3.914   5.557  14.496 -0.7717  0.8783  0.0806
16910TIP3    H172221   3.899   5.509  14.577 -1.2408  0.3472 -0.3102
16910TIP3    H272222   3.977   5.504  14.447 -0.4267  1.2382  0.1289
16911TIP3   OH272223   4.927   0.519   4.927 -0.2306  0.3273 -0.4580
16911TIP3    H172224   4.855   0.564   4.883 -0.1957 -0.3538 -1.2489
16911TIP3    H272225   5.004   0.573   4.908 -0.0758 -0.3563 -1.9424
16912TIP3   OH272226   3.730   5.505  16.259 -0.1047 -0.6155  0.9971
16912TIP3    H172227   3.638   5.485  16.243 -0.7401 -0.2078  3.6707
16912TIP3    H272228   3.740   5.597  16.232 -0.2689 -0.8747  0.0217
16913TIP3   OH272229   2.421   1.383  12.091 -0.0020  0.1007  0.7740
16913TIP3    H172230   2.373   1.462  12.065 -0.0428 -0.2376 -0.2093
16913TIP3    H272231   2.364   1.339  12.154  0.9739  1.9851  3.1343
16914TIP3   OH272232   2.805   4.386   5.140  0.0085  0.2769 -0.1918
16914TIP3    H172233   2.789   4.332   5.063  0.8952 -2.3156  1.3218
16914TIP3    H272234   2.750   4.347   5.208  0.9035  1.1276  1.0650
16915TIP3   OH272235   5.825   1.631  14.459  0.4201 -0.1042  0.5829
16915TIP3    H172236   5.890   1.679  14.407 -1.6718  1.8952 -0.3808
16915TIP3    H272237   5.772   1.585  14.394 -0.0343 -0.5135  1.2337
16916TIP3   OH272238   6.114   4.645   6.307  0.1387 -0.2558 -0.4256
16916TIP3    H172239   6.113   4.565   6.255 -0.5002 -0.0116 -0.8090
16916TIP3    H272240   6.044   4.632   6.372  1.5939 -0.9839  1.0616
16917TIP3   OH272241   1.049   3.623   4.506  0.3984  0.2649 -0.5122
16917TIP3    H172242   1.090   3.594   4.588  0.2812  0.4872 -0.3736
16917TIP3    H272243   1.063   3.718   4.506  0.1812  0.2955 -0.6308
16918TIP3   OH272244   0.505   3.750  15.345 -0.1990 -0.3184 -0.4565
16918TIP3    H172245   0.460   3.670  15.318 -0.8896  0.0230 -0.3464
16918TIP3    H272246   0.442   3.820  15.327 -0.1653  0.0564  0.7607
16919TIP3   OH272247   5.968   0.683  11.301 -0.6121 -0.1652  0.7809
16919TIP3    H172248   6.038   0.678  11.366  0.5680  1.3745 -0.2736
16919TIP3    H272249   5.996   0.623  11.232  0.4464  1.4177 -0.2530
16920TIP3   OH272250   3.122   1.769   1.221 -0.0287 -0.8286 -0.1151
16920TIP3    H172251   3.080   1.828   1.283  0.0800 -2.2031  1.3201
16920TIP3    H272252   3.104   1.808   1.135 -1.6239  0.2252  0.6485
16921TIP3   OH272253   1.185   4.846   0.273 -0.3862 -0.6301  0.2940
16921TIP3    H172254   1.236   4.775   0.235 -0.1386  0.4128 -1.4185
16921TIP3    H272255   1.117   4.864   0.209 -0.4305  0.6915  0.6852
16922TIP3   OH272256   5.231   0.493  11.989  0.0844  0.1183  0.1390
16922TIP3    H172257   5.214   0.577  12.031 -1.9756  0.0727 -0.4798
16922TIP3    H272258   5.185   0.500  11.905 -1.4656 -2.1527  0.7206
16923TIP3   OH272259   2.041   4.035   3.226 -0.0649 -0.4711 -0.2780
16923TIP3    H172260   2.083   4.021   3.311  0.3215 -0.1271 -0.4114
16923TIP3    H272261   2.068   4.123   3.200  0.6802 -0.9701 -1.2498
16924TIP3   OH272262   1.159   3.561   0.749 -0.3027  0.5945  0.1298
16924TIP3    H172263   1.194   3.648   0.768  0.6733  0.3460 -0.4410
16924TIP3    H272264   1.212   3.501   0.802 -1.5369  0.3957  1.1898
16925TIP3   OH272265   4.152   2.227  16.982  0.0411  0.2859 -0.5700
16925TIP3    H172266   4.176   2.160  16.918 -1.9625 -0.1153 -0.9524
16925TIP3    H272267   4.134   2.178  17.063  2.0161  0.7420  0.2297
16926TIP3   OH272268   3.458   1.256   1.151 -0.2399 -0.5085 -0.2566
16926TIP3    H172269   3.539   1.307   1.156 -0.6673  0.4022 -1.9360
16926TIP3    H272270   3.441   1.247   1.057 -2.0884 -0.6795  0.0566
16927TIP3   OH272271   5.704   1.174  12.923  0.1262 -0.4843  0.3130
16927TIP3    H172272   5.724   1.154  13.014 -0.2963  1.4862  0.9020
16927TIP3    H272273   5.609   1.161  12.915  0.2306 -1.1168  0.0007
16928TIP3   OH272274   2.856   5.091  11.570  0.1412  0.1005 -0.2244
16928TIP3    H172275   2.803   5.045  11.635  0.7157 -0.5522 -0.2160
16928TIP3    H272276   2.944   5.094  11.608  0.2302  0.7415 -0.4622
16929TIP3   OH272277   0.770   3.585  16.295 -0.5895  0.5060  0.4038
16929TIP3    H172278   0.849   3.611  16.248 -0.3363  1.0598  1.1219
16929TIP3    H272279   0.698   3.605  16.235 -0.1751 -0.4300 -0.4413
16930TIP3   OH272280   1.315   2.771  12.632 -0.7596 -0.4224  0.1004
16930TIP3    H172281   1.374   2.701  12.658 -0.0140  0.6780  1.4796
16930TIP3    H272282   1.297   2.754  12.539  0.3333 -1.7551  0.1056
16931TIP3   OH272283   4.363   1.999  15.416 -0.2183  0.2034  0.2176
16931TIP3    H172284   4.292   2.019  15.355 -0.4312 -0.0365  0.3867
16931TIP3    H272285   4.414   1.932  15.372 -0.5387 -0.1792  0.4284
16932TIP3   OH272286   4.548   6.027  12.716  0.0501  0.0313  0.3355
16932TIP3    H172287   4.541   6.063  12.804  1.1885  0.5750  0.2212
16932TIP3    H272288   4.483   6.075  12.665  0.9121  1.3206  0.3960
16933TIP3   OH272289   2.991   6.454   5.296  0.2213  0.0040 -0.3975
16933TIP3    H172290   2.935   6.477   5.222  0.5817 -1.3837 -1.1432
16933TIP3    H272291   2.968   6.516   5.364 -1.4154  0.1848 -1.0695
16934TIP3   OH272292   5.737   2.324  11.539 -0.1046  0.0240 -0.3268
16934TIP3    H172293   5.683   2.402  11.522 -0.7037 -0.1825  0.5916
16934TIP3    H272294   5.812   2.335  11.480 -1.1811  0.2592 -1.7199
16935TIP3   OH272295   3.844   1.975   1.747  0.1309  0.4012  0.1975
16935TIP3    H172296   3.925   2.025   1.731  0.5926  0.0544  1.3880
16935TIP3    H272297   3.857   1.935   1.832 -0.1425 -1.9436 -0.7961
16936TIP3   OH272298   1.164   5.999  11.272  0.0339 -0.3241  0.0439
16936TIP3    H172299   1.155   6.054  11.193  0.4563  0.1801  0.3378
16936TIP3    H272300   1.075   5.989  11.305 -0.2962 -1.4891 -1.1250
16937TIP3   OH272301   3.327   3.225   0.654  0.2959 -0.4744  0.0328
16937TIP3    H172302   3.294   3.284   0.722  0.9621 -1.5711  1.3474
16937TIP3    H272303   3.416   3.204   0.681  0.8335 -0.3989 -1.5671
16938TIP3   OH272304   3.972   0.634   1.183 -0.0566  0.2509 -0.0970
16938TIP3    H172305   3.898   0.574   1.192  0.1217  0.2101  1.2673
16938TIP3    H272306   4.013   0.635   1.270  0.6608  1.4183 -0.4320
16939TIP3   OH272307   5.014   0.337  15.038  0.6848  0.3820  0.1404
16939TIP3    H172308   4.954   0.265  15.058  2.4852 -0.7346  2.0025
16939TIP3    H272309   4.984   0.371  14.954 -1.9097 -0.7346  0.5223
16940TIP3   OH272310   1.744   2.378   3.867  0.4181  0.0010  0.0512
16940TIP3    H172311   1.762   2.397   3.775  0.8287 -0.0669  0.1145
16940TIP3    H272312   1.693   2.453   3.898  3.1104  1.7434  0.6519
16941TIP3   OH272313   1.299   1.736  10.560  0.1320 -0.0320 -0.2154
16941TIP3    H172314   1.286   1.828  10.581 -0.3087 -0.2227  0.3799
16941TIP3    H272315   1.210   1.700  10.554  0.3192 -0.6497  0.6249
16942TIP3   OH272316   2.845   4.096   1.621  0.2399 -0.0849 -0.2761
16942TIP3    H172317   2.872   4.070   1.533  0.1015 -1.1700 -0.0040
16942TIP3    H272318   2.785   4.027   1.649 -0.6607  0.8689  0.2059
16943TIP3   OH272319   3.276   0.415  14.138  0.8049  0.1734 -0.5589
16943TIP3    H172320   3.363   0.375  14.143  2.4371  3.2888 -1.2501
16943TIP3    H272321   3.270   0.446  14.047 -1.6512 -1.1422 -0.9083
16944TIP3   OH272322   1.821   0.536   3.442  0.3355  0.1371  0.1319
16944TIP3    H172323   1.827   0.462   3.381  1.4087 -0.1305  0.5234
16944TIP3    H272324   1.879   0.602   3.404 -0.1201  0.5256  0.1160
16945TIP3   OH272325   1.064   4.825   3.165  0.7574  0.0377  0.3511
16945TIP3    H172326   0.984   4.871   3.142  0.6187 -0.4044 -0.0600
16945TIP3    H272327   1.089   4.862   3.250  0.4531  0.6063  0.1995
16946TIP3   OH272328   4.174   2.725  16.335  0.2809  0.1182 -0.6361
16946TIP3    H172329   4.211   2.707  16.422 -2.8245 -1.4982  0.4908
16946TIP3    H272330   4.192   2.645  16.285 -1.0734 -0.4458 -0.2600
16947TIP3   OH272331   3.050   2.388  12.432 -0.6553  0.1938 -0.0893
16947TIP3    H172332   3.108   2.313  12.448  0.4296  1.1032  0.3732
16947TIP3    H272333   3.002   2.364  12.353  2.3102  0.4976 -2.1344
16948TIP3   OH272334   3.150   0.144  13.005  0.0312 -0.3875  0.4294
16948TIP3    H172335   3.176   0.078  12.941 -0.6576 -0.6834  0.4437
16948TIP3    H272336   3.231   0.166  13.051  0.5387 -0.1698 -0.5371
16949TIP3   OH272337   4.738   2.575  12.304 -0.1008 -0.3684 -0.5436
16949TIP3    H172338   4.802   2.598  12.371  1.2190 -0.2907 -1.7774
16949TIP3    H272339   4.683   2.508  12.345 -0.0066  0.4357  0.9531
16950TIP3   OH272340   2.176   6.489   5.325 -0.0233 -0.1212  0.8388
16950TIP3    H172341   2.241   6.447   5.382 -0.4140 -1.5539  0.2650
16950TIP3    H272342   2.143   6.563   5.377 -0.4113 -1.4010  2.5081
16951TIP3   OH272343   2.084   5.310  11.154 -0.6894  0.4419 -0.3309
16951TIP3    H172344   2.081   5.227  11.107  1.3692 -0.8555  1.6198
16951TIP3    H272345   1.996   5.321  11.190 -0.9453 -0.9922 -0.4719
16952TIP3   OH272346   4.966   6.046   1.679  0.3767 -0.3055 -0.7016
16952TIP3    H172347   4.970   5.968   1.625  1.0036 -0.9168  0.1900
16952TIP3    H272348   5.012   6.113   1.628 -1.5610 -0.0165 -2.1942
16953TIP3   OH272349   0.102   1.606  15.361  0.6412  0.0556  0.5144
16953TIP3    H172350   0.047   1.617  15.284  1.6285 -0.0087 -0.2209
16953TIP3    H272351   0.049   1.553  15.421  0.0631 -0.3531 -0.3414
16954TIP3   OH272352   5.882   6.132   2.693  0.6210  0.1803 -0.3969
16954TIP3    H172353   5.934   6.066   2.739 -1.5963 -0.3803  1.5556
16954TIP3    H272354   5.891   6.211   2.746  2.8908  1.4157 -2.4732
16955TIP3   OH272355   2.819   2.297  16.257 -0.2197  0.5228  0.1588
16955TIP3    H172356   2.912   2.314  16.270 -0.1180  1.2891 -1.3490
16955TIP3    H272357   2.783   2.291  16.346  1.1397  0.8513  0.7602
16956TIP3   OH272358   6.452   2.612   0.248 -0.4668  0.2025 -0.7021
16956TIP3    H172359   6.359   2.626   0.267 -0.5956 -0.0868 -1.1015
16956TIP3    H272360   6.455   2.600   0.153  0.1759  1.7632 -0.9024
16957TIP3   OH272361   2.439   4.898   4.387 -0.2143 -0.2108  0.0568
16957TIP3    H172362   2.373   4.842   4.427 -0.0050 -1.3618 -1.1390
16957TIP3    H272363   2.470   4.849   4.311  0.7455  1.0787 -0.4322
16958TIP3   OH272364   4.006   2.175   2.039 -0.3459  0.5767 -0.1903
16958TIP3    H172365   4.059   2.121   2.098 -1.3626 -0.0928  0.1539
16958TIP3    H272366   4.033   2.265   2.057  1.6306  0.2013 -1.0056
16959TIP3   OH272367   6.271   3.697   1.322  0.0441  0.1989 -0.5314
16959TIP3    H172368   6.191   3.648   1.303 -0.9426  1.5580  0.0067
16959TIP3    H272369   6.342   3.633   1.309 -1.2076 -1.4898  0.5692
16960TIP3   OH272370   0.321   0.660   3.895  0.3033  1.0594 -0.0204
16960TIP3    H172371   0.239   0.659   3.946 -0.8824  0.1656 -1.8401
16960TIP3    H272372   0.381   0.605   3.946 -0.9645 -0.1291  0.2705
16961TIP3   OH272373   6.168   1.811   4.245  0.1710  0.0956  0.2629
16961TIP3    H172374   6.232   1.759   4.197 -0.7163 -0.4811 -0.2970
16961TIP3    H272375   6.222   1.866   4.303  1.1627 -0.5139 -0.0553
16962TIP3   OH272376   3.613   0.702  13.047 -0.1381  0.2615 -0.1687
16962TIP3    H172377   3.549   0.633  13.064  2.1521 -1.8544  0.5349
16962TIP3    H272378   3.673   0.664  12.983  1.3103  1.5231  0.3750
16963TIP3   OH272379   4.803   5.661  13.146 -0.6193 -0.4999  0.1335
16963TIP3    H172380   4.786   5.596  13.077 -5.2203 -1.4882  1.8720
16963TIP3    H272381   4.821   5.608  13.224  2.2328  0.5903  0.3383
16964TIP3   OH272382   2.578   5.140   3.761  0.0871 -0.2709 -0.3377
16964TIP3    H172383   2.589   5.137   3.666 -0.5247 -0.1322 -0.4206
16964TIP3    H272384   2.484   5.155   3.773  0.3830  1.3414  0.2502
16965TIP3   OH272385   0.157   2.016  17.049  0.3736 -0.2087 -0.3142
16965TIP3    H172386   0.076   2.039  17.094  0.7337  1.7918 -0.5922
16965TIP3    H272387   0.172   2.088  16.987  1.5363 -1.3234 -1.3908
16966TIP3   OH272388   4.420   0.331  12.593 -0.2486  0.5665 -0.0078
16966TIP3    H172389   4.370   0.312  12.513  3.0204 -1.7028 -1.7480
16966TIP3    H272390   4.425   0.247  12.638  1.5125  0.8360  0.3491
16967TIP3   OH272391   4.068   6.647   0.539 -0.2938  0.5987  0.1342
16967TIP3    H172392   4.161   6.627   0.544  0.0314  1.5348 -1.4489
16967TIP3    H272393   4.028   6.593   0.607  0.9989 -2.2254 -1.2166
16968TIP3   OH272394   3.468   5.449   2.368 -0.7132 -0.8576 -0.3109
16968TIP3    H172395   3.477   5.354   2.371 -2.0978 -1.0127 -0.5634
16968TIP3    H272396   3.392   5.465   2.313  0.5641  0.4843 -1.7941
16969TIP3   OH272397   6.789   1.470   1.579 -0.0621  0.2024 -0.1861
16969TIP3    H172398   6.813   1.378   1.584  1.1085  0.4907 -0.1109
16969TIP3    H272399   6.797   1.492   1.486  0.9771  0.5440 -0.0285
16970TIP3   OH272400   3.382   0.136  13.226  0.2956 -0.0410  0.0021
16970TIP3    H172401   3.357   0.228  13.232  1.2395  0.3591 -1.4920
16970TIP3    H272402   3.474   0.134  13.254 -0.0099 -0.7181  1.0180
16971TIP3   OH272403   0.257   1.614  15.873 -0.2094  0.4616  0.3799
16971TIP3    H172404   0.351   1.602  15.855 -0.0834  2.4885 -0.6420
16971TIP3    H272405   0.235   1.545  15.935  1.8533 -0.3612  0.2691
16972TIP3   OH272406   3.086   2.684  16.050  0.2118  0.1783  0.1026
16972TIP3    H172407   3.014   2.693  16.112  1.3814  2.1661  1.3204
16972TIP3    H272408   3.065   2.606  15.999 -0.5054 -2.0484  3.4472
16973TIP3   OH272409   1.838   3.240  15.160  0.0414 -0.0951 -0.1749
16973TIP3    H172410   1.857   3.230  15.067  1.5829  0.0371  0.0904
16973TIP3    H272411   1.872   3.327  15.182  0.2327 -0.3611  0.6230
16974TIP3   OH272412   0.486   1.322   1.774 -0.7838 -0.1216 -0.1122
16974TIP3    H172413   0.520   1.366   1.697  0.1318 -0.8587 -0.1559
16974TIP3    H272414   0.562   1.313   1.832 -1.1672 -0.7150  0.3171
16975TIP3   OH272415   6.774   6.480  12.718 -0.5815 -0.4248 -1.0655
16975TIP3    H172416   6.685   6.508  12.698 -0.4601  0.8841  0.0739
16975TIP3    H272417   6.804   6.541  12.786 -0.1023 -3.0379  1.2487
16976TIP3   OH272418   5.166   5.539  12.150  0.2158  0.4583  0.2379
16976TIP3    H172419   5.244   5.562  12.100 -0.2139  0.1697 -0.5877
16976TIP3    H272420   5.177   5.446  12.170 -1.3953 -0.4921 -2.7426
16977TIP3   OH272421   6.633   1.462   1.812 -0.4415  0.1863 -0.4725
16977TIP3    H172422   6.687   1.459   1.733 -1.5849  0.5308 -1.2838
16977TIP3    H272423   6.583   1.380   1.810 -0.8761  0.4459 -0.3960
16978TIP3   OH272424   1.636   0.232  13.302 -0.4435  0.2604 -0.2058
16978TIP3    H172425   1.665   0.141  13.312  0.2758  0.6275  1.4118
16978TIP3    H272426   1.603   0.256  13.388 -0.1764  1.6764 -0.4722
16979TIP3   OH272427   0.359   2.876   4.284  0.6643 -0.1653 -0.0972
16979TIP3    H172428   0.288   2.918   4.332  1.1414 -0.0899  0.5504
16979TIP3    H272429   0.347   2.783   4.298  0.4921 -0.1701 -0.2749
16980TIP3   OH272430   5.771   4.011   4.384  0.6371 -0.5855 -0.0383
16980TIP3    H172431   5.769   3.965   4.468 -0.4860  1.0932  0.9086
16980TIP3    H272432   5.715   4.087   4.397  1.1200  0.1774 -2.0651
16981TIP3   OH272433   1.024   3.660  15.816 -0.0577 -0.2975  0.3495
16981TIP3    H172434   1.088   3.696  15.877 -0.6300 -0.4920  1.0729
16981TIP3    H272435   0.999   3.576  15.854 -0.1065 -0.6250 -0.3758
16982TIP3   OH272436   0.593   0.148  12.074 -0.3342  0.2262 -0.1594
16982TIP3    H172437   0.511   0.101  12.090  0.0745 -0.3850  0.1989
16982TIP3    H272438   0.566   0.238  12.058 -0.9891  0.3632  1.4678
16983TIP3   OH272439   6.812   4.349   0.575  0.0362 -0.2427  1.1127
16983TIP3    H172440   6.834   4.421   0.516 -0.6788 -0.1020  1.0125
16983TIP3    H272441   6.722   4.326   0.552 -0.9634  1.0648  3.3571
16984TIP3   OH272442   1.415   3.191  12.583 -0.0541  0.2802  0.2821
16984TIP3    H172443   1.380   3.224  12.500 -0.3421 -0.0448  0.2665
16984TIP3    H272444   1.502   3.229  12.590 -0.1236  0.5048 -0.0535
16985TIP3   OH272445   4.843   4.055  10.875  0.1358 -0.4305 -0.3487
16985TIP3    H172446   4.919   4.113  10.882 -0.8540  0.9657 -0.5323
16985TIP3    H272447   4.877   3.975  10.835  1.0914  1.0421 -2.7012
16986TIP3   OH272448   1.566   1.103  15.541 -0.3668  0.4639  0.7066
16986TIP3    H172449   1.531   1.171  15.484  2.4819 -0.1566 -2.0544
16986TIP3    H272450   1.638   1.145  15.588 -0.6557  0.1427  1.4560
16987TIP3   OH272451   4.187   3.023   2.071 -0.0297  0.2402 -0.4835
16987TIP3    H172452   4.269   3.050   2.030 -0.1197 -1.1641 -1.6950
16987TIP3    H272453   4.214   2.967   2.144  0.1043  1.1500  0.1729
16988TIP3   OH272454   1.870   6.749  16.766 -0.3861  0.6168 -0.3001
16988TIP3    H172455   1.803   6.818  16.763 -2.0003 -0.8114  1.1959
16988TIP3    H272456   1.946   6.789  16.724 -2.1299  2.3196 -2.0953
16989TIP3   OH272457   1.469   2.996  12.777  0.2810  0.1644  0.4003
16989TIP3    H172458   1.470   3.061  12.707 -1.0246 -0.3945 -0.1682
16989TIP3    H272459   1.402   2.933  12.751  0.1281 -0.3449  1.9035
16990TIP3   OH272460   6.796   0.379   1.723 -0.5163 -0.0486 -0.4666
16990TIP3    H172461   6.823   0.333   1.643  0.4267 -2.0843  0.9296
16990TIP3    H272462   6.710   0.344   1.744  0.1130 -1.0696  0.4892
16991TIP3   OH272463   3.757   5.207  10.632 -0.8555 -0.0891 -0.3417
16991TIP3    H172464   3.674   5.183  10.673 -1.9664 -0.6744 -2.7756
16991TIP3    H272465   3.734   5.273  10.567  0.5108 -0.5406 -1.3317
16992TIP3   OH272466   6.127   2.788   4.031 -0.2553 -0.4057  0.2152
16992TIP3    H172467   6.063   2.811   4.099  0.7098  0.2171  0.9498
16992TIP3    H272468   6.120   2.860   3.967 -0.2832 -0.3292  0.3033
16993TIP3   OH272469   3.566   0.980  11.149 -0.0932 -0.2203  0.4645
16993TIP3    H172470   3.513   0.910  11.111  1.2388 -0.8545 -0.3353
16993TIP3    H272471   3.599   0.944  11.231 -0.2262 -0.1438  0.5516
16994TIP3   OH272472   2.421   0.892   0.187  0.0467  0.0827 -0.3961
16994TIP3    H172473   2.442   0.984   0.168 -0.2442 -0.1078 -1.7621
16994TIP3    H272474   2.488   0.865   0.250  1.7860  0.5119 -1.9572
16995TIP3   OH272475   2.491   5.289  15.382  0.4423  0.0087  0.0149
16995TIP3    H172476   2.541   5.233  15.440 -0.0396 -0.2458  0.1886
16995TIP3    H272477   2.538   5.287  15.299  1.1170  0.3533  0.3843
16996TIP3   OH272478   0.550   2.018  12.303  0.8387 -0.1141 -0.0855
16996TIP3    H172479   0.639   2.038  12.331  0.8888 -0.5656  0.0897
16996TIP3    H272480   0.548   2.038  12.210  0.8011  0.9828  0.1334
16997TIP3   OH272481   6.316   0.167   5.406 -0.7334 -0.3954 -0.6196
16997TIP3    H172482   6.354   0.132   5.487 -2.0731 -0.6896 -0.1031
16997TIP3    H272483   6.392   0.183   5.350  0.3180  0.8016  1.0598
16998TIP3   OH272484   2.222   0.258  11.589  0.4849  0.3608  0.3616
16998TIP3    H172485   2.145   0.292  11.635 -0.3852 -0.0274 -0.7609
16998TIP3    H272486   2.296   0.302  11.631 -0.2696  0.1331  2.0121
16999TIP3   OH272487   3.188   0.578   2.303 -0.3234  0.6512  0.6242
16999TIP3    H172488   3.130   0.637   2.256 -1.1405  0.1284  0.9495
16999TIP3    H272489   3.179   0.494   2.258  1.8242  1.0404 -0.6618
17000TIP3   OH272490   5.543   0.308   2.074 -0.4303  0.1915 -0.3443
17000TIP3    H172491   5.514   0.373   2.010  0.4621  1.1324  0.1840
17000TIP3    H272492   5.558   0.358   2.154  1.5368 -0.4253 -0.2783
17001TIP3   OH272493   6.072   2.882  15.005 -0.8493 -0.5570 -0.4419
17001TIP3    H172494   6.153   2.893  15.055 -1.2315 -1.0158  0.3059
17001TIP3    H272495   6.036   2.970  14.998 -1.3107 -0.6029  1.0149
17002TIP3   OH272496   3.674   3.463   3.469  0.2182  0.1901 -0.2674
17002TIP3    H172497   3.676   3.556   3.447 -0.1964  0.0336 -1.0049
17002TIP3    H272498   3.713   3.419   3.394  1.1232 -0.1828  0.4063
17003TIP3   OH272499   4.675   0.117   5.139 -0.0922  0.0192  0.0985
17003TIP3    H172500   4.591   0.125   5.183 -1.3972 -2.1728 -1.8121
17003TIP3    H272501   4.740   0.129   5.209 -1.9548  0.7282  1.7968
17004TIP3   OH272502   2.263   2.468   0.843 -0.4215 -0.1154  0.3952
17004TIP3    H172503   2.290   2.491   0.754 -0.1845  1.4649  0.8464
17004TIP3    H272504   2.343   2.475   0.895 -0.5454 -1.0890  0.7280
17005TIP3   OH272505   4.801   3.318  12.465  0.1836  0.4311 -0.5000
17005TIP3    H172506   4.852   3.251  12.512  0.0252 -0.0185 -0.9653
17005TIP3    H272507   4.828   3.309  12.374  0.8126  1.5971 -0.4427
17006TIP3   OH272508   6.002   6.326   3.041  0.4763  0.5024 -0.2173
17006TIP3    H172509   6.009   6.421   3.032  0.9697  0.5099  0.2069
17006TIP3    H272510   6.078   6.292   2.993 -0.6998  0.2261 -1.9664
17007TIP3   OH272511   3.677   0.289   4.262 -0.2856  0.0232  0.0924
17007TIP3    H172512   3.622   0.310   4.337  0.3063  0.4130  0.4267
17007TIP3    H272513   3.664   0.195   4.249 -2.6654  0.4533 -1.1730
17008TIP3   OH272514   6.540   5.703  12.820  0.0787  0.0239 -0.2999
17008TIP3    H172515   6.473   5.636  12.829  0.0010  0.2551  1.0552
17008TIP3    H272516   6.620   5.662  12.853  0.2310  0.2975 -0.3254
17009TIP3   OH272517   5.925   2.938  13.903 -0.2371 -0.0732 -0.0171
17009TIP3    H172518   5.854   2.892  13.858 -0.7263  0.6706 -0.0201
17009TIP3    H272519   6.000   2.878  13.897 -0.9156 -0.9536  0.1695
17010TIP3   OH272520   5.764   5.924  16.643 -0.3259 -0.5376 -0.6022
17010TIP3    H172521   5.806   5.850  16.685  0.7483 -1.0688 -2.4955
17010TIP3    H272522   5.765   5.903  16.550 -0.7727  1.4702 -1.1224
17011TIP3   OH272523   1.604   4.906   1.930  0.2023 -0.3976 -0.5260
17011TIP3    H172524   1.546   4.964   1.880  1.0792  2.1191  1.1902
17011TIP3    H272525   1.669   4.878   1.867 -0.8821 -0.4602 -1.6649
17012TIP3   OH272526   3.786   3.671  16.119 -0.3229  0.2874  0.2118
17012TIP3    H172527   3.784   3.687  16.024 -0.9745  0.7591  0.2954
17012TIP3    H272528   3.707   3.714  16.152 -0.2984 -0.1973  0.9247
17013TIP3   OH272529   2.835   2.172   3.290 -0.0288 -0.4327 -0.1021
17013TIP3    H172530   2.801   2.260   3.311 -0.0363 -0.4626  0.0119
17013TIP3    H272531   2.902   2.157   3.356  0.8320 -0.0060 -0.8648
17014TIP3   OH272532   6.495   0.387   4.324  0.2027  0.7634  0.5079
17014TIP3    H172533   6.569   0.400   4.265  0.2709  0.8983  0.6232
17014TIP3    H272534   6.422   0.366   4.267  0.6745 -0.9239  0.4848
17015TIP3   OH272535   6.598   3.764   5.356 -0.4350 -0.0486 -0.2155
17015TIP3    H172536   6.518   3.712   5.343 -0.4792  0.2922 -1.4871
17015TIP3    H272537   6.647   3.715   5.421 -1.0056 -1.0828 -0.5253
17016TIP3   OH272538   0.486   4.869   2.632 -0.2109 -0.2572  1.0619
17016TIP3    H172539   0.515   4.924   2.704  0.4621 -0.8541  1.2499
17016TIP3    H272540   0.549   4.886   2.562  0.4171 -1.3081  1.3594
17017TIP3   OH272541   1.095   1.556  15.189  0.1226 -0.0540 -0.1808
17017TIP3    H172542   1.046   1.598  15.119  2.1637 -0.4074 -1.9219
17017TIP3    H272543   1.088   1.616  15.263  1.0179  2.2775 -1.8648
17018TIP3   OH272544   4.700   0.442  16.123  0.4604 -0.0862 -0.6460
17018TIP3    H172545   4.779   0.493  16.108 -0.1406  0.5107 -1.9495
17018TIP3    H272546   4.686   0.447  16.217  1.9162 -0.1302 -0.4079
17019TIP3   OH272547   4.889   0.355   0.465 -0.2424 -0.0279 -0.1790
17019TIP3    H172548   4.900   0.449   0.474  0.1280  0.0569 -1.3446
17019TIP3    H272549   4.960   0.328   0.407 -0.6161 -0.9565 -0.2282
17020TIP3   OH272550   0.809   3.480   6.113  0.1340  0.1112 -0.2263
17020TIP3    H172551   0.728   3.528   6.127 -0.0379 -0.5129  1.0611
17020TIP3    H272552   0.877   3.547   6.110 -0.3614  0.6032 -0.8763
17021TIP3   OH272553   5.512   6.678  12.730 -0.7494 -0.0348  0.6029
17021TIP3    H172554   5.550   6.759  12.696 -0.3887 -0.5015 -0.1213
17021TIP3    H272555   5.452   6.707  12.798  0.7258  0.7406  1.6325
17022TIP3   OH272556   5.632   0.663   4.621  0.4402  0.8787  0.3290
17022TIP3    H172557   5.705   0.723   4.603 -0.1631  1.5416  0.0313
17022TIP3    H272558   5.640   0.594   4.555 -0.1629  1.8429 -0.7878
17023TIP3   OH272559   0.600   4.705  15.763 -0.1504 -0.0012 -0.1549
17023TIP3    H172560   0.597   4.609  15.759  0.5448 -0.0333 -0.0539
17023TIP3    H272561   0.653   4.730  15.688 -0.4267  0.3164 -0.2452
17024TIP3   OH272562   3.962   6.100  13.079  0.2003  0.1659 -0.5054
17024TIP3    H172563   3.900   6.133  13.014  0.4182  0.1697 -0.7101
17024TIP3    H272564   3.906   6.056  13.143 -0.0801  0.7853 -0.3103
17025TIP3   OH272565   5.148   0.101  14.592  0.8068  0.6940 -0.1884
17025TIP3    H172566   5.096   0.171  14.630 -0.6269 -0.4112 -0.0247
17025TIP3    H272567   5.090   0.060  14.528  0.7889 -1.7361  1.2844
17026TIP3   OH272568   5.326   1.529   3.556 -0.2666 -0.3016  0.4578
17026TIP3    H172569   5.371   1.536   3.641  1.1295  0.0161 -0.2850
17026TIP3    H272570   5.233   1.534   3.579  0.0923  1.9616  1.8244
17027TIP3   OH272571   4.148   3.117  15.484 -0.1053 -0.0556  0.5288
17027TIP3    H172572   4.117   3.205  15.504  1.1484  0.2587  1.1801
17027TIP3    H272573   4.130   3.067  15.563 -0.3333 -0.2594  0.3499
17028TIP3   OH272574   3.157   4.062   2.211 -0.3216 -0.5432  0.3343
17028TIP3    H172575   3.156   4.149   2.249  1.8927 -0.0293 -0.5933
17028TIP3    H272576   3.074   4.055   2.164 -0.2921  1.3085 -0.0747
17029TIP3   OH272577   4.765   2.817   1.506  0.4491 -0.1377 -0.1908
17029TIP3    H172578   4.708   2.744   1.484  0.5409  0.1125 -1.2934
17029TIP3    H272579   4.853   2.778   1.511  0.2912 -0.3929  0.8294
17030TIP3   OH272580   1.027   2.186   0.723  0.9905 -0.4939 -0.6010
17030TIP3    H172581   1.039   2.253   0.655 -1.8804  1.2836  0.4497
17030TIP3    H272582   0.995   2.109   0.675  1.0185  0.0385 -1.5001
17031TIP3   OH272583   2.658   1.415   5.703 -0.0050 -0.1314 -0.5035
17031TIP3    H172584   2.564   1.405   5.718  0.5843 -0.3991  5.1161
17031TIP3    H272585   2.673   1.509   5.707  0.0795 -0.1669  0.1500
17032TIP3   OH272586   1.010   3.127  15.826 -0.1147  0.0984  0.2853
17032TIP3    H172587   1.011   3.045  15.776  0.5250  0.5677 -0.5195
17032TIP3    H272588   1.094   3.169  15.804  0.9177 -0.3755  2.9862
17033TIP3   OH272589   4.573   2.640   1.424  0.3615  0.2696 -0.8911
17033TIP3    H172590   4.517   2.637   1.346  0.8373  0.8748 -1.2652
17033TIP3    H272591   4.586   2.548   1.448 -1.2482  0.1297 -0.4523
17034TIP3   OH272592   0.934   1.504   0.515 -0.2400  0.3464  0.2811
17034TIP3    H172593   0.957   1.500   0.608  0.5739 -0.2507  0.0643
17034TIP3    H272594   0.977   1.429   0.476 -2.1712 -0.5451 -0.2597
17035TIP3   OH272595   6.213   6.622   6.276  0.6141  0.6356  0.5110
17035TIP3    H172596   6.223   6.533   6.310 -1.1791 -0.0667 -0.6681
17035TIP3    H272597   6.166   6.670   6.346 -1.2758 -0.2576 -0.0764
17036TIP3   OH272598   4.714   6.662  17.089 -0.3435 -0.6813 -0.0153
17036TIP3    H172599   4.802   6.667  17.052  0.2601 -0.0425  1.4187
17036TIP3    H272600   4.681   6.751  17.086 -1.0182 -0.9483 -0.7066
17037TIP3   OH272601   0.461   0.875  16.505 -0.0552 -0.5878  0.0528
17037TIP3    H172602   0.530   0.820  16.468  2.3031  0.6305  2.3216
17037TIP3    H272603   0.474   0.961  16.464 -0.1147 -0.3188  0.5867
17038TIP3   OH272604   0.351   3.101   4.665  0.3581 -0.0909 -0.5531
17038TIP3    H172605   0.406   3.160   4.612  1.1207 -0.3145 -0.0283
17038TIP3    H272606   0.279   3.156   4.694  1.0900  0.6140 -0.0205
17039TIP3   OH272607   2.624   4.614  16.806 -0.4489 -0.3370 -0.2332
17039TIP3    H172608   2.609   4.662  16.887 -1.3035  0.9232 -1.1017
17039TIP3    H272609   2.547   4.558  16.796 -0.8406  0.2610 -0.6656
17040TIP3   OH272610   2.939   5.171   6.228 -0.0355 -0.3024  0.2547
17040TIP3    H172611   2.853   5.214   6.228  0.3414  0.4667  0.6413
17040TIP3    H272612   2.971   5.182   6.139  0.5166  1.1798  0.6090
17041TIP3   OH272613   5.662   2.567  10.941 -0.1891  0.0832 -0.0911
17041TIP3    H172614   5.659   2.608  11.028 -0.6078  0.3285 -0.2168
17041TIP3    H272615   5.663   2.640  10.880  1.5584 -0.0669 -0.2767
17042TIP3   OH272616   5.357   2.968  11.886  0.1879 -0.3736  0.1073
17042TIP3    H172617   5.389   2.891  11.933 -0.6683 -1.2806 -0.7618
17042TIP3    H272618   5.397   2.961  11.800 -1.3388 -0.8706 -0.5930
17043TIP3   OH272619   3.830   2.810   1.545  0.1252  0.8107 -0.3912
17043TIP3    H172620   3.911   2.848   1.511  1.0721 -1.6373 -1.1065
17043TIP3    H272621   3.821   2.728   1.498 -2.2969  0.5594  0.3799
17044TIP3   OH272622   3.904   2.630   0.169 -0.1413  0.2582 -0.2008
17044TIP3    H172623   3.897   2.537   0.191  1.8784  0.2074  0.3540
17044TIP3    H272624   3.814   2.663   0.175 -0.6628 -1.3058  1.1689
17045TIP3   OH272625   6.003   0.895   1.196  0.0250  0.1066  0.1701
17045TIP3    H172626   5.962   0.931   1.274 -0.8465 -0.5186  0.0186
17045TIP3    H272627   5.980   0.803   1.197  0.2470  0.0318 -0.6759
17046TIP3   OH272628   3.315   0.888   3.995 -0.3159 -0.0248  0.3756
17046TIP3    H172629   3.279   0.897   3.907 -2.4307  0.8729  1.2761
17046TIP3    H272630   3.370   0.965   4.007  2.6905 -1.7093 -1.2357
17047TIP3   OH272631   2.491   3.118   4.923  0.0593 -0.0419 -0.8557
17047TIP3    H172632   2.572   3.077   4.893  0.8559  0.4568  0.5368
17047TIP3    H272633   2.489   3.203   4.879 -0.2198 -0.4385 -1.6347
17048TIP3   OH272634   1.904   2.345  12.469  0.6107  0.0762  0.4094
17048TIP3    H172635   1.931   2.379  12.554 -0.6281 -0.6560  1.1342
17048TIP3    H272636   1.816   2.380  12.456  0.7064  0.0100 -0.4802
17049TIP3   OH272637   6.761   3.366  17.231  0.0901  0.7851  0.3260
17049TIP3    H172638   6.731   3.336  17.145  0.9376 -0.7297  0.5273
17049TIP3    H272639   6.712   3.312  17.293  1.5284 -0.1226  0.7072
17050TIP3   OH272640   5.795   4.551  14.850  0.0541  0.1453 -0.4485
17050TIP3    H172641   5.839   4.609  14.788 -0.8492  1.5856  0.2201
17050TIP3    H272642   5.702   4.564  14.834 -0.1782 -0.1554  0.6032
17051TIP3   OH272643   2.808   2.478  14.955  0.2221 -0.1522 -0.0646
17051TIP3    H172644   2.791   2.547  14.891  0.7203 -0.4649 -0.5498
17051TIP3    H272645   2.871   2.420  14.911 -0.3660 -1.0382  0.2390
17052TIP3   OH272646   2.543   3.943  13.329 -0.7863  0.0745  0.0147
17052TIP3    H172647   2.532   4.030  13.368 -0.2008 -0.0193  0.4053
17052TIP3    H272648   2.533   3.958  13.235 -1.5341  0.4168  0.1408
17053TIP3   OH272649   6.380   4.539  13.068 -0.1310 -0.5877 -0.0455
17053TIP3    H172650   6.316   4.584  13.123 -0.8423  0.5890 -1.7476
17053TIP3    H272651   6.328   4.502  12.996  1.0489  0.1046 -1.2901
17054TIP3   OH272652   2.808   3.682   1.668 -0.1270 -0.3845  0.1025
17054TIP3    H172653   2.733   3.625   1.652 -0.1514 -0.2329 -0.3475
17054TIP3    H272654   2.797   3.714   1.757 -0.6975 -0.2130 -0.0292
17055TIP3   OH272655   3.053   5.090  11.766 -0.0103  0.6794  0.0951
17055TIP3    H172656   3.057   4.997  11.785 -0.9575  0.7386  0.6254
17055TIP3    H272657   2.987   5.125  11.825 -0.2595  1.5446 -0.6561
17056TIP3   OH272658   6.700   0.723  12.179 -0.0546  0.5513  0.0985
17056TIP3    H172659   6.761   0.727  12.105  0.9477 -0.4089  0.8281
17056TIP3    H272660   6.757   0.709  12.256 -1.1854 -0.4034  0.8036
17057TIP3   OH272661   0.881   1.976   3.168  0.0446  0.1809 -0.5546
17057TIP3    H172662   0.844   2.054   3.211  1.3890  1.8341 -2.2261
17057TIP3    H272663   0.807   1.939   3.121 -0.4295  0.9811 -0.4723
17058TIP3   OH272664   6.776   5.781  10.826  0.1319  0.2562  0.5656
17058TIP3    H172665   6.731   5.795  10.742  1.0420  2.6898  0.4201
17058TIP3    H272666   6.769   5.686  10.841 -1.0267 -0.0843 -1.6875
17059TIP3   OH272667   0.833   3.519   3.454  0.0316  0.4549 -0.1787
17059TIP3    H172668   0.806   3.456   3.521  0.1480  1.0251  0.4124
17059TIP3    H272669   0.782   3.495   3.377  1.0165 -1.1906 -0.3705
17060TIP3   OH272670   0.770   6.788   6.232 -0.2176  0.9170  0.3058
17060TIP3    H172671   0.802   6.706   6.269 -1.5311  0.0649 -0.3337
17060TIP3    H272672   0.778   6.852   6.302 -0.5413 -0.1260  1.3230
17061TIP3   OH272673   0.429   4.478  17.133 -0.2458 -0.3789 -0.2171
17061TIP3    H172674   0.410   4.387  17.155 -1.0757 -0.3795 -0.8887
17061TIP3    H272675   0.433   4.480  17.038 -1.4590  0.5116 -0.2681
17062TIP3   OH272676   3.986   5.541  11.442  0.2161 -0.0115 -0.9017
17062TIP3    H172677   4.035   5.611  11.486 -0.8763 -0.7369  1.6873
17062TIP3    H272678   4.047   5.467  11.442 -0.1434 -0.3571  0.6070
17063TIP3   OH272679   6.685   5.046   3.618  0.0990  0.4869 -1.1253
17063TIP3    H172680   6.607   5.100   3.631 -0.7079 -0.9047  0.1446
17063TIP3    H272681   6.721   5.076   3.535  0.1818  3.5261 -0.1342
17064TIP3   OH272682   4.650   6.642   1.203  0.3734  0.0426 -0.0770
17064TIP3    H172683   4.709   6.619   1.275  0.2030 -2.4408 -0.6449
17064TIP3    H272684   4.566   6.657   1.245  0.8258  1.1957  0.4726
17065TIP3   OH272685   3.230   4.497   5.689  0.8921  0.0711 -0.4155
17065TIP3    H172686   3.321   4.508   5.662  0.5120 -0.8991 -2.2208
17065TIP3    H272687   3.179   4.539   5.620 -0.1130 -2.1466 -1.1232
17066TIP3   OH272688   4.947   3.813   1.747  0.1134 -0.4161 -0.0374
17066TIP3    H172689   4.879   3.791   1.811  0.6422 -0.3163  0.5660
17066TIP3    H272690   5.029   3.803   1.794  0.4485  1.5646 -0.1067
17067TIP3   OH272691   1.099   1.866   1.159 -0.1786  0.3639 -0.3275
17067TIP3    H172692   1.049   1.795   1.198  1.4051 -0.6746 -0.1025
17067TIP3    H272693   1.047   1.945   1.177 -1.7653 -0.6602 -0.2378
17068TIP3   OH272694   1.118   1.207   2.412  0.3016  0.6128 -0.5673
17068TIP3    H172695   1.081   1.294   2.427  0.1922  0.5738 -0.6081
17068TIP3    H272696   1.213   1.219   2.422  0.1579  0.2976  1.5545
17069TIP3   OH272697   4.873   4.600  12.673 -0.4812  0.6072  0.4880
17069TIP3    H172698   4.913   4.534  12.617 -1.6069 -0.1877  0.6088
17069TIP3    H272699   4.781   4.602  12.648 -0.7929  0.9750  1.5909
17070TIP3   OH272700   4.440   5.864   2.878 -0.1250  0.0682  0.1495
17070TIP3    H172701   4.415   5.930   2.813  0.5610 -1.1510 -1.4356
17070TIP3    H272702   4.366   5.803   2.879  1.1533 -1.6604 -1.9680
17071TIP3   OH272703   3.684   5.031  14.119  0.2570 -0.1128 -0.3106
17071TIP3    H172704   3.722   4.976  14.050  0.0158  0.3304 -0.7980
17071TIP3    H272705   3.672   5.116  14.078  0.4441  0.2586  0.3865
17072TIP3   OH272706   3.786   4.455  16.485  0.1230 -0.0723 -0.2560
17072TIP3    H172707   3.759   4.471  16.395 -0.6220  1.0846  0.1340
17072TIP3    H272708   3.741   4.524  16.535  1.3008 -0.0802  0.8609
17073TIP3   OH272709   1.672   5.149  15.431 -0.0145  0.7726 -0.0402
17073TIP3    H172710   1.634   5.123  15.347 -1.3845  2.9866 -0.1744
17073TIP3    H272711   1.606   5.206  15.471  0.8327  0.2088  2.3229
17074TIP3   OH272712   3.173   2.313  15.827  0.8251 -0.4396 -0.5338
17074TIP3    H172713   3.112   2.383  15.804  1.1631 -0.3400 -1.1450
17074TIP3    H272714   3.122   2.254  15.884  1.2533  1.6134  2.1818
17075TIP3   OH272715   4.854   0.839   3.736  0.8546  0.4034 -0.7114
17075TIP3    H172716   4.766   0.876   3.749  1.6608  1.9201  0.8464
17075TIP3    H272717   4.847   0.748   3.766 -0.1006  0.6178 -0.2337
17076TIP3   OH272718   4.612   4.411   5.365  0.2613  0.1913  0.4611
17076TIP3    H172719   4.569   4.348   5.423  0.1256  1.7397  2.1564
17076TIP3    H272720   4.542   4.471   5.340  0.8001  0.9360  0.7008
17077TIP3   OH272721   6.684   4.947   2.007 -0.0565 -0.2981  0.0182
17077TIP3    H172722   6.649   4.942   1.918  1.1025 -1.7457 -0.3970
17077TIP3    H272723   6.620   5.000   2.055 -0.4247  0.9756 -1.7861
17078TIP3   OH272724   4.776   4.661   5.318  0.1904  0.0554  0.4220
17078TIP3    H172725   4.757   4.568   5.329 -0.0384  0.1274  0.6701
17078TIP3    H272726   4.757   4.699   5.404 -1.1543  0.5655 -0.0765
17079TIP3   OH272727   2.836   2.170  14.166 -0.1863 -0.5361 -0.2206
17079TIP3    H172728   2.865   2.237  14.227 -1.4732  1.8616 -2.0802
17079TIP3    H272729   2.767   2.123  14.213 -0.2723  0.3938  0.6089
17080TIP3   OH272730   4.599   3.199  15.107 -0.4147  0.4941  0.6819
17080TIP3    H172731   4.634   3.284  15.082 -1.3873  0.3609 -1.3643
17080TIP3    H272732   4.504   3.207  15.093 -0.6931 -0.5124  1.7975
17081TIP3   OH272733   6.343   0.441   2.815  0.3764  0.0039  0.3421
17081TIP3    H172734   6.301   0.384   2.879 -0.0671 -0.0147  0.0415
17081TIP3    H272735   6.434   0.412   2.813 -0.0191 -1.3041 -0.4375
17082TIP3   OH272736   5.394   5.844   6.453  1.0917 -0.3323 -0.2211
17082TIP3    H172737   5.322   5.787   6.481 -1.1854  2.6276  0.4578
17082TIP3    H272738   5.443   5.862   6.533  1.5658 -1.0103 -0.3582
17083TIP3   OH272739   5.472   5.050   5.958  0.1568 -0.2542 -0.6337
17083TIP3    H172740   5.443   5.139   5.981 -3.3495 -1.5015  0.4606
17083TIP3    H272741   5.504   5.013   6.040  1.2561 -0.1651 -1.0076
17084TIP3   OH272742   6.573   1.124  14.849  0.3498  0.3955  0.2065
17084TIP3    H172743   6.566   1.217  14.869  0.5334  0.3778  0.3487
17084TIP3    H272744   6.593   1.082  14.932  3.6231  0.5908 -0.3437
17085TIP3   OH272745   2.078   4.071   2.515  0.5705 -0.2184 -0.1688
17085TIP3    H172746   2.067   4.006   2.446  2.2634  1.0305 -1.7410
17085TIP3    H272747   2.149   4.038   2.569  0.3276 -0.4378  0.0173
17086TIP3   OH272748   1.441   3.825  13.411 -0.2334 -0.1538  0.3178
17086TIP3    H172749   1.434   3.871  13.327 -0.6301  1.8797  1.4039
17086TIP3    H272750   1.386   3.747  13.400 -1.0909  0.5954 -0.9779
17087TIP3   OH272751   0.236   6.713   3.801 -0.4218 -0.3221 -0.0149
17087TIP3    H172752   0.157   6.723   3.747 -1.9044 -1.7472  1.7592
17087TIP3    H272753   0.275   6.631   3.772 -0.3580 -0.3165  0.0547
17088TIP3   OH272754   5.657   6.562   5.191  0.2405  0.0437  0.5683
17088TIP3    H172755   5.732   6.611   5.157  2.1496 -1.1388  2.7973
17088TIP3    H272756   5.599   6.628   5.227  0.0990  0.9936 -1.3018
17089TIP3   OH272757   5.365   3.584  13.990  0.3435  0.4480  0.0998
17089TIP3    H172758   5.352   3.671  14.029  0.6467  1.3709 -1.7625
17089TIP3    H272759   5.277   3.548  13.983  0.3176 -0.0537  2.1973
17090TIP3   OH272760   2.392   3.284   0.497 -0.1487 -0.3164  0.0368
17090TIP3    H172761   2.364   3.374   0.482 -1.8638 -0.6421  0.9502
17090TIP3    H272762   2.339   3.232   0.437  0.3159 -0.7752  0.0191
17091TIP3   OH272763   1.032   6.105   3.392 -0.5366 -0.3033 -0.6128
17091TIP3    H172764   0.961   6.077   3.449  0.7779 -0.8020  0.8199
17091TIP3    H272765   1.100   6.040   3.404  0.3679  0.4261 -1.6000
17092TIP3   OH272766   2.795   0.391  17.238 -0.3725  0.6079  0.8647
17092TIP3    H172767   2.715   0.387  17.290  0.4939 -0.0421  2.1978
17092TIP3    H272768   2.847   0.317  17.268  0.3775  0.4982 -0.6062
17093TIP3   OH272769   1.272   5.818   0.491  0.0652 -0.3603  0.1985
17093TIP3    H172770   1.338   5.855   0.549 -0.5995  0.1465  0.6573
17093TIP3    H272771   1.293   5.853   0.405 -1.0163  1.8437  0.7350
17094TIP3   OH272772   5.769   4.816  11.654 -0.0286  0.2645 -0.5021
17094TIP3    H172773   5.813   4.774  11.728  1.1268  0.4647 -1.0555
17094TIP3    H272774   5.807   4.775  11.577 -0.2952  0.9528 -1.0097
17095TIP3   OH272775   4.085   0.515   5.550  0.2894 -0.0282  0.1833
17095TIP3    H172776   4.064   0.593   5.602 -0.1082  0.0493 -0.0919
17095TIP3    H272777   4.180   0.519   5.538  0.1730  0.8508 -0.5210
17096TIP3   OH272778   3.792   1.580   5.044 -0.7378 -0.6873  0.2597
17096TIP3    H172779   3.853   1.508   5.029  1.2470  1.3028 -2.0132
17096TIP3    H272780   3.758   1.601   4.957 -1.9371  0.5839  0.9902
17097TIP3   OH272781   2.579   4.735   1.379  0.2516  0.2644  0.1826
17097TIP3    H172782   2.558   4.797   1.309  0.0418  0.4639  0.4237
17097TIP3    H272783   2.527   4.657   1.357 -0.6073  0.6839  0.6658
17098TIP3   OH272784   2.428   3.999   1.480  0.0159  0.0170 -0.4583
17098TIP3    H172785   2.378   3.922   1.454  1.3887 -0.5404 -1.6488
17098TIP3    H272786   2.368   4.072   1.469 -1.0606 -0.7888 -0.1099
17099TIP3   OH272787   1.366   0.724   5.915  0.1635  0.8315 -0.3849
17099TIP3    H172788   1.426   0.794   5.890 -1.0953  2.2739  0.4644
17099TIP3    H272789   1.324   0.697   5.834 -0.9595  2.6540 -0.4583
17100TIP3   OH272790   5.829   4.698   1.486 -0.2470  0.5489  0.4205
17100TIP3    H172791   5.758   4.639   1.463  1.1159 -0.2321 -2.2242
17100TIP3    H272792   5.885   4.699   1.408  2.8419  0.8202  2.4736
17101TIP3   OH272793   6.627   6.285  16.069 -0.3297  0.1612 -0.1859
17101TIP3    H172794   6.603   6.360  16.123 -2.2865 -1.0450  0.7412
17101TIP3    H272795   6.575   6.295  15.989 -0.5808 -0.1738 -0.0687
17102TIP3   OH272796   3.100   4.345   5.202  0.1078  0.2359 -0.2160
17102TIP3    H172797   3.043   4.414   5.166  1.3011  0.3541 -2.0489
17102TIP3    H272798   3.167   4.393   5.251 -0.5206  0.1970  0.6866
17103TIP3   OH272799   6.237   0.522   1.686  0.0127 -0.0143 -0.6052
17103TIP3    H172800   6.183   0.517   1.607  2.5302 -0.9339 -2.4239
17103TIP3    H272801   6.259   0.615   1.693 -1.1821  0.2548 -0.2617
17104TIP3   OH272802   4.545   1.240  11.386 -0.2060  0.1347 -0.1505
17104TIP3    H172803   4.585   1.294  11.455  0.6609 -1.6386  0.8047
17104TIP3    H272804   4.495   1.174  11.434 -0.4250 -0.5240 -1.2563
17105TIP3   OH272805   4.188   6.773   2.635  0.0848 -0.5338  0.0252
17105TIP3    H172806   4.205   6.868   2.632 -1.0944 -0.3000  0.4095
17105TIP3    H272807   4.262   6.735   2.587  0.6351  0.5663 -0.0558
17106TIP3   OH272808   6.122   5.483   3.880  0.1063  0.6718  0.1302
17106TIP3    H172809   6.134   5.487   3.785 -1.1408  0.8801 -0.0472
17106TIP3    H272810   6.189   5.541   3.915 -0.2044  1.5954 -0.7286
17107TIP3   OH272811   3.232   6.777   0.644 -0.0731 -0.5229 -0.2972
17107TIP3    H172812   3.156   6.727   0.614 -1.1642  0.6478  0.4220
17107TIP3    H272813   3.206   6.812   0.729  1.5797 -0.7402  0.3506
17108TIP3   OH272814   1.943   3.022  15.377  0.9379  0.2089  0.1343
17108TIP3    H172815   2.018   2.970  15.349  0.7687  0.2003 -0.3103
17108TIP3    H272816   1.892   3.036  15.298 -0.6008 -1.4880  0.7540
17109TIP3   OH272817   6.765   3.382  15.241 -0.3267  0.3956  0.2023
17109TIP3    H172818   6.804   3.301  15.207 -0.2648  0.8405 -0.8358
17109TIP3    H272819   6.767   3.442  15.166 -0.6778  1.2486  0.8645
17110TIP3   OH272820   1.261   6.102   0.959 -0.2783  0.5754  0.1975
17110TIP3    H172821   1.249   6.196   0.958 -0.7785  0.6033  2.3436
17110TIP3    H272822   1.352   6.090   0.989  0.1061  0.3463 -0.9989
17111TIP3   OH272823   0.056   1.434   3.470 -1.2187 -0.0061 -0.6464
17111TIP3    H172824  -0.002   1.411   3.397 -1.4113  1.7867 -1.1072
17111TIP3    H272825   0.059   1.529   3.469  0.7684 -0.0131  0.1493
17112TIP3   OH272826   4.289   1.598  16.939  0.3796 -0.6227 -0.2075
17112TIP3    H172827   4.311   1.611  17.032 -1.3407 -0.2794  0.1949
17112TIP3    H272828   4.371   1.611  16.893  1.3516 -1.1191  1.3005
17113TIP3   OH272829   1.134   0.789   6.045  0.1749 -0.2588 -0.8169
17113TIP3    H172830   1.221   0.795   6.007  0.0460 -0.8036 -1.2093
17113TIP3    H272831   1.081   0.849   5.992  0.0346 -0.8854 -1.4037
17114TIP3   OH272832   3.176   0.904   3.738 -0.4956  0.0328  0.8205
17114TIP3    H172833   3.156   0.997   3.737 -0.6210  0.0065  0.7268
17114TIP3    H272834   3.179   0.880   3.645  1.4085  0.3301  0.7666
17115TIP3   OH272835   5.147   2.642   2.615  0.2038 -0.1410 -0.2515
17115TIP3    H172836   5.158   2.561   2.665  0.9755 -0.2415 -0.5743
17115TIP3    H272837   5.230   2.688   2.624  0.4616 -0.2855 -1.6451
17116TIP3   OH272838   1.360   2.943  14.528 -0.7907  0.0082 -0.4800
17116TIP3    H172839   1.270   2.949  14.496 -0.7814  2.3879 -0.1889
17116TIP3    H272840   1.414   2.975  14.455 -0.2263 -0.5388 -0.3193
17117TIP3   OH272841   2.234   4.745   1.631  0.2631  0.4453  0.2967
17117TIP3    H172842   2.185   4.821   1.600 -1.1674 -0.6722 -0.3030
17117TIP3    H272843   2.227   4.681   1.560  1.0635 -0.4070  0.9598
17118TIP3   OH272844   2.167   6.668  12.093  0.1097 -0.4615 -0.6488
17118TIP3    H172845   2.155   6.630  12.180 -2.6889 -1.9113 -1.5375
17118TIP3    H272846   2.261   6.688  12.088  1.1521 -3.9836  1.2809
17119TIP3   OH272847   5.453   0.975   4.018  0.9821 -0.6282  0.2937
17119TIP3    H172848   5.361   0.981   4.044  0.6046 -1.9234 -0.6231
17119TIP3    H272849   5.501   1.013   4.092 -0.3226  1.2765  0.2375
17120TIP3   OH272850   1.844   1.890  12.820  0.4155 -0.1420 -0.1133
17120TIP3    H172851   1.896   1.906  12.899 -0.5273  0.1750  0.4664
17120TIP3    H272852   1.774   1.832  12.849  1.3410 -1.9310 -1.2499
17121TIP3   OH272853   2.426   3.462   2.412  0.6391 -0.7242  0.2074
17121TIP3    H172854   2.484   3.406   2.360 -0.0778 -1.8826  0.6008
17121TIP3    H272855   2.433   3.428   2.501 -0.0657 -0.4132  0.3935
17122TIP3   OH272856   1.215   6.163  12.453 -0.2046  0.5233  0.2292
17122TIP3    H172857   1.186   6.251  12.477  0.5778  0.6263  0.8051
17122TIP3    H272858   1.310   6.169  12.445 -0.1346 -0.2772  0.3078
17123TIP3   OH272859   4.097   1.236  11.281 -0.6940 -0.1954 -0.0980
17123TIP3    H172860   4.127   1.151  11.315  0.6627  0.7873  1.2866
17123TIP3    H272861   4.158   1.256  11.210  0.7164  0.8001  1.3151
17124TIP3   OH272862   0.614   5.785  12.102 -0.3252  0.6601  0.2753
17124TIP3    H172863   0.528   5.778  12.060 -0.4865  1.4365  0.4529
17124TIP3    H272864   0.602   5.851  12.170  0.7317  1.7409 -0.5379
17125TIP3   OH272865   3.212   4.545   2.280  0.1329 -0.4071 -0.2358
17125TIP3    H172866   3.229   4.616   2.342 -2.2004 -0.2070  0.2571
17125TIP3    H272867   3.217   4.587   2.194 -2.3537  0.7141  0.0859
17126TIP3   OH272868   5.526   4.231  17.221 -0.0332 -0.2947 -0.0854
17126TIP3    H172869   5.598   4.281  17.261 -0.8907  0.8187  0.1339
17126TIP3    H272870   5.560   4.204  17.136  0.7626 -0.0650  0.1495
17127TIP3   OH272871   0.883   4.681   4.079  0.3246  0.3179  0.5054
17127TIP3    H172872   0.888   4.626   4.157  0.4397  0.2953  0.4819
17127TIP3    H272873   0.841   4.761   4.109  0.2243  0.2474  0.5565
17128TIP3   OH272874   0.350   4.549   4.772  0.1293 -0.2814 -0.6768
17128TIP3    H172875   0.388   4.580   4.854 -0.0562 -0.0240 -0.6881
17128TIP3    H272876   0.374   4.456   4.769  2.2974  0.2506 -1.5622
17129TIP3   OH272877   6.298   3.433   2.432  0.0861 -0.2463 -0.0476
17129TIP3    H172878   6.380   3.384   2.428 -0.3331 -1.0747  1.0296
17129TIP3    H272879   6.268   3.436   2.341 -0.8753 -3.7880  0.0248
17130TIP3   OH272880   4.904   2.342  14.226 -0.0024  0.0494  0.3392
17130TIP3    H172881   4.929   2.432  14.245  1.9598 -0.4677  0.3849
17130TIP3    H272882   4.872   2.308  14.310 -0.0345  0.4619  0.4990
17131TIP3   OH272883   5.927   4.942   3.054  0.0864 -0.2032  0.4754
17131TIP3    H172884   5.936   4.849   3.035  0.7135 -0.3592  1.4790
17131TIP3    H272885   5.857   4.946   3.120  0.3005  0.0071  0.6904
17132TIP3   OH272886   2.435   3.742  16.334  0.1072  0.4009  0.1627
17132TIP3    H172887   2.364   3.695  16.291 -1.6229  2.3105  0.7416
17132TIP3    H272888   2.514   3.715  16.288 -0.9192 -2.0473 -0.3156
17133TIP3   OH272889   6.366   6.454   5.857 -0.4887 -0.2929  0.2254
17133TIP3    H172890   6.428   6.453   5.930  0.8361 -1.2115 -0.8488
17133TIP3    H272891   6.280   6.451   5.898  0.2171 -0.5613  1.7488
17134TIP3   OH272892   3.659   2.221  11.186  0.6326  0.0364 -0.4822
17134TIP3    H172893   3.752   2.243  11.174  0.1191  2.4032 -0.7074
17134TIP3    H272894   3.637   2.167  11.111  1.3336  1.2559 -1.5995
17135TIP3   OH272895   2.955   6.503   3.048 -0.5705  0.3720 -0.1829
17135TIP3    H172896   2.980   6.511   2.956 -1.6067 -0.5627 -0.5750
17135TIP3    H272897   2.887   6.569   3.060  0.5241  1.4442  0.3058
17136TIP3   OH272898   4.506   2.105   4.537  0.3589  0.2994  0.4991
17136TIP3    H172899   4.540   2.087   4.450  0.2023  1.5957  0.1399
17136TIP3    H272900   4.480   2.197   4.534 -1.0818 -0.0365  1.4497
17137TIP3   OH272901   0.990   1.341   4.268 -0.2625 -0.3932 -0.1760
17137TIP3    H172902   0.944   1.278   4.323 -1.7414  0.7950  0.0264
17137TIP3    H272903   1.069   1.364   4.317 -1.1820  0.0962  1.1350
17138TIP3   OH272904   6.712   5.139   0.225  0.3425 -0.4927  0.7230
17138TIP3    H172905   6.762   5.200   0.279  1.0656 -1.6755  1.4390
17138TIP3    H272906   6.746   5.150   0.137 -1.0389  1.6630  0.3896
17139TIP3   OH272907   1.802   4.804   1.759 -0.4324 -0.1360  0.0762
17139TIP3    H172908   1.891   4.839   1.750 -0.1402 -0.4761  1.4074
17139TIP3    H272909   1.762   4.818   1.674  0.9977 -0.2440 -0.6436
17140TIP3   OH272910   4.102   1.616   2.556  0.5300  0.2131 -0.2378
17140TIP3    H172911   4.093   1.577   2.643 -1.1167  0.7887 -0.1144
17140TIP3    H272912   4.016   1.652   2.537  0.9325  0.3194 -2.0223
17141TIP3   OH272913   3.319   2.008  17.002 -0.1637  0.0471  0.3868
17141TIP3    H172914   3.412   2.026  17.019  0.1051 -0.1792 -0.8026
17141TIP3    H272915   3.312   1.913  17.005 -0.8552  0.1036  2.8835
17142TIP3   OH272916   2.107   0.950  13.722 -0.0531  0.2794 -0.2062
17142TIP3    H172917   2.094   1.020  13.785 -1.4539 -0.5187  0.4271
17142TIP3    H272918   2.081   0.989  13.638 -2.0086  0.2033  0.3165
17143TIP3   OH272919   3.148   1.599   0.938  0.2498 -0.3054  0.6510
17143TIP3    H172920   3.127   1.692   0.946  2.6718  0.2632  1.1096
17143TIP3    H272921   3.197   1.579   1.018  1.3788 -1.4935 -0.3127
17144TIP3   OH272922   3.121   5.111  13.663  0.0588 -0.4046 -0.3952
17144TIP3    H172923   3.038   5.147  13.630  0.9301  2.5494  0.3343
17144TIP3    H272924   3.186   5.140  13.599  0.9403  0.0530  0.6929
17145TIP3   OH272925   6.137   4.529  16.484  0.2290 -0.2538 -0.0531
17145TIP3    H172926   6.207   4.573  16.435  1.0449 -0.5122  0.8685
17145TIP3    H272927   6.137   4.439  16.450  0.3484 -0.2578 -0.0413
17146TIP3   OH272928   2.389   0.210   2.610 -0.4199  0.5070 -0.0268
17146TIP3    H172929   2.408   0.301   2.585  0.1154  0.3094 -0.3466
17146TIP3    H272930   2.312   0.186   2.558  0.6004  0.1429 -1.3989
17147TIP3   OH272931   2.375   3.950  12.481 -0.8211 -0.1566 -0.9830
17147TIP3    H172932   2.419   4.000  12.412 -0.6708  0.2771 -0.5799
17147TIP3    H272933   2.409   3.987  12.563 -0.4389 -1.1643 -0.6727
17148TIP3   OH272934   4.911   3.980   6.042  0.4818 -0.5457 -0.2199
17148TIP3    H172935   4.849   4.009   6.109  0.7376 -0.4360 -0.0293
17148TIP3    H272936   4.986   4.038   6.053  1.1280 -1.4665  0.3660
17149TIP3   OH272937   5.673   4.957   3.956 -0.6025  0.2223  0.2750
17149TIP3    H172938   5.691   4.864   3.950 -0.2894  0.2660  0.5401
17149TIP3    H272939   5.665   4.975   4.049  0.2791  0.6360  0.2793
17150TIP3   OH272940   4.403   6.279   2.490  0.2060 -0.3423  1.3785
17150TIP3    H172941   4.417   6.280   2.585  1.9200  0.3501  1.1660
17150TIP3    H272942   4.476   6.227   2.456 -0.3250 -0.4802  0.4217
17151TIP3   OH272943   0.855   0.240   2.672  0.2379  0.5378  0.2001
17151TIP3    H172944   0.928   0.286   2.714 -0.0808  0.8709  0.4028
17151TIP3    H272945   0.783   0.248   2.736 -0.1142  0.6353 -0.2039
17152TIP3   OH272946   0.064   5.325  16.164  0.5134 -0.1363 -0.5516
17152TIP3    H172947   0.154   5.293  16.155 -0.2814 -2.4676 -0.8819
17152TIP3    H272948   0.018   5.289  16.088 -1.2262 -0.9868  0.8347
17153TIP3   OH272949   6.137   3.704   1.724  0.1360 -0.1957 -0.0292
17153TIP3    H172950   6.129   3.733   1.815  1.0952  0.8295 -0.2520
17153TIP3    H272951   6.144   3.608   1.730  1.9064 -0.0428  1.1324
17154TIP3   OH272952   0.198   5.906  11.487 -0.1456  0.9025 -0.1599
17154TIP3    H172953   0.269   5.963  11.459 -0.5648  2.7749  2.2656
17154TIP3    H272954   0.213   5.891  11.580 -1.9100 -0.1736  0.0102
17155TIP3   OH272955   1.180   3.542  15.558 -0.3840 -0.0272 -0.0034
17155TIP3    H172956   1.087   3.542  15.534 -0.3055  0.2382 -0.3098
17155TIP3    H272957   1.180   3.517  15.651 -0.7538 -0.1349 -0.0286
17156TIP3   OH272958   1.051   6.300  15.085 -0.0645  0.3661 -0.1285
17156TIP3    H172959   1.123   6.339  15.136 -0.1695  1.4731 -0.7912
17156TIP3    H272960   1.067   6.328  14.995 -1.1349  0.3552 -0.3410
17157TIP3   OH272961   2.794   4.904   1.169  0.5061  0.4617  0.1185
17157TIP3    H172962   2.796   4.955   1.088  1.4714  1.7730  0.9217
17157TIP3    H272963   2.701   4.888   1.184  0.3650 -1.1089 -1.9862
17158TIP3   OH272964   0.744   6.690   4.736 -0.1413  0.2952  0.0082
17158TIP3    H172965   0.806   6.761   4.725 -1.0796  1.0704 -0.4551
17158TIP3    H272966   0.789   6.613   4.699  0.4156  0.9026 -0.6121
17159TIP3   OH272967   0.710   2.801  13.589 -0.0348  0.4475  0.6305
17159TIP3    H172968   0.616   2.814  13.572 -0.2680 -2.0475 -0.5486
17159TIP3    H272969   0.715   2.778  13.682 -0.3689  1.9758  1.0559
17160TIP3   OH272970   5.836   2.355   2.734 -0.6405  0.5787  0.8781
17160TIP3    H172971   5.794   2.342   2.819 -1.2687 -0.2186  0.4546
17160TIP3    H272972   5.829   2.271   2.690  1.8770  0.2252  0.9788
17161TIP3   OH272973   3.403   3.657   5.138 -0.5999 -0.4981 -0.1692
17161TIP3    H172974   3.423   3.728   5.199  1.6315 -0.2138 -1.1307
17161TIP3    H272975   3.312   3.672   5.112 -0.7486  0.9037  1.0548
17162TIP3   OH272976   3.516   4.842   5.080  0.0209  0.5328  0.2724
17162TIP3    H172977   3.509   4.868   5.172 -0.0338  0.3029  0.3345
17162TIP3    H272978   3.488   4.919   5.031  1.8920  1.3352  0.3925
17163TIP3   OH272979   3.504   0.788  15.957  0.0625 -0.0829 -0.0072
17163TIP3    H172980   3.475   0.744  16.038  0.2504 -0.5781 -0.2093
17163TIP3    H272981   3.566   0.727  15.917  0.2853  0.3455 -0.3183
17164TIP3   OH272982   1.165   3.861   5.180  0.5553 -0.3595 -0.2685
17164TIP3    H172983   1.098   3.922   5.147 -0.0899 -0.6684  0.4447
17164TIP3    H272984   1.198   3.818   5.102  0.1422  0.0267 -0.6656
17165TIP3   OH272985   5.576   2.525  14.770 -0.3073  0.0412  0.0270
17165TIP3    H172986   5.616   2.612  14.762  0.7953 -0.4490  0.0919
17165TIP3    H272987   5.552   2.502  14.680  1.0020 -0.3135 -0.2539
17166TIP3   OH272988   6.639   6.618  14.203 -0.2200  0.1849 -0.1093
17166TIP3    H172989   6.581   6.626  14.127  0.3959  0.0516 -0.6033
17166TIP3    H272990   6.672   6.707  14.217  2.5180 -0.3383 -2.3165
17167TIP3   OH272991   4.873   0.908   1.853  0.0947  0.7380  0.2198
17167TIP3    H172992   4.914   0.980   1.900 -0.1925  1.1067 -0.0890
17167TIP3    H272993   4.945   0.847   1.835  0.2763  0.7868  0.7659
17168TIP3   OH272994   5.978   3.813  16.319 -0.1492  0.1229  0.7181
17168TIP3    H172995   6.010   3.723  16.313 -0.5638 -0.0488  1.0233
17168TIP3    H272996   5.893   3.806  16.363 -0.6974  0.5440 -0.2270
17169TIP3   OH272997   1.410   5.106  13.485 -0.1276  0.0860  0.2729
17169TIP3    H172998   1.435   5.056  13.562  0.3663  1.0940  0.7824
17169TIP3    H272999   1.400   5.196  13.516 -1.4566  0.2444 -0.5281
17170TIP3   OH273000   2.787   4.269  15.173 -0.2355 -0.5062  0.3914
17170TIP3    H173001   2.877   4.242  15.154 -0.5045 -2.1041  1.1704
17170TIP3    H273002   2.743   4.187  15.196 -2.7446 -0.3172 -3.0117
17171TIP3   OH273003   4.055   5.400   1.721  0.1516 -0.3395  0.3489
17171TIP3    H173004   4.080   5.463   1.789 -0.1165 -0.5957  0.6915
17171TIP3    H273005   3.978   5.437   1.679  0.6282  0.0735 -0.1773
17172TIP3   OH273006   2.357   0.475  17.114  0.0955  1.2919  0.3514
17172TIP3    H173007   2.379   0.568  17.121  0.5765  1.2454 -0.3960
17172TIP3    H273008   2.265   0.471  17.137 -0.0822  2.0409 -0.1751
17173TIP3   OH273009   3.033   1.214   5.204  0.2520 -0.4201  0.4679
17173TIP3    H173010   2.992   1.295   5.172  0.9778 -0.3876 -0.4339
17173TIP3    H273011   3.010   1.149   5.137  0.9843 -0.5847  0.3749
17174TIP3   OH273012   4.689   1.162   1.326 -0.0533  0.1172  0.5087
17174TIP3    H173013   4.626   1.146   1.397  0.0514  2.7056  1.2747
17174TIP3    H273014   4.770   1.122   1.357 -0.1802  0.6479  1.5707
17175TIP3   OH273015   3.736   0.368   0.967 -0.0864  0.3478 -0.2143
17175TIP3    H173016   3.742   0.444   0.910  0.3018  0.2995 -0.2381
17175TIP3    H273017   3.748   0.293   0.909 -0.1008  0.2813 -0.1329
17176TIP3   OH273018   1.465   1.008   1.226 -0.6749 -0.3276 -0.5043
17176TIP3    H173019   1.372   0.995   1.240 -0.5364 -0.6612  0.1802
17176TIP3    H273020   1.506   0.971   1.304 -0.1087  2.0349  0.3909
17177TIP3   OH273021   3.104   6.066  12.597 -0.1690  0.3123  0.1224
17177TIP3    H173022   3.100   6.094  12.689 -2.2435  1.1250 -0.1646
17177TIP3    H273023   3.074   6.142  12.548  1.0108 -0.0810 -1.2796
17178TIP3   OH273024   4.875   5.145   4.164 -0.2384 -0.3785 -0.2523
17178TIP3    H173025   4.865   5.050   4.166 -2.0519 -0.2128  1.0954
17178TIP3    H273026   4.890   5.165   4.072  2.3168 -2.0983 -0.3109
17179TIP3   OH273027   2.130   5.370  13.885  0.2385  0.1553 -0.1391
17179TIP3    H173028   2.129   5.373  13.981  1.0232  0.7084 -0.1385
17179TIP3    H273029   2.195   5.303  13.864 -0.2117 -0.2398 -0.2897
17180TIP3   OH273030   6.078   5.964   2.532  0.0713  0.3484 -0.7295
17180TIP3    H173031   5.999   5.972   2.479 -0.9087 -0.4054  0.5673
17180TIP3    H273032   6.080   6.044   2.584  0.6812  0.7824 -1.3853
17181TIP3   OH273033   2.194   2.486   2.930  0.6155  0.0576  0.1101
17181TIP3    H173034   2.187   2.391   2.926  2.3678 -0.0842 -0.3368
17181TIP3    H273035   2.132   2.517   2.863 -0.6906 -0.6952  0.9279
17182TIP3   OH273036   3.060   0.317  14.593  0.1458  0.0899 -0.7552
17182TIP3    H173037   2.996   0.247  14.583  2.2224 -1.7231 -2.6902
17182TIP3    H273038   3.057   0.364  14.510  1.2630 -0.0004 -0.8594
17183TIP3   OH273039   1.053   5.111  11.447  0.0132 -0.1741  0.2595
17183TIP3    H173040   1.039   5.152  11.362 -0.8968  1.7570  1.2609
17183TIP3    H273041   1.117   5.042  11.431 -0.9002 -0.5459 -2.1593
17184TIP3   OH273042   5.261   4.264  15.221  0.5489  1.0707 -0.0006
17184TIP3    H173043   5.292   4.352  15.244 -0.2104  0.4748  4.0339
17184TIP3    H273044   5.330   4.206  15.252 -0.4642  0.1310  0.5542
17185TIP3   OH273045   5.978   5.058   4.465  0.0812 -1.2174  0.2718
17185TIP3    H173046   6.067   5.027   4.481 -0.1798 -1.2775  1.6812
17185TIP3    H273047   5.938   4.989   4.412  0.6404 -1.5235  0.2408
17186TIP3   OH273048   1.786   5.482   3.675  0.6573 -0.1039 -0.3784
17186TIP3    H173049   1.765   5.421   3.745  0.7713 -1.2396 -1.2958
17186TIP3    H273050   1.710   5.478   3.617 -0.0620  1.8811  0.3496
17187TIP3   OH273051   6.337   0.056   2.764  0.1371 -0.0936  0.0642
17187TIP3    H173052   6.277   0.103   2.822  1.4605  1.6286  0.1157
17187TIP3    H273053   6.353   0.117   2.691 -0.0215 -1.4749 -1.1806
17188TIP3   OH273054   4.123   5.788   1.281 -0.5299 -0.6512 -0.0467
17188TIP3    H173055   4.173   5.735   1.219  0.4944 -0.4817  0.6297
17188TIP3    H273056   4.144   5.878   1.257  1.1994 -0.5728  1.5663
17189TIP3   OH273057   1.471   2.503   3.051  0.3804 -0.5124  0.5819
17189TIP3    H173058   1.408   2.569   3.080  2.8011  2.9274 -1.2071
17189TIP3    H273059   1.511   2.471   3.132 -0.3230  0.8835  1.5269
17190TIP3   OH273060   3.695   0.811   0.690 -0.1905 -0.5695  0.4615
17190TIP3    H173061   3.653   0.895   0.707  0.3705 -0.0740 -0.4963
17190TIP3    H273062   3.653   0.779   0.610  1.6909  0.3064 -0.9836
17191TIP3   OH273063   2.654   4.831  10.632 -0.1045  0.3105  0.3590
17191TIP3    H173064   2.686   4.892  10.699 -0.6876  3.1302 -1.7332
17191TIP3    H273065   2.563   4.815  10.655  0.5492 -1.4265  1.9790
17192TIP3   OH273066   4.815   5.009   2.290 -0.1809  0.1577 -0.0960
17192TIP3    H173067   4.824   4.914   2.292 -1.4922  0.0066 -0.3601
17192TIP3    H273068   4.903   5.042   2.310  0.5202 -1.0998 -0.9718
17193TIP3   OH273069   0.248   2.326   0.242 -0.4148  0.1819  0.1311
17193TIP3    H173070   0.337   2.341   0.273 -0.5378 -0.1688  0.6679
17193TIP3    H273071   0.192   2.357   0.314 -0.7378  0.7645 -0.3572
17194TIP3   OH273072   1.974   5.780   2.026  0.3199 -0.2540  0.2778
17194TIP3    H173073   2.053   5.751   1.982  0.2085 -1.3178  0.7417
17194TIP3    H273074   2.004   5.813   2.111  0.4244  0.8406 -0.1702
17195TIP3   OH273075   2.146   6.291  15.096 -0.3897 -0.2729  0.3539
17195TIP3    H173076   2.119   6.383  15.107 -1.2805 -0.7033  2.1293
17195TIP3    H273077   2.070   6.248  15.056 -0.2674 -0.4081  0.2661
17196TIP3   OH273078   1.636   0.768   3.721  0.2382  0.1389  0.0729
17196TIP3    H173079   1.541   0.755   3.717  0.3301 -0.1914 -1.8128
17196TIP3    H273080   1.666   0.703   3.784 -0.8859  1.0533  1.6325
17197TIP3   OH273081   1.201   5.382  14.125 -0.2032 -0.4184  0.0766
17197TIP3    H173082   1.218   5.326  14.201 -0.1519  0.1545  0.4921
17197TIP3    H273083   1.140   5.332  14.071  0.8442 -1.4330 -0.1971
17198TIP3   OH273084   0.270   6.408  14.466  0.1936  0.9959  0.1780
17198TIP3    H173085   0.199   6.388  14.526  0.7290  1.2810  0.9158
17198TIP3    H273086   0.233   6.473  14.406 -0.0308  1.5253  0.8701
17199TIP3   OH273087   1.618   4.541   2.649 -0.5305 -0.1394 -0.2655
17199TIP3    H173088   1.653   4.589   2.573  1.1596  0.2503  0.6981
17199TIP3    H273089   1.528   4.521   2.625  0.1998 -0.8600 -2.7760
17200TIP3   OH273090   4.383   4.107   3.075  0.1022  0.2302 -0.1950
17200TIP3    H173091   4.470   4.071   3.056  1.5048  2.6178  1.2181
17200TIP3    H273092   4.337   4.036   3.119  2.1116 -0.4415  0.9479
17201TIP3   OH273093   1.508   3.927  13.156  0.5331 -0.5676  0.2475
17201TIP3    H173094   1.520   3.919  13.061 -1.3537  0.0941 -0.0859
17201TIP3    H273095   1.518   4.021  13.173 -0.3965 -0.5025  0.4857
17202TIP3   OH273096   1.665   6.465  12.587  0.0061  0.3386  0.2681
17202TIP3    H173097   1.638   6.500  12.502  3.5356  0.6595 -0.8784
17202TIP3    H273098   1.744   6.414  12.568  0.7079  0.1139  3.3207
17203TIP3   OH273099   4.819   6.122  16.334  0.2090  0.4629  0.0797
17203TIP3    H173100   4.789   6.153  16.420 -0.3889 -0.2614  0.1408
17203TIP3    H273101   4.765   6.170  16.271  0.8995  1.2707  0.0762
17204TIP3   OH273102   1.628   2.645   3.507  0.3095 -0.2513 -0.1636
17204TIP3    H173103   1.670   2.693   3.435  0.2375  0.0019 -0.0347
17204TIP3    H273104   1.558   2.595   3.465 -0.3808  0.6677 -0.1273
17205TIP3   OH273105   3.209   5.490   4.078  0.1418  0.0565  0.1775
17205TIP3    H173106   3.114   5.497   4.072  0.0023 -1.0471  0.7627
17205TIP3    H273107   3.228   5.398   4.064  1.1869  0.3400 -0.4444
17206TIP3   OH273108   0.062   0.095  11.100  0.0090  0.1185  0.4025
17206TIP3    H173109  -0.032   0.106  11.114 -0.0969  0.5431 -0.5912
17206TIP3    H273110   0.103   0.162  11.154 -0.2944  0.3848  0.3040
17207TIP3   OH273111   5.557   1.216   2.662  0.6954 -0.0194  0.0833
17207TIP3    H173112   5.495   1.201   2.591 -0.9504  1.0108  1.2428
17207TIP3    H273113   5.641   1.228   2.617 -0.0466 -0.6808 -1.5809
17208TIP3   OH273114   6.390   3.893  15.934  0.4891  0.2261 -0.2665
17208TIP3    H173115   6.302   3.870  15.965  0.5443 -0.5171 -0.6424
17208TIP3    H273116   6.394   3.988  15.943 -0.3650  0.2715 -0.2780
17209TIP3   OH273117   2.862   2.046  13.111 -0.6202 -0.7464  0.6687
17209TIP3    H173118   2.948   2.075  13.081 -1.2772  1.2101  0.5610
17209TIP3    H273119   2.857   1.954  13.084  1.0849 -0.6611 -0.0583
17210TIP3   OH273120   0.340   5.283   6.070 -0.3342  0.9231  0.1052
17210TIP3    H173121   0.318   5.227   6.144 -0.3569  1.9146  0.8726
17210TIP3    H273122   0.323   5.229   5.993  2.4837 -1.2176  0.7991
17211TIP3   OH273123   5.717   1.897   1.298 -0.1270  0.5366  0.1482
17211TIP3    H173124   5.703   1.929   1.209  0.2777 -0.4638 -0.2982
17211TIP3    H273125   5.718   1.801   1.289 -0.0393  0.4189  1.2234
17212TIP3   OH273126   3.733   6.499   0.168 -0.1794 -0.1519  0.0623
17212TIP3    H173127   3.684   6.580   0.177  2.0748  1.4063 -0.7041
17212TIP3    H273128   3.745   6.488   0.074 -2.8035 -2.9896 -0.0900
17213TIP3   OH273129   0.544   5.597   2.397 -0.1815  0.3203 -0.3198
17213TIP3    H173130   0.614   5.637   2.448 -0.5103  0.7557 -0.2013
17213TIP3    H273131   0.569   5.505   2.390  0.2466  0.4095 -0.0236
17214TIP3   OH273132   5.886   0.277  16.289  0.0518 -0.3379 -0.3832
17214TIP3    H173133   5.823   0.211  16.261 -1.3031  0.5368  0.4846
17214TIP3    H273134   5.933   0.302  16.209 -0.2285 -1.4829 -0.9200
17215TIP3   OH273135   4.495   3.864  16.983  0.2131 -0.1850 -0.1514
17215TIP3    H173136   4.590   3.855  16.975  0.1814 -0.3455 -0.3579
17215TIP3    H273137   4.465   3.776  17.008 -0.0166 -0.4786 -1.3874
17216TIP3   OH273138   1.127   0.244  13.624 -0.0418 -0.1332 -0.0045
17216TIP3    H173139   1.169   0.203  13.700 -1.0692  0.3751  0.8674
17216TIP3    H273140   1.036   0.256  13.651  0.1195  2.3341 -0.3552
17217TIP3   OH273141   5.682   2.254   3.300  0.1268  0.3520  0.2803
17217TIP3    H173142   5.588   2.246   3.316  0.1440  0.2325  0.3206
17217TIP3    H273143   5.703   2.182   3.241  0.6122 -1.0408  2.0685
17218TIP3   OH273144   6.367   4.580  16.352  0.0515  0.3912  0.9052
17218TIP3    H173145   6.360   4.636  16.274  1.8703 -0.7828 -0.1696
17218TIP3    H273146   6.393   4.639  16.422 -2.5586  1.6558  0.9325
17219TIP3   OH273147   0.020   3.000   4.178  0.0570  0.2968  0.6566
17219TIP3    H173148   0.044   2.925   4.124 -0.4196 -0.1805  1.0898
17219TIP3    H273149   0.100   3.023   4.225  0.2350  0.1282  0.4356
17220TIP3   OH273150   5.545   2.888  14.946  0.7118  0.1514 -0.1588
17220TIP3    H173151   5.626   2.938  14.943  0.8424 -0.0885 -0.8128
17220TIP3    H273152   5.532   2.857  14.856 -1.2751  2.0174 -0.6101
17221TIP3   OH273153   1.243   4.346   4.640  0.3043  0.0506 -0.3135
17221TIP3    H173154   1.150   4.352   4.615  0.4082 -3.3658 -2.0693
17221TIP3    H273155   1.241   4.331   4.735 -1.0821 -1.4251 -0.5336
17222TIP3   OH273156   0.150   2.220  11.819 -0.0473  0.1611 -0.0546
17222TIP3    H173157   0.071   2.250  11.773 -1.8768 -1.7529  1.6568
17222TIP3    H273158   0.213   2.290  11.805 -1.3730  0.9213 -3.1174
17223TIP3   OH273159   5.230   4.925  16.161  0.3823  0.6947 -0.0584
17223TIP3    H173160   5.233   5.007  16.111  1.1630  0.7551  0.0756
17223TIP3    H273161   5.316   4.918  16.202 -0.7831  1.5686  2.7907
17224TIP3   OH273162   3.450   4.783  12.771 -0.7907  0.1100  0.2075
17224TIP3    H173163   3.417   4.735  12.847 -1.5521  0.3071  0.0091
17224TIP3    H273164   3.512   4.846  12.808 -0.2555 -0.5904  0.5330
17225TIP3   OH273165   5.800   2.811  15.248  0.1978 -0.0981  0.5813
17225TIP3    H173166   5.848   2.795  15.167 -1.8412  0.8783 -0.9080
17225TIP3    H273167   5.773   2.725  15.278  1.8602 -0.5602  0.8653
17226TIP3   OH273168   4.652   4.213  12.999  0.0622  0.6177 -0.3780
17226TIP3    H173169   4.599   4.135  12.981 -1.2776  1.5969 -0.8551
17226TIP3    H273170   4.735   4.179  13.033 -0.8411 -0.9674  0.3143
17227TIP3   OH273171   5.768   2.811  15.909  0.1180 -0.4137  0.0391
17227TIP3    H173172   5.696   2.851  15.860 -0.6630 -1.2831  0.4497
17227TIP3    H273173   5.811   2.753  15.846 -0.9266 -1.5806  0.3559
17228TIP3   OH273174   3.525   0.027   4.382 -0.0435  0.3017  0.3106
17228TIP3    H173175   3.608   0.007   4.426 -0.6966  1.2570  2.0861
17228TIP3    H273176   3.480  -0.058   4.378  1.6010 -0.5637 -2.1514
17229TIP3   OH273177   2.527   0.858   3.272  0.4543  0.3103 -0.1960
17229TIP3    H173178   2.568   0.937   3.239 -0.4640  0.8501 -0.0963
17229TIP3    H273179   2.592   0.789   3.260  1.3880  1.1447  0.0325
17230TIP3   OH273180   2.538   2.239   4.101 -0.1303 -0.1435 -0.5833
17230TIP3    H173181   2.615   2.280   4.140  1.8164 -1.8713 -2.2607
17230TIP3    H273182   2.509   2.174   4.166  1.1129 -0.8351 -0.6804
17231TIP3   OH273183   4.860   1.901  11.543  0.1383 -0.1698  0.7037
17231TIP3    H173184   4.841   1.911  11.637  0.9070 -0.1074  0.8572
17231TIP3    H273185   4.826   1.814  11.521  1.8703 -1.1142  1.5528
17232TIP3   OH273186   2.331   4.733   2.347  0.1961 -0.1101 -0.6610
17232TIP3    H173187   2.417   4.761   2.376  0.3047 -0.4639 -0.6292
17232TIP3    H273188   2.321   4.771   2.260  1.0613 -1.3682 -1.3489
17233TIP3   OH273189   5.592   3.658   4.110  0.2498  0.5321  0.0826
17233TIP3    H173190   5.637   3.698   4.184  0.2528  0.1873  0.2709
17233TIP3    H273191   5.659   3.604   4.068  0.4788  1.3826 -0.6773
17234TIP3   OH273192   0.761   2.004   1.380  0.2017 -0.2515  0.1506
17234TIP3    H173193   0.713   2.071   1.428  2.8623  0.7158  1.7047
17234TIP3    H273194   0.697   1.935   1.363 -1.7344  1.0144  1.8493
17235TIP3   OH273195   3.384   3.014  11.931  0.7364  0.2649  0.2383
17235TIP3    H173196   3.449   3.072  11.892  0.9677  0.1734  0.4850
17235TIP3    H273197   3.301   3.060  11.919  0.9685  0.8317  0.7852
17236TIP3   OH273198   1.675   0.297  13.038 -0.3746 -0.1748  0.0966
17236TIP3    H173199   1.660   0.207  13.007  1.4848 -0.5221  0.1135
17236TIP3    H273200   1.663   0.291  13.133  0.6259 -0.6158  0.2029
17237TIP3   OH273201   6.041   6.484   0.531 -0.6694  0.4937 -0.3515
17237TIP3    H173202   6.035   6.461   0.438 -1.9593 -2.5180  0.3637
17237TIP3    H273203   6.126   6.450   0.558 -1.9679 -2.6117  0.3623
17238TIP3   OH273204   0.811   1.063  11.393 -0.1720  0.2901 -0.1178
17238TIP3    H173205   0.769   0.977  11.386 -2.1345  1.0657  1.1449
17238TIP3    H273206   0.810   1.082  11.487  1.5819  1.0917 -0.2189
17239TIP3   OH273207   4.553   1.826  15.959 -0.7965  0.2168  0.2564
17239TIP3    H173208   4.461   1.850  15.948 -0.8115 -0.0290 -0.1635
17239TIP3    H273209   4.552   1.732  15.974 -0.6456  0.2863  0.7269
17240TIP3   OH273210   0.366   0.886   5.879 -0.6907  0.1837 -0.1202
17240TIP3    H173211   0.289   0.900   5.825 -0.3929  0.3863 -0.4976
17240TIP3    H273212   0.331   0.861   5.965 -1.1386 -1.3394 -0.7266
17241TIP3   OH273213   4.221   4.274  11.988 -0.3508  0.0552  0.2720
17241TIP3    H173214   4.296   4.256  11.932 -0.6748 -1.6643  0.3525
17241TIP3    H273215   4.171   4.340  11.939 -0.2358 -0.8636 -1.1377
17242TIP3   OH273216   2.205   6.279  13.776  0.1282  0.8092 -0.1719
17242TIP3    H173217   2.184   6.195  13.735  1.4141  0.2727  0.2352
17242TIP3    H273218   2.261   6.324  13.713  0.3348  0.8994  0.0729
17243TIP3   OH273219   1.189   6.721   0.155 -0.0607 -0.1843 -0.4717
17243TIP3    H173220   1.093   6.711   0.156 -0.1779  0.8513 -0.9344
17243TIP3    H273221   1.205   6.792   0.094  1.0158 -0.3281 -0.3653
17244TIP3   OH273222   5.918   4.800   1.758 -0.4363 -0.5247 -0.5382
17244TIP3    H173223   5.853   4.822   1.824  0.3846 -1.3991  0.6060
17244TIP3    H273224   5.867   4.785   1.678 -1.4557  0.4193 -0.0889
17245TIP3   OH273225   5.435   2.699   5.719  0.0795 -0.1157  0.1045
17245TIP3    H173226   5.461   2.642   5.646 -2.5342 -0.3430 -0.7288
17245TIP3    H273227   5.491   2.776   5.710  1.2865 -1.0614 -0.8280
17246TIP3   OH273228   6.685   3.387  13.434  0.3363 -0.2357 -0.3326
17246TIP3    H173229   6.594   3.412  13.422  0.3099 -0.0762  0.1983
17246TIP3    H273230   6.723   3.393  13.346 -0.1363 -0.2071 -0.5374
17247TIP3   OH273231   1.674   6.292   0.756  0.6825  0.5193 -0.0689
17247TIP3    H173232   1.691   6.212   0.806 -0.7715  0.7154  0.7683
17247TIP3    H273233   1.644   6.356   0.821 -0.3027  1.0796 -1.0490
17248TIP3   OH273234   3.101   6.072   5.613 -0.8485 -0.1392 -0.4078
17248TIP3    H173235   3.064   6.125   5.542 -1.3870  2.0730  1.3688
17248TIP3    H273236   3.024   6.043   5.663 -0.5068  2.7674  2.1445
17249TIP3   OH273237   4.749   3.681   4.847 -0.7007 -0.4908 -0.8060
17249TIP3    H173238   4.705   3.684   4.931  1.2949 -0.2961  0.2806
17249TIP3    H273239   4.781   3.591   4.840  0.6507 -0.0561 -0.5089
17250TIP3   OH273240   2.014   1.830  13.679  0.1625  0.5392  0.2548
17250TIP3    H173241   2.102   1.864  13.662  0.3607  0.4535  1.1078
17250TIP3    H273242   2.027   1.739  13.705 -0.3226 -0.0242 -1.3358
17251TIP3   OH273243   1.999   5.891   5.089  0.7741  0.2823 -0.0859
17251TIP3    H173244   2.028   5.941   5.014 -0.3314 -1.7387 -1.9986
17251TIP3    H273245   1.908   5.919   5.104  1.0229  0.7574  0.6082
17252TIP3   OH273246   3.542   6.170   0.528  0.4326  0.1067  0.4459
17252TIP3    H173247   3.455   6.148   0.559 -0.4775 -0.8534 -2.4609
17252TIP3    H273248   3.530   6.251   0.479  1.4919  0.7399  1.1794
17253TIP3   OH273249   3.417   6.395  17.026  0.2783 -0.0018  0.2861
17253TIP3    H173250   3.452   6.374  17.112  0.0533  1.1277  0.6786
17253TIP3    H273251   3.495   6.411  16.972  0.5311 -3.1337 -0.4544
17254TIP3   OH273252   1.998   2.463   1.680  0.6950 -0.8143  0.2075
17254TIP3    H173253   1.956   2.379   1.699  0.7869 -1.0115 -0.4476
17254TIP3    H273254   2.023   2.497   1.766 -1.6073 -0.2396  0.7269
17255TIP3   OH273255   2.213   1.482  16.229 -0.3954 -0.1903  0.0204
17255TIP3    H173256   2.279   1.537  16.186  0.4874  0.2182  1.8259
17255TIP3    H273257   2.132   1.500  16.180 -0.2115  2.9697  0.6379
17256TIP3   OH273258   2.493   4.454   2.977 -0.2781 -0.1494  0.6301
17256TIP3    H173259   2.567   4.407   2.936  0.0976  1.0181 -0.0732
17256TIP3    H273260   2.531   4.536   3.009 -1.1986  0.2961  0.6157
17257TIP3   OH273261   5.554   6.085  16.622  0.0350 -0.1038  0.1397
17257TIP3    H173262   5.639   6.049  16.646  0.8462  1.4978 -0.1897
17257TIP3    H273263   5.574   6.150  16.555 -1.6052 -0.6647 -0.9603
17258TIP3   OH273264   0.692   6.702   5.508 -0.7720 -0.0072 -0.1866
17258TIP3    H173265   0.676   6.621   5.557  1.1511  0.0405  0.5820
17258TIP3    H273266   0.639   6.692   5.429 -0.3828 -2.1345 -0.2382
17259TIP3   OH273267   4.926   6.374  16.662  0.7766  0.4685  0.6013
17259TIP3    H173268   4.874   6.307  16.706 -1.4387  0.8057 -1.2897
17259TIP3    H273269   4.869   6.452  16.663  1.1130  0.7983 -1.7318
17260TIP3   OH273270   3.653   1.296   5.023  0.3501  0.1111 -0.5259
17260TIP3    H173271   3.591   1.253   5.081  0.1640 -1.9499 -2.1439
17260TIP3    H273272   3.724   1.325   5.081 -0.5925 -0.3800  0.9223
17261TIP3   OH273273   6.087   3.407  15.920  0.5070 -0.4811 -0.4562
17261TIP3    H173274   6.177   3.436  15.905  0.6990 -1.8408 -2.3553
17261TIP3    H273275   6.050   3.473  15.978  1.8508  1.7381 -1.9466
17262TIP3   OH273276   6.339   2.929  16.798  0.8709  0.4906  0.2394
17262TIP3    H173277   6.434   2.920  16.791  0.7066  0.0596 -1.9162
17262TIP3    H273278   6.304   2.871  16.731 -0.8871  1.5352  0.1859
17263TIP3   OH273279   4.980   0.082  13.607  0.4668 -0.0799 -0.0138
17263TIP3    H173280   4.940   0.047  13.527  0.8270 -1.2062  0.2802
17263TIP3    H273281   4.989   0.176  13.590 -2.0668  0.1977 -0.1603
17264TIP3   OH273282   0.252   5.048   2.551 -0.0673  0.4151 -0.0881
17264TIP3    H173283   0.170   5.011   2.518  0.9826 -1.8336 -0.3949
17264TIP3    H273284   0.300   4.972   2.584  2.5244  1.4273 -1.2844
17265TIP3   OH273285   5.605   1.180   0.406 -0.1857  0.2728 -0.3991
17265TIP3    H173286   5.589   1.143   0.492 -2.4669  0.9821 -0.4571
17265TIP3    H273287   5.658   1.258   0.422  1.6196 -0.9807  0.0500
17266TIP3   OH273288   4.779   6.227  15.587  0.4401  0.1020 -0.0933
17266TIP3    H173289   4.817   6.214  15.673  0.7237  0.6845 -0.1256
17266TIP3    H273290   4.806   6.150  15.537  2.3235  0.8967 -0.3730
17267TIP3   OH273291   6.354   0.094  16.138  0.0970  0.0554  0.6133
17267TIP3    H173292   6.308   0.086  16.221  0.0154  1.0364  0.6731
17267TIP3    H273293   6.302   0.043  16.076 -0.1258 -0.2525  1.0497
17268TIP3   OH273294   2.814   6.433  10.834  0.0912  0.5509 -0.3956
17268TIP3    H173295   2.855   6.460  10.752 -0.2699 -0.1559 -0.8193
17268TIP3    H273296   2.861   6.482  10.902  1.6922 -0.2532 -0.8564
17269TIP3   OH273297   6.569   0.465   6.031  0.2762 -0.3787 -0.3536
17269TIP3    H173298   6.624   0.409   6.086 -0.0687 -0.5102 -0.1332
17269TIP3    H273299   6.553   0.543   6.085 -0.6982 -0.8380  0.0627
17270TIP3   OH273300   2.050   0.671   0.261 -0.2961 -0.3095  0.1647
17270TIP3    H173301   2.053   0.750   0.208  0.4438  0.4367  1.2734
17270TIP3    H273302   2.125   0.677   0.320 -0.8238 -1.3079  1.0064
17271TIP3   OH273303   3.028   1.215  16.331 -0.0543 -0.1671  0.4504
17271TIP3    H173304   3.031   1.225  16.236 -0.1785  1.2056  0.5674
17271TIP3    H273305   3.100   1.269  16.363 -1.4126  1.2813  1.2316
17272TIP3   OH273306   3.657   3.707  11.124  0.2442 -0.3131 -0.2429
17272TIP3    H173307   3.653   3.776  11.058  1.8317 -0.8989 -0.9927
17272TIP3    H273308   3.750   3.690  11.136  0.0376 -0.1050  2.3211
17273TIP3   OH273309   6.410   0.639  12.117  0.1974 -0.0538  0.1412
17273TIP3    H173310   6.443   0.563  12.166 -1.6083 -2.0321 -1.4998
17273TIP3    H273311   6.402   0.607  12.027 -3.1895  1.1693 -0.1293
17274TIP3   OH273312   3.987   1.883  16.561 -0.0697  0.5351  0.1296
17274TIP3    H173313   4.082   1.878  16.572  0.1938  2.8839 -0.6358
17274TIP3    H273314   3.952   1.866  16.649  1.0531  0.2196  0.5413
17275TIP3   OH273315   4.898   6.324   0.940 -0.8007 -0.3421  0.3202
17275TIP3    H173316   4.875   6.232   0.935  0.0598 -0.5133 -1.3363
17275TIP3    H273317   4.993   6.324   0.954 -0.9819  0.3164  1.7285
17276TIP3   OH273318   4.423   1.628  12.590  0.2586 -0.1376 -0.4281
17276TIP3    H173319   4.370   1.681  12.651 -1.3921 -0.5086 -1.4653
17276TIP3    H273320   4.362   1.562  12.557  0.8579  0.4989 -3.0502
17277TIP3   OH273321   0.577   6.374  15.558 -0.5762  0.1759  0.3073
17277TIP3    H173322   0.543   6.343  15.474 -0.4273 -0.0738  0.3392
17277TIP3    H273323   0.671   6.388  15.541 -0.0760 -1.9957  1.0274
17278TIP3   OH273324   5.654   1.988  13.886  0.2407 -0.3755 -0.0250
17278TIP3    H173325   5.672   2.082  13.887 -2.0508  0.1284  1.7011
17278TIP3    H273326   5.590   1.976  13.816  0.1846 -0.5747  0.0606
17279TIP3   OH273327   5.948   0.860   5.226 -0.1370 -0.2931 -0.2511
17279TIP3    H173328   6.006   0.790   5.195  0.4566  0.9804 -2.1674
17279TIP3    H273329   5.970   0.870   5.319  2.6096 -0.0070 -0.8493
17280TIP3   OH273330   5.309   1.051   6.556 -0.1228  0.7761 -0.2021
17280TIP3    H173331   5.297   0.971   6.607  0.8957  0.4534 -0.4448
17280TIP3    H273332   5.260   1.118   6.604 -1.6916 -0.1389 -0.4355
17281TIP3   OH273333   5.054   0.806   2.709  0.0418 -0.2549  0.2178
17281TIP3    H173334   5.061   0.735   2.773  0.6444 -1.9641 -1.6529
17281TIP3    H273335   5.103   0.878   2.749  0.8085 -1.4154  1.4719
17282TIP3   OH273336   3.540   6.602   4.931  0.4122  0.1691  0.4255
17282TIP3    H173337   3.519   6.652   5.010  1.1982 -0.2522  0.9151
17282TIP3    H273338   3.633   6.580   4.941  0.3181 -0.5617 -0.2395
17283TIP3   OH273339   5.408   0.498   4.634  0.1827 -0.1947  0.5384
17283TIP3    H173340   5.448   0.547   4.562 -0.0776 -1.8625 -0.8117
17283TIP3    H273341   5.374   0.565   4.693  0.6247  1.2339 -0.7706
17284TIP3   OH273342   6.293   3.053   3.138  0.2173  0.1093  0.4252
17284TIP3    H173343   6.238   2.996   3.084  0.2652  0.8510 -0.4337
17284TIP3    H273344   6.318   3.124   3.079  0.4371  0.8409  1.3822
17285TIP3   OH273345   2.830   1.890  11.947 -0.4191 -0.1882 -0.2669
17285TIP3    H173346   2.776   1.834  12.002 -0.6037 -0.0007 -0.2551
17285TIP3    H273347   2.920   1.866  11.969 -0.4976 -0.4629 -0.2472
17286TIP3   OH273348   3.371   4.211   0.201  0.2843 -0.0820 -0.0167
17286TIP3    H173349   3.392   4.172   0.116 -0.7596  0.5617 -0.5895
17286TIP3    H273350   3.385   4.305   0.189  3.1048 -0.2124  1.4465
17287TIP3   OH273351   4.908   2.320  13.064  0.1360  1.0687  0.7131
17287TIP3    H173352   4.830   2.375  13.053 -0.8420 -0.5896 -1.4151
17287TIP3    H273353   4.878   2.232  13.045  2.3511  0.2376  0.7566
17288TIP3   OH273354   1.824   4.658   1.993 -0.6197  0.6277 -0.0517
17288TIP3    H173355   1.820   4.701   1.907  2.4562  0.9395 -0.1584
17288TIP3    H273356   1.802   4.567   1.974 -2.7605  1.1847 -0.6013
17289TIP3   OH273357   5.891   3.538   2.582 -0.0610 -0.2197  0.2838
17289TIP3    H173358   5.962   3.477   2.599 -0.7810 -1.0046  0.5192
17289TIP3    H273359   5.932   3.625   2.590  1.4570 -0.6258 -1.9910
17290TIP3   OH273360   5.249   1.986  17.199 -0.0006 -0.5204 -0.2335
17290TIP3    H173361   5.194   2.023  17.129 -1.1771  2.3768  2.0176
17290TIP3    H273362   5.198   1.913  17.233 -0.3865 -0.6311 -1.0121
17291TIP3   OH273363   5.563   5.362   3.515  0.0172 -0.1190 -0.3907
17291TIP3    H173364   5.509   5.350   3.437  0.4694  0.7160 -0.8515
17291TIP3    H273365   5.635   5.301   3.504 -0.2275 -0.4214 -0.3342
17292TIP3   OH273366   0.610   3.260  14.733 -0.3762 -0.4712 -0.1263
17292TIP3    H173367   0.561   3.342  14.745  0.5447  0.1421 -0.4758
17292TIP3    H273368   0.560   3.212  14.667 -0.8566 -0.1420 -0.0111
17293TIP3   OH273369   2.500   1.118  11.206 -0.6105 -0.0590  0.2264
17293TIP3    H173370   2.407   1.110  11.227 -0.8513 -0.1642 -0.8395
17293TIP3    H273371   2.528   1.029  11.186 -0.2735 -0.0271  0.5498
17294TIP3   OH273372   1.558   3.406   0.698 -0.4180 -0.3061  0.4690
17294TIP3    H173373   1.608   3.384   0.619  0.4636 -0.8672  1.1588
17294TIP3    H273374   1.581   3.497   0.717 -0.0709 -0.3976  0.4860
17295TIP3   OH273375   3.697   3.290   4.116  0.0339  0.4496  0.0618
17295TIP3    H173376   3.694   3.240   4.034 -2.3761 -2.0644  1.5178
17295TIP3    H273377   3.790   3.294   4.138  0.4896 -1.7262 -1.1541
17296TIP3   OH273378   1.853   3.077   0.006 -0.1920 -0.3070 -0.5298
17296TIP3    H173379   1.794   3.035   0.069 -1.0242 -0.1121 -1.1605
17296TIP3    H273380   1.822   3.046  -0.080 -0.1795  0.8069 -0.9467
17297TIP3   OH273381   5.120   3.459   1.458  0.7777  0.1325 -0.0856
17297TIP3    H173382   5.176   3.435   1.532  0.0559 -0.7528  0.1911
17297TIP3    H273383   5.064   3.529   1.491  2.6034  2.0223 -0.7700
17298TIP3   OH273384   5.294   0.399  13.782  0.3501 -0.0636 -0.4520
17298TIP3    H173385   5.255   0.349  13.854  1.5009 -0.0690  0.1886
17298TIP3    H273386   5.309   0.334  13.713 -0.6715 -0.0744 -0.6888
17299TIP3   OH273387   5.416   5.775  16.766  0.2433 -0.0078  0.2296
17299TIP3    H173388   5.434   5.699  16.710 -0.5484  0.4756 -0.7118
17299TIP3    H273389   5.433   5.743  16.854 -0.9759 -1.6074 -0.0401
17300TIP3   OH273390   0.812   2.903  11.717  0.1457 -0.1853 -0.3637
17300TIP3    H173391   0.791   2.814  11.687  1.0691 -1.7171  3.1034
17300TIP3    H273392   0.908   2.908  11.714  0.1068  0.7370 -0.5118
17301TIP3   OH273393   0.788   4.028  11.340 -0.4879 -0.3839  0.1852
17301TIP3    H173394   0.861   4.089  11.339 -1.7461  1.1940 -0.1248
17301TIP3    H273395   0.808   3.967  11.412  1.1383 -0.0664  0.0362
17302TIP3   OH273396   5.629   1.630  15.997  0.1169  0.0879  0.3638
17302TIP3    H173397   5.654   1.553  15.947  0.8900  0.4229  0.2215
17302TIP3    H273398   5.570   1.678  15.940 -1.5092 -1.0937  0.9942
17303TIP3   OH273399   2.169   4.831   6.202  0.5776  0.1377 -0.1647
17303TIP3    H173400   2.187   4.750   6.250 -1.2405  0.4663  1.1950
17303TIP3    H273401   2.255   4.869   6.185  1.3520 -0.8758  1.3151
17304TIP3   OH273402   3.447   5.329   0.073 -0.5167 -0.1654 -0.4399
17304TIP3    H173403   3.532   5.293   0.097 -0.5771 -0.4175 -0.5940
17304TIP3    H273404   3.384   5.272   0.118 -0.5884  0.6806  0.5711
17305TIP3   OH273405   3.711   0.963  11.394  0.2354  0.4922  0.2338
17305TIP3    H173406   3.796   0.933  11.361  0.9687  0.7032  1.8349
17305TIP3    H273407   3.712   0.941  11.487 -2.1445 -0.9953  0.0190
17306TIP3   OH273408   2.508   5.985   3.206  0.3480  0.0382  0.3981
17306TIP3    H173409   2.448   5.939   3.147 -0.6238  0.4481  1.0436
17306TIP3    H273410   2.499   6.077   3.181  2.7424 -0.0855 -1.3185
17307TIP3   OH273411   3.698   3.219  16.011  0.0513 -0.1985  0.1963
17307TIP3    H173412   3.706   3.311  15.986  0.7206 -0.2130  0.3528
17307TIP3    H273413   3.769   3.204  16.073 -0.2006 -0.7613  0.3594
17308TIP3   OH273414   6.738   4.286   2.021 -0.0102  0.2060  0.5118
17308TIP3    H173415   6.768   4.346   2.090  1.3923  0.8296 -0.6124
17308TIP3    H273416   6.735   4.340   1.942  1.7138 -1.2678 -0.6275
17309TIP3   OH273417   0.847   4.379   3.113 -0.3099 -0.4396  0.1980
17309TIP3    H173418   0.774   4.437   3.091  1.1650  1.0826 -0.9470
17309TIP3    H273419   0.908   4.434   3.161  0.1353 -1.6851  1.1186
17310TIP3   OH273420   6.340   0.680   0.661  0.6587  0.4801 -0.1474
17310TIP3    H173421   6.270   0.629   0.621  1.2090  1.9773 -3.3250
17310TIP3    H273422   6.399   0.614   0.698 -1.0985 -0.8889  0.3595
17311TIP3   OH273423   6.703   6.588   1.458 -0.9553  0.3582 -0.1364
17311TIP3    H173424   6.668   6.653   1.519 -0.9912 -0.9706  1.3182
17311TIP3    H273425   6.656   6.604   1.376 -3.4786 -0.0023  1.1447
17312TIP3   OH273426   0.857   5.981  13.805 -0.8909  0.1488 -0.7138
17312TIP3    H173427   0.898   5.898  13.782  1.2219  1.3792 -1.7814
17312TIP3    H273428   0.775   5.957  13.847  1.0903 -2.5767  2.0429
17313TIP3   OH273429   1.461   3.254  15.183  0.5377  0.7430 -0.2342
17313TIP3    H173430   1.375   3.279  15.218  1.2780  3.8989 -0.3272
17313TIP3    H273431   1.519   3.257  15.259  0.8728  0.4173 -0.4804
17314TIP3   OH273432   3.570   1.552  12.707 -0.5983  0.4869  0.3990
17314TIP3    H173433   3.662   1.570  12.725  0.1667  0.9616 -3.3276
17314TIP3    H273434   3.547   1.484  12.771  2.2308  0.4892  1.5852
17315TIP3   OH273435   2.970   0.453   2.890 -0.1134  0.0535 -0.2326
17315TIP3    H173436   2.909   0.387   2.859 -1.6486 -0.2321  2.9389
17315TIP3    H273437   3.057   0.414   2.878 -0.8690 -1.6801 -0.2848
17316TIP3   OH273438   3.110   4.860   4.475  0.7926  0.5531 -0.1944
17316TIP3    H173439   3.103   4.782   4.419  0.5214  0.5341 -0.1303
17316TIP3    H273440   3.037   4.854   4.535 -0.2004  1.7061 -1.2378
17317TIP3   OH273441   4.482   4.874  13.499 -0.4261  0.8115 -0.6505
17317TIP3    H173442   4.558   4.855  13.444 -0.4880  1.8189 -1.0989
17317TIP3    H273443   4.500   4.827  13.581 -0.6667 -1.3285 -1.7394
17318TIP3   OH273444   5.161   2.946   1.395 -0.2607  0.6620  0.3561
17318TIP3    H173445   5.176   2.851   1.389 -0.9764  0.5975 -0.5371
17318TIP3    H273446   5.168   2.965   1.489 -1.3141 -0.4863  0.6856
17319TIP3   OH273447   2.749   5.408  15.477 -0.2727 -0.9575  0.0576
17319TIP3    H173448   2.708   5.379  15.558 -0.3341 -0.9123  0.0418
17319TIP3    H273449   2.739   5.334  15.417  0.6284 -1.3775  0.3944
17320TIP3   OH273450   5.843   1.425  12.906 -0.1522 -0.0361 -0.1695
17320TIP3    H173451   5.932   1.390  12.911 -0.1046 -0.5162 -2.9621
17320TIP3    H273452   5.787   1.348  12.895 -0.3458  0.3989 -3.2451
17321TIP3   OH273453   6.042   1.762   2.040 -0.0545 -0.4786 -0.3867
17321TIP3    H173454   5.952   1.795   2.044  0.3111  0.4123  0.9148
17321TIP3    H273455   6.096   1.836   2.068  1.0016 -1.3555 -0.0530
17322TIP3   OH273456   2.548   2.539   1.633  0.0511  0.2891 -0.4008
17322TIP3    H173457   2.532   2.517   1.542 -0.0848 -0.8433 -0.1186
17322TIP3    H273458   2.518   2.630   1.642 -1.7378 -0.2032 -1.0281
17323TIP3   OH273459   4.627   0.250  15.933  0.6478 -0.2132  0.4001
17323TIP3    H173460   4.644   0.302  15.855 -0.9559 -0.2358  0.0039
17323TIP3    H273461   4.653   0.307  16.006  0.9017  0.3259 -0.1083
17324TIP3   OH273462   6.657   5.035   5.102 -0.3157 -0.6317  0.0751
17324TIP3    H173463   6.602   5.072   5.172 -0.4236  0.4019 -0.5329
17324TIP3    H273464   6.677   5.110   5.046 -0.6509 -1.5464 -1.2932
17325TIP3   OH273465   0.141   4.581  12.508 -0.2622 -0.1231 -0.0223
17325TIP3    H173466   0.107   4.647  12.569 -0.5446 -0.5695  0.3116
17325TIP3    H273467   0.096   4.500  12.533 -0.2074 -0.3651 -0.6721
17326TIP3   OH273468   6.000   5.305  11.965 -0.5304  0.6827  0.6606
17326TIP3    H173469   6.044   5.322  11.881  1.6643  0.5689  1.7114
17326TIP3    H273470   5.917   5.353  11.959  0.2457  1.9166 -1.0018
17327TIP3   OH273471   0.249   3.111  13.330  0.7424  0.5505 -0.2313
17327TIP3    H173472   0.177   3.112  13.392  0.1967  0.9472 -0.8629
17327TIP3    H273473   0.327   3.124  13.384  0.3424  0.2333  0.4409
17328TIP3   OH273474   4.845   3.333   2.400  0.4874  0.4535 -0.4790
17328TIP3    H173475   4.836   3.238   2.401  0.3281  0.4385  1.3130
17328TIP3    H273476   4.847   3.357   2.308 -2.7544 -0.9641 -1.0570
17329TIP3   OH273477   3.946   6.225   2.707  0.3087  0.3127 -0.1952
17329TIP3    H173478   3.904   6.150   2.666 -0.9163  0.4776  0.6952
17329TIP3    H273479   4.008   6.257   2.642  1.5095 -1.9857 -0.2696
17330TIP3   OH273480   6.118   2.173   1.441 -0.3324  0.4611  0.1889
17330TIP3    H173481   6.196   2.134   1.481 -1.0271 -0.2744  0.8457
17330TIP3    H273482   6.058   2.099   1.429 -0.8367  0.9790 -0.5394
17331TIP3   OH273483   2.602   6.437  11.099  0.3563 -0.1389  0.0547
17331TIP3    H173484   2.644   6.455  11.184 -0.5770 -0.7735  0.6717
17331TIP3    H273485   2.627   6.511  11.044  2.2881 -0.4874  0.3784
17332TIP3   OH273486   6.274   3.242   0.355 -0.2560 -0.4275  0.9539
17332TIP3    H173487   6.210   3.306   0.323  1.8320  1.2383 -0.2048
17332TIP3    H273488   6.319   3.288   0.426  0.7001 -0.9178  0.6831
17333TIP3   OH273489   0.289   1.146  11.500 -0.1831 -0.1175 -0.1347
17333TIP3    H173490   0.233   1.080  11.542 -1.5163  1.7193  1.0845
17333TIP3    H273491   0.366   1.152  11.556  0.4361 -1.3115 -0.8066
17334TIP3   OH273492   4.715   1.666  15.615 -0.6613  0.5155 -0.2756
17334TIP3    H173493   4.697   1.615  15.536  0.3010  1.5215 -1.1762
17334TIP3    H273494   4.679   1.752  15.597  1.0382  1.2524 -0.3294
17335TIP3   OH273495   2.116   5.898  10.686 -0.0554  0.8466 -0.5051
17335TIP3    H173496   2.097   5.987  10.657  2.1982  0.7358 -2.6876
17335TIP3    H273497   2.209   5.886  10.666  0.3849 -1.1570  2.1301
17336TIP3   OH273498   2.270   5.873  13.818 -0.1014  0.3674 -0.6982
17336TIP3    H173499   2.208   5.910  13.755 -0.4420  1.0383  0.0146
17336TIP3    H273500   2.324   5.948  13.844 -0.0243  0.1161 -0.1310
17337TIP3   OH273501   4.229   1.173  13.815  0.5126 -0.5196 -0.5360
17337TIP3    H173502   4.185   1.248  13.776  2.3023  1.1992  0.5635
17337TIP3    H273503   4.202   1.099  13.761 -2.3838  0.6224 -0.8852
17338TIP3   OH273504   5.260   1.970   5.721  0.2826 -0.5466 -0.3890
17338TIP3    H173505   5.181   2.018   5.748  1.0849 -0.3734  1.8129
17338TIP3    H273506   5.329   2.036   5.723  0.9770 -1.2924  0.3863
17339TIP3   OH273507   6.576   1.936  12.944  0.0587  0.0026  0.0179
17339TIP3    H173508   6.593   1.843  12.926 -2.4901 -0.9391  1.9061
17339TIP3    H273509   6.656   1.968  12.984  1.3175 -1.0822 -1.4821
17340TIP3   OH273510   2.068   1.970   0.699  0.6230  0.7523 -0.4631
17340TIP3    H173511   2.113   1.897   0.741  0.7514  0.4754 -1.0576
17340TIP3    H273512   2.138   2.032   0.678  0.6824  0.5227 -0.9830
17341TIP3   OH273513   3.132   3.895  11.650  0.3754 -0.0371  0.1326
17341TIP3    H173514   3.198   3.869  11.715  0.7359  2.6641  0.9785
17341TIP3    H273515   3.124   3.989  11.661 -1.8151  0.0733 -1.7178
17342TIP3   OH273516   5.478   2.524  14.517 -0.3175 -0.3448  0.4345
17342TIP3    H173517   5.410   2.589  14.497 -1.3591 -1.2276  0.9743
17342TIP3    H273518   5.477   2.465  14.441  0.1924 -0.0933  0.2276
17343TIP3   OH273519   0.003   5.184   5.515 -0.3291 -0.2060  0.1361
17343TIP3    H173520  -0.025   5.093   5.522  0.1005 -0.4946 -1.5886
17343TIP3    H273521  -0.064   5.233   5.563 -1.0398 -1.3504  0.3463
17344TIP3   OH273522   1.373   0.945  17.093  0.0065 -0.0234  0.0237
17344TIP3    H173523   1.327   0.907  17.169 -1.6581 -0.6402 -1.2205
17344TIP3    H273524   1.400   1.032  17.123  1.1529 -0.9655  1.9425
17345TIP3   OH273525   1.415   4.855   2.687 -0.3223 -0.5235 -0.2544
17345TIP3    H173526   1.451   4.807   2.761  0.7281  0.3159 -0.1818
17345TIP3    H273527   1.415   4.793   2.614 -2.0202 -1.5692  0.5747
17346TIP3   OH273528   5.043   2.281   2.404  0.5557  0.3789 -0.0557
17346TIP3    H173529   4.964   2.238   2.437  1.4225 -1.6338 -0.4700
17346TIP3    H273530   5.027   2.291   2.310  0.5884  0.4515 -0.0537
17347TIP3   OH273531   4.818   3.356  12.811  0.2250  0.4583 -0.2179
17347TIP3    H173532   4.875   3.370  12.887 -1.4983 -0.8350  1.4093
17347TIP3    H273533   4.825   3.437  12.760  0.4472  1.9459  2.0233
17348TIP3   OH273534   1.843   1.021   2.469 -0.4969 -0.5545 -0.1791
17348TIP3    H173535   1.804   0.988   2.550 -1.0209 -1.6540 -0.8427
17348TIP3    H273536   1.784   0.990   2.400 -0.5816  1.1613 -0.9286
17349TIP3   OH273537   2.143   0.154  15.865  0.2513  0.0139  0.1621
17349TIP3    H173538   2.071   0.211  15.894  0.6558 -0.1831  1.6126
17349TIP3    H273539   2.222   0.201  15.890  0.5935 -1.3395  1.7829
17350TIP3   OH273540   5.481   6.781   1.538  0.2797 -0.2810  0.4985
17350TIP3    H173541   5.445   6.701   1.577  1.4218 -0.7660  0.5916
17350TIP3    H273542   5.539   6.750   1.469  1.2608  0.4264  0.9818
17351TIP3   OH273543   4.923   0.205   4.042 -0.2602  0.4250 -0.4020
17351TIP3    H173544   4.868   0.171   3.972  0.5888 -1.8220 -0.0841
17351TIP3    H273545   4.905   0.147   4.116  2.3305 -0.3158 -0.2543
17352TIP3   OH273546   4.879   6.717  12.423 -0.0809 -0.3553  0.1240
17352TIP3    H173547   4.841   6.767  12.351  0.2011 -0.7998 -0.3358
17352TIP3    H273548   4.823   6.737  12.498  0.0290  0.6511 -0.0501
17353TIP3   OH273549   3.114   1.724   2.216 -0.6375  0.1164  0.6655
17353TIP3    H173550   3.150   1.755   2.132  2.3726 -1.9208  1.0321
17353TIP3    H273551   3.027   1.692   2.195 -1.0089  2.0496 -1.1036
17354TIP3   OH273552   4.042   6.106   6.033 -0.6972  0.1003  0.1432
17354TIP3    H173553   4.113   6.169   6.036  0.1958 -0.8761  0.1961
17354TIP3    H273554   4.072   6.032   6.086 -0.8487 -1.1953 -1.4760
17355TIP3   OH273555   3.303   4.910   0.668 -0.4326 -0.4567 -0.5246
17355TIP3    H173556   3.218   4.917   0.625 -0.8076 -0.7319  0.1478
17355TIP3    H273557   3.324   4.999   0.695 -0.1982 -0.2829 -1.2490
17356TIP3   OH273558   0.212   5.183   5.685 -0.4014 -0.5319 -0.0602
17356TIP3    H173559   0.127   5.185   5.641 -0.5791 -1.0164  0.2523
17356TIP3    H273560   0.244   5.273   5.681 -0.4359 -0.5573 -1.1406
17357TIP3   OH273561   5.333   5.522  16.589  0.1163 -0.0005  0.5166
17357TIP3    H173562   5.275   5.486  16.656 -1.2471  2.7940  0.9820
17357TIP3    H273563   5.283   5.515  16.508  0.3273 -0.1637  0.3975
17358TIP3   OH273564   0.326   2.424  12.445 -0.0325  0.4323 -0.4918
17358TIP3    H173565   0.356   2.441  12.535 -0.1361  0.1273 -0.3975
17358TIP3    H273566   0.281   2.504  12.420  1.2190  1.0591 -0.7949
17359TIP3   OH273567   2.885   6.434  13.270 -0.4711  0.0085 -0.1978
17359TIP3    H173568   2.795   6.430  13.301 -0.8833 -0.6070 -1.3987
17359TIP3    H273569   2.881   6.402  13.180  1.1497 -1.3661  0.1508
17360TIP3   OH273570   2.194   0.220  17.025 -0.1136 -0.1024 -0.1157
17360TIP3    H173571   2.227   0.309  17.037 -0.2928 -0.1240  0.5626
17360TIP3    H273572   2.118   0.230  16.967  0.5134  0.0502 -0.9341
17361TIP3   OH273573   5.547   4.171  16.948  0.1923  0.4990  0.1775
17361TIP3    H173574   5.615   4.179  16.882  1.0571  2.3452  1.2072
17361TIP3    H273575   5.496   4.252  16.941 -1.2004 -0.3449  0.1954
17362TIP3   OH273576   5.336   1.719   1.247  0.5578 -0.1293  0.4159
17362TIP3    H173577   5.289   1.639   1.272  1.2347 -0.2119  1.4978
17362TIP3    H273578   5.380   1.696   1.166  1.0433 -0.9966  0.8998
17363TIP3   OH273579   0.510   6.140   1.146 -0.2586 -0.3758 -0.2679
17363TIP3    H173580   0.527   6.048   1.168 -0.4317 -0.2665  0.3346
17363TIP3    H273581   0.427   6.138   1.098  1.2532 -0.8903 -3.0419
17364TIP3   OH273582   1.394   4.317  15.833 -0.1678  0.8008 -0.1391
17364TIP3    H173583   1.349   4.242  15.872 -1.1745  1.7016  0.4507
17364TIP3    H273584   1.434   4.363  15.907 -0.2905  1.3319 -0.3978
17365TIP3   OH273585   3.333   5.841  12.535  0.2285  0.5045  0.1224
17365TIP3    H173586   3.383   5.896  12.595 -0.9476  0.5955  1.0503
17365TIP3    H273587   3.252   5.889  12.521  0.3971  0.3916 -1.4194
17366TIP3   OH273588   4.367   2.115  13.801 -0.4702  0.7246 -0.0125
17366TIP3    H173589   4.323   2.200  13.795  0.7565  1.4204  0.4119
17366TIP3    H273590   4.298   2.054  13.825 -0.9685  2.0482  2.2705
17367TIP3   OH273591   5.132   5.143   0.248  0.3444  0.1696 -0.1806
17367TIP3    H173592   5.090   5.121   0.165  2.2523  1.9748 -1.7252
17367TIP3    H273593   5.191   5.069   0.265  0.3008  0.0156 -0.6996
17368TIP3   OH273594   4.654   0.999  15.492 -0.0544 -0.5489  0.4476
17368TIP3    H173595   4.689   1.071  15.544 -1.2988  0.0221  0.5201
17368TIP3    H273596   4.607   1.041  15.420 -0.3048 -1.2967  0.1635
17369TIP3   OH273597   4.159   0.212   1.718 -0.7751 -0.1126 -0.4982
17369TIP3    H173598   4.207   0.139   1.757 -0.0872  0.1708 -0.7882
17369TIP3    H273599   4.150   0.189   1.626 -1.2971 -0.2133 -0.4225
17370TIP3   OH273600   0.376   3.231   2.650  0.0400  0.1152 -0.6001
17370TIP3    H173601   0.438   3.268   2.587 -1.1368  2.0191 -0.7478
17370TIP3    H273602   0.306   3.195   2.595  0.1439 -0.3818 -0.4085
17371TIP3   OH273603   0.890   4.748  12.289  0.1193  0.4551 -0.2982
17371TIP3    H173604   0.953   4.734  12.361  1.2294  2.4068 -0.8154
17371TIP3    H273605   0.810   4.774  12.333  0.4563  0.5262  0.2911
17372TIP3   OH273606   3.044   3.660   2.264  0.0213 -0.4266 -0.3569
17372TIP3    H173607   3.123   3.608   2.277  0.4723  0.5400  1.1700
17372TIP3    H273608   3.071   3.731   2.205  0.4849  0.2008  0.5715
17373TIP3   OH273609   2.344   5.499  12.686  0.3528 -0.2785  0.1967
17373TIP3    H173610   2.387   5.504  12.601 -0.7371  0.2911 -0.3359
17373TIP3    H273611   2.377   5.575  12.735  0.4981 -0.2562  0.0642
17374TIP3   OH273612   2.603   0.860  11.238  0.3378  0.3964 -0.0620
17374TIP3    H173613   2.541   0.835  11.170  1.4028 -0.4671 -0.7412
17374TIP3    H273614   2.603   0.787  11.299 -0.2129  0.9365  0.6077
17375TIP3   OH273615   1.460   6.656  16.202 -0.3276  0.6502 -0.3667
17375TIP3    H173616   1.462   6.693  16.114  0.4274  1.5792  0.0272
17375TIP3    H273617   1.481   6.730  16.259 -1.6812  0.2796  0.6703
17376TIP3   OH273618   1.028   2.467   1.795  0.5558 -0.6016 -0.7617
17376TIP3    H173619   1.054   2.557   1.777  0.0082  0.0410  1.2907
17376TIP3    H273620   1.098   2.432   1.851  0.1567 -1.0087 -0.5052
17377TIP3   OH273621   4.497   4.136   4.633  0.4952 -0.4371  0.0586
17377TIP3    H173622   4.424   4.092   4.676 -0.7772 -0.0978 -1.6385
17377TIP3    H273623   4.491   4.227   4.662  2.1930 -0.9751  2.3542
17378TIP3   OH273624   6.103   6.095   1.013  0.5229 -0.2643  0.3210
17378TIP3    H173625   6.140   6.118   1.099  0.5213  0.1160  0.2216
17378TIP3    H273626   6.101   5.999   1.013  0.5343 -0.2687  0.7421
17379TIP3   OH273627   5.534   0.056  14.941 -0.2196  0.1509  0.3797
17379TIP3    H173628   5.527   0.011  14.857  0.2726  1.6198 -0.4827
17379TIP3    H273629   5.541  -0.014  15.006  0.9616 -1.0109 -0.9452
17380TIP3   OH273630   3.386   2.515  13.692 -0.2020  0.6840  0.3043
17380TIP3    H173631   3.335   2.569  13.753  0.0303  0.4173  0.7346
17380TIP3    H273632   3.355   2.426  13.708 -1.7599  0.8269 -1.5285
17381TIP3   OH273633   5.447   4.881  13.529  0.3046  0.1161 -0.1359
17381TIP3    H173634   5.537   4.864  13.503  0.1461  1.9766 -2.1609
17381TIP3    H273635   5.412   4.794  13.551  1.8273 -1.0123 -1.8955
17382TIP3   OH273636   4.939   4.242   3.226 -0.1859  0.3382  0.3302
17382TIP3    H173637   4.884   4.277   3.156  0.2146  0.6540  0.1727
17382TIP3    H273638   4.886   4.172   3.264  0.4433 -1.3763 -1.7265
17383TIP3   OH273639   4.560   0.665   6.939  0.6766 -0.6059  0.1753
17383TIP3    H173640   4.633   0.626   6.890  1.6671  1.3286  0.0229
17383TIP3    H273641   4.541   0.601   7.008  1.7762 -1.6449 -0.4294
17384TIP3   OH273642   2.633   4.635   2.653  0.2819 -0.7247 -0.3333
17384TIP3    H173643   2.694   4.623   2.581  0.7260  0.9827 -0.2662
17384TIP3    H273644   2.688   4.665   2.726 -0.5734  0.5692 -0.1952
17385TIP3   OH273645   2.274   1.436   0.796  0.0117 -0.0604  0.5189
17385TIP3    H173646   2.284   1.504   0.730 -0.1717 -0.6843 -0.1755
17385TIP3    H273647   2.182   1.408   0.788  0.1505 -0.5626  0.6029
17386TIP3   OH273648   6.285   3.839   5.791  0.3127 -0.4585 -0.0438
17386TIP3    H173649   6.234   3.860   5.869  0.5977  2.1985 -0.4782
17386TIP3    H273650   6.375   3.832   5.822  0.7765  2.7846 -0.3033
17387TIP3   OH273651   1.770   6.736  13.288 -0.0223  0.0664  0.4429
17387TIP3    H173652   1.687   6.713  13.329  0.0286 -0.6082  0.1825
17387TIP3    H273653   1.807   6.804  13.344 -0.0042 -0.7486  1.4584
17388TIP3   OH273654   0.695   4.082   3.259  0.6778 -0.2103 -0.1599
17388TIP3    H173655   0.662   4.153   3.314  2.2665  1.4658 -1.2449
17388TIP3    H273656   0.640   4.084   3.181  0.8517 -0.0295 -0.2786
17389TIP3   OH273657   1.888   1.602  11.496  0.6188  0.2187 -0.4379
17389TIP3    H173658   1.934   1.619  11.579  0.7336  0.9211 -0.6381
17389TIP3    H273659   1.928   1.522  11.463 -0.8151 -1.2520  1.1760
17390TIP3   OH273660   4.980   1.309   1.509 -0.0396  1.1887 -0.2040
17390TIP3    H173661   5.063   1.263   1.493 -0.6220  0.3570 -0.8870
17390TIP3    H273662   4.923   1.243   1.548 -0.5780  1.5998 -0.2966
17391TIP3   OH273663   2.072   3.365   3.929 -0.0969 -0.5424  0.5216
17391TIP3    H173664   2.076   3.313   3.849  0.2990  0.4690 -0.1339
17391TIP3    H273665   2.083   3.301   4.000 -1.2627 -1.5613 -0.1763
17392TIP3   OH273666   1.738   5.971   1.951  0.2705 -0.0126 -0.2161
17392TIP3    H173667   1.797   5.899   1.974 -1.7534 -1.2705  1.4399
17392TIP3    H273668   1.682   5.935   1.882 -0.7894 -0.1076  0.6641
17393TIP3   OH273669   2.216   4.535  14.652 -0.0811  0.6527  0.2732
17393TIP3    H173670   2.187   4.566  14.738 -0.0599  3.4913 -0.6382
17393TIP3    H273671   2.246   4.614  14.607  3.3870 -1.1830 -1.0738
17394TIP3   OH273672   5.898   6.720  13.245  0.5959  0.2630  0.3505
17394TIP3    H173673   5.908   6.739  13.338 -2.6477  2.3255  0.4210
17394TIP3    H273674   5.966   6.773  13.202  0.2316  1.6368  1.4102
17395TIP3   OH273675   1.894   1.913  12.525 -0.2700  0.7376  0.1714
17395TIP3    H173676   1.811   1.926  12.478 -0.1848  0.4619 -0.0555
17395TIP3    H273677   1.868   1.909  12.617 -0.7357 -1.0157  0.0131
17396TIP3   OH273678   5.522   6.243   0.163  0.1460 -0.5315  0.2706
17396TIP3    H173679   5.440   6.239   0.212  0.7609 -0.8672  1.3121
17396TIP3    H273680   5.581   6.184   0.209  1.1773  0.1865 -0.0682
17397TIP3   OH273681   2.914   1.343  14.972 -0.0923 -0.0489 -0.2757
17397TIP3    H173682   2.872   1.346  15.058  0.1462 -2.4434  0.0055
17397TIP3    H273683   3.008   1.344  14.991 -0.0237  0.8429 -0.6219
17398TIP3   OH273684   6.290   0.251   6.520 -0.3357  0.3188  0.2546
17398TIP3    H173685   6.350   0.289   6.456  0.3391 -0.7793  0.2081
17398TIP3    H273686   6.331   0.268   6.605  1.0822 -2.0653  0.1353
17399TIP3   OH273687   2.222   1.237  17.082  0.3337  0.0946 -0.2898
17399TIP3    H173688   2.238   1.144  17.068  1.4577 -0.1628  2.1572
17399TIP3    H273689   2.138   1.254  17.040  0.3340 -1.8966 -1.1840
17400TIP3   OH273690   0.691   4.304  13.619  0.0323 -0.2168  0.2820
17400TIP3    H173691   0.685   4.247  13.543  1.2422 -0.7060  0.5299
17400TIP3    H273692   0.630   4.376  13.600  0.3595 -0.2892 -1.1742
17401TIP3   OH273693   1.989   2.480  11.581 -0.9227  0.4938  0.1476
17401TIP3    H173694   2.010   2.544  11.648  0.8740 -0.6746  0.7730
17401TIP3    H273695   2.059   2.489  11.516 -0.2099 -1.2533  0.6031
17402TIP3   OH273696   1.495   2.714   0.831  0.1110  0.0201 -0.2236
17402TIP3    H173697   1.463   2.787   0.779 -2.0935 -0.1732  0.7550
17402TIP3    H273698   1.590   2.717   0.820 -0.0604  1.8042 -1.7792
17403TIP3   OH273699   4.686   1.217   2.341  0.2766  0.2186  0.3580
17403TIP3    H173700   4.701   1.180   2.428  2.9285 -1.2986 -0.6200
17403TIP3    H273701   4.697   1.311   2.352 -2.6765  0.4873  2.1818
17404TIP3   OH273702   1.378   0.222  15.202 -0.1067 -0.1010  0.1032
17404TIP3    H173703   1.455   0.236  15.258  1.3573  0.6584 -1.9389
17404TIP3    H273704   1.339   0.309  15.192 -1.6712 -0.5830  1.6377
17405TIP3   OH273705   3.304   0.472  13.878 -0.1085  0.4704 -0.2943
17405TIP3    H173706   3.388   0.518  13.879  0.3061 -0.2255 -1.3035
17405TIP3    H273707   3.262   0.501  13.796 -0.2177 -0.2616 -0.5059
17406TIP3   OH273708   1.803   3.063   2.149 -0.0976  0.0289  0.0594
17406TIP3    H173709   1.880   3.118   2.162  2.0030 -2.8446  0.8069
17406TIP3    H273710   1.739   3.095   2.212  1.6154  0.6156  1.5782
17407TIP3   OH273711   0.092   4.308   6.038 -0.0929  0.0234  0.1670
17407TIP3    H173712   0.052   4.363   6.105 -1.5600 -1.0420  0.2329
17407TIP3    H273713   0.074   4.354   5.956  2.1888  1.6114  0.4715
17408TIP3   OH273714   0.334   4.128   2.066  0.1085 -0.2433  0.1055
17408TIP3    H173715   0.289   4.045   2.050 -0.6440  0.0268  0.7326
17408TIP3    H273716   0.425   4.103   2.081 -0.1002 -0.9575  0.2461
17409TIP3   OH273717   0.856   5.996  13.037 -0.0107  0.4576 -0.0338
17409TIP3    H173718   0.944   6.029  13.055 -0.4854  2.5153 -1.0741
17409TIP3    H273719   0.803   6.076  13.029 -1.3504 -0.5869 -2.4065
17410TIP3   OH273720   2.748   1.895   2.239 -0.6185 -0.4687 -0.4213
17410TIP3    H173721   2.700   1.864   2.162 -1.5952 -1.1782  0.4409
17410TIP3    H273722   2.755   1.990   2.226 -0.5791 -0.6053 -1.4780
17411TIP3   OH273723   6.049   1.017   2.816  0.0079  0.2472  0.0677
17411TIP3    H173724   5.965   1.060   2.800 -0.8922 -0.5780  2.1894
17411TIP3    H273725   6.066   1.032   2.909  0.5506 -2.4040  0.4590
17412TIP3   OH273726   0.408   6.036   3.370 -0.3803  0.0028  0.0951
17412TIP3    H173727   0.440   6.125   3.385  2.8572 -0.7831 -1.3313
17412TIP3    H273728   0.325   6.047   3.323 -0.2892  2.2211  0.3715
17413TIP3   OH273729   3.134   1.810  14.736  0.2470 -0.1440  0.6657
17413TIP3    H173730   3.073   1.791  14.807 -0.8186 -0.4307 -0.2990
17413TIP3    H273731   3.178   1.890  14.762  0.3085 -0.5668  1.9213
17414TIP3   OH273732   1.226   2.398   1.992  0.2732  0.5208  0.0647
17414TIP3    H173733   1.189   2.397   2.080 -0.8788  2.4194 -0.3551
17414TIP3    H273734   1.262   2.310   1.981 -0.0455  0.0596  2.2091
17415TIP3   OH273735   4.794   1.186   0.505 -1.0414  0.0280 -0.0552
17415TIP3    H173736   4.785   1.195   0.600 -3.8773  2.5579 -0.4243
17415TIP3    H273737   4.729   1.121   0.481 -1.6376  0.7609 -0.4382
17416TIP3   OH273738   2.609   2.707  16.486 -0.1298 -0.3912 -0.3878
17416TIP3    H173739   2.587   2.617  16.461  4.0704 -2.2627  1.7870
17416TIP3    H273740   2.562   2.721  16.569  0.7187 -1.3637  0.2720
17417TIP3   OH273741   6.190   5.436  12.409  0.4894  0.0053 -0.1256
17417TIP3    H173742   6.119   5.432  12.345  0.7941  0.7415 -0.5239
17417TIP3    H273743   6.244   5.359  12.389 -0.8802 -1.3326  1.0460
17418TIP3   OH273744   3.259   1.150  11.887  0.2840 -0.3394  0.1164
17418TIP3    H173745   3.267   1.082  11.820  1.6872  0.1607 -0.2502
17418TIP3    H273746   3.334   1.137  11.945  0.0607  0.3262  0.5684
17419TIP3   OH273747   3.870   0.185   1.745 -0.1090 -0.4277  0.0910
17419TIP3    H173748   3.957   0.145   1.747 -0.2489 -0.8015 -0.7185
17419TIP3    H273749   3.883   0.270   1.703  0.2544  0.5961  2.1680
17420TIP3   OH273750   4.753   6.562  14.153 -0.4185 -0.0039  0.0199
17420TIP3    H173751   4.661   6.576  14.131 -0.4813 -0.1512  0.1855
17420TIP3    H273752   4.754   6.550  14.248 -0.0508  1.3908  0.2016
17421TIP3   OH273753   3.820   6.038  15.489  0.5584 -0.1400  0.6301
17421TIP3    H173754   3.796   6.007  15.577  2.1349 -1.2895  0.7107
17421TIP3    H273755   3.915   6.026  15.485  0.3092 -2.1330 -1.9567
17422TIP3   OH273756   6.324   4.961   3.717  0.5818  0.1912  0.1402
17422TIP3    H173757   6.400   4.902   3.723  0.1019 -0.7754 -2.1066
17422TIP3    H273758   6.252   4.905   3.689 -1.3997  0.8309  3.5314
17423TIP3   OH273759   1.934   0.417   4.158 -0.4277  0.1673  0.1103
17423TIP3    H173760   2.011   0.402   4.214 -1.5667 -1.3992  1.3484
17423TIP3    H273761   1.956   0.375   4.075  0.6247  1.0655 -0.0921
17424TIP3   OH273762   1.032   0.196  14.457  0.1750 -0.6570  0.3501
17424TIP3    H173763   1.066   0.109  14.433 -0.3070 -0.3629 -1.6118
17424TIP3    H273764   0.954   0.207  14.402 -0.7049  0.3810  1.7422
17425TIP3   OH273765   0.206   4.770   0.595 -0.1946  0.1390 -0.1925
17425TIP3    H173766   0.123   4.722   0.597 -1.1976  1.7391 -0.9059
17425TIP3    H273767   0.262   4.719   0.537 -1.1781 -0.2463 -0.8295
17426TIP3   OH273768   0.754   0.814  14.197 -0.2801 -0.6306 -0.1469
17426TIP3    H173769   0.684   0.836  14.135 -0.0715 -0.6352 -0.3857
17426TIP3    H273770   0.711   0.814  14.282 -0.5254 -0.4251 -0.2697
17427TIP3   OH273771   2.277   3.368  11.680 -0.0643 -0.1443  0.6957
17427TIP3    H173772   2.331   3.351  11.757 -0.2315 -1.1106  0.6148
17427TIP3    H273773   2.293   3.293  11.622  0.1068  0.5972 -0.2370
17428TIP3   OH273774   0.591   3.823   1.519  0.0706  0.1068  0.3517
17428TIP3    H173775   0.684   3.808   1.537 -0.3006 -2.1111  0.7625
17428TIP3    H273776   0.553   3.735   1.520 -2.3658  1.0972  2.0627
17429TIP3   OH273777   5.839   4.538  13.830  0.6701 -0.6125 -0.3205
17429TIP3    H173778   5.884   4.510  13.910 -0.8521  0.0209  0.8000
17429TIP3    H273779   5.761   4.583  13.861 -0.7474 -1.6463 -2.1935
17430TIP3   OH273780   3.318   2.401   6.124  0.0061  0.8469 -0.3184
17430TIP3    H173781   3.244   2.376   6.180 -0.0427  1.4143 -0.1228
17430TIP3    H273782   3.288   2.385   6.035  1.0564 -2.8218 -0.1873
17431TIP3   OH273783   4.930   3.872  12.770 -0.0700  0.2676  0.0504
17431TIP3    H173784   4.985   3.855  12.846  1.2069  0.3373 -0.8378
17431TIP3    H273785   4.975   3.942  12.722 -0.1676 -0.6475 -1.4400
17432TIP3   OH273786   1.229   5.308   3.768 -0.5468  0.3172 -0.5388
17432TIP3    H173787   1.266   5.257   3.840 -0.6369 -0.3519 -0.9535
17432TIP3    H273788   1.184   5.243   3.714 -1.7738  1.0208 -0.3904
17433TIP3   OH273789   0.645   1.117  17.088 -0.4113  0.0672  0.2224
17433TIP3    H173790   0.554   1.110  17.117 -0.6902  0.4491 -0.5290
17433TIP3    H273791   0.686   1.036  17.118 -1.1152 -0.3164  0.1680
17434TIP3   OH273792   3.524   5.211   1.061 -0.1794 -0.0541 -0.1709
17434TIP3    H173793   3.590   5.200   1.129  0.4318 -2.0394 -1.0021
17434TIP3    H273794   3.519   5.125   1.019 -1.0894  0.8844 -2.1089
17435TIP3   OH273795   2.332   1.873  14.320  0.2674  0.0214  0.7010
17435TIP3    H173796   2.301   1.930  14.250 -0.4883 -0.7785  0.3697
17435TIP3    H273797   2.412   1.833  14.285  1.2552  1.4359  1.2337
17436TIP3   OH273798   2.890   4.309  13.607  0.5636  0.3734 -0.4130
17436TIP3    H173799   2.890   4.326  13.512 -1.3752  0.1604 -0.4835
17436TIP3    H273800   2.941   4.381  13.644  1.6957  0.2360 -1.6433
17437TIP3   OH273801   4.766   2.064   4.615 -0.9735  0.2538 -0.2244
17437TIP3    H173802   4.762   1.969   4.626  0.8809  0.2619  0.8311
17437TIP3    H273803   4.674   2.091   4.608 -1.5424 -1.5694 -0.2506
17438TIP3   OH273804   5.103   5.913   1.254 -0.0363 -0.4262 -0.0161
17438TIP3    H173805   5.090   5.986   1.315 -1.3551 -0.9383  0.3336
17438TIP3    H273806   5.166   5.856   1.299 -1.5562 -1.1805  1.2679
17439TIP3   OH273807   4.945   5.032   2.759 -0.1776 -0.2537  0.3593
17439TIP3    H173808   4.975   5.070   2.841  1.0736 -0.7161  0.1379
17439TIP3    H273809   4.914   5.107   2.708 -0.8499  0.0456  1.1980
17440TIP3   OH273810   4.198   4.943   5.207 -0.1350  0.7385  0.4401
17440TIP3    H173811   4.271   4.907   5.257 -1.7372 -2.3420  0.8602
17440TIP3    H273812   4.133   4.966   5.274  0.1199  2.8363  0.0402
17441TIP3   OH273813   4.784   6.094   0.489 -0.0444  0.1288  0.0787
17441TIP3    H173814   4.728   6.134   0.555 -1.1314  1.2862 -1.4668
17441TIP3    H273815   4.822   6.017   0.532 -0.8047  0.7652  1.9721
17442TIP3   OH273816   6.302   3.136  15.836 -0.1373  0.6641  0.0115
17442TIP3    H173817   6.320   3.043  15.822 -1.0084  0.5173 -0.2244
17442TIP3    H273818   6.248   3.139  15.915 -1.4270  0.7941 -0.8290
17443TIP3   OH273819   1.725   4.908  15.555  0.1200  0.2411 -0.1032
17443TIP3    H173820   1.740   4.977  15.491 -1.8508 -0.4351 -1.3948
17443TIP3    H273821   1.755   4.828  15.511 -0.2955 -0.0991  0.2304
17444TIP3   OH273822   3.966   3.138  16.819 -0.3478  0.5555  0.2199
17444TIP3    H173823   3.927   3.053  16.799  0.3874  0.4412 -0.8620
17444TIP3    H273824   3.928   3.164  16.902 -1.1095 -0.5144  0.2198
17445TIP3   OH273825   2.957   4.491   0.084 -0.0492 -0.3805  0.1171
17445TIP3    H173826   2.959   4.587   0.089 -2.3664 -0.1889 -1.2476
17445TIP3    H273827   2.985   4.462   0.171  0.3454  1.5329  0.6764
17446TIP3   OH273828   4.723   0.362   3.644  0.3163  0.4824 -0.4361
17446TIP3    H173829   4.766   0.332   3.564 -0.1123 -1.0305 -0.1346
17446TIP3    H273830   4.634   0.384   3.616  0.5597  1.3167 -0.6086
17447TIP3   OH273831   5.912   6.753   4.642  0.7799  0.0365  0.0804
17447TIP3    H173832   5.883   6.686   4.704 -0.5691  0.3319 -0.2052
17447TIP3    H273833   5.833   6.802   4.620  1.5907  1.2010 -0.3625
17448TIP3   OH273834   3.038   0.189   1.921 -0.4196  0.6993 -0.7984
17448TIP3    H173835   3.126   0.153   1.907 -0.0321  0.9781  0.7144
17448TIP3    H273836   3.054   0.281   1.946 -1.0598  0.4655  0.5203
17449TIP3   OH273837   3.240   4.972   1.199 -1.0044  0.9984  0.1347
17449TIP3    H173838   3.225   5.066   1.191 -0.1992  1.0555 -0.9994
17449TIP3    H273839   3.328   4.965   1.239 -0.7654  0.7387 -0.4279
17450TIP3   OH273840   5.374   0.727  15.308  0.1776  0.2077  0.3969
17450TIP3    H173841   5.283   0.700  15.321  0.1244  0.3072  0.2281
17450TIP3    H273842   5.370   0.822  15.302 -0.0723  0.1063 -2.4638
17451TIP3   OH273843   0.844   3.738   5.555  0.8712 -0.0057 -0.4969
17451TIP3    H173844   0.920   3.795   5.565  1.1530 -0.5852  0.9361
17451TIP3    H273845   0.881   3.653   5.532  1.0643 -1.2209  3.6150
17452TIP3   OH273846   0.489   2.407   4.324 -0.1436 -0.3389 -0.1345
17452TIP3    H173847   0.505   2.347   4.250 -1.7207 -1.1537  0.1445
17452TIP3    H273848   0.539   2.485   4.302  0.0960 -0.8829 -1.6673
17453TIP3   OH273849   5.813   1.365  12.550  0.3957  0.1032  0.2646
17453TIP3    H173850   5.727   1.395  12.578  0.7407  1.3837 -0.0114
17453TIP3    H273851   5.795   1.293  12.490 -0.4397 -0.3432  1.0199
17454TIP3   OH273852   3.600   5.521   1.523  0.3298  0.2769  0.2077
17454TIP3    H173853   3.589   5.429   1.500  0.7354  0.1863  0.3731
17454TIP3    H273854   3.511   5.554   1.531  0.1685 -0.3083  0.9828
17455TIP3   OH273855   3.296   0.829   1.951 -0.5739  0.2857 -0.3811
17455TIP3    H173856   3.306   0.747   1.904  0.0998 -0.4525  1.0026
17455TIP3    H273857   3.208   0.860   1.928 -0.6994 -0.6301 -1.1813
17456TIP3   OH273858   0.042   2.074  15.482  0.3690  0.5066 -0.0446
17456TIP3    H173859   0.021   2.022  15.405  1.3058  1.0651 -0.7060
17456TIP3    H273860  -0.007   2.033  15.553 -0.3095 -0.1749 -0.8838
17457TIP3   OH273861   1.520   5.234  13.224  0.4023  0.2081 -0.0500
17457TIP3    H173862   1.479   5.261  13.306  1.1506  0.7622  0.1507
17457TIP3    H273863   1.448   5.195  13.173 -0.1311  0.1352  0.7376
17458TIP3   OH273864   4.057   4.573  16.021  0.0063  0.6767  0.5287
17458TIP3    H173865   4.100   4.648  16.061  0.7641  0.0155  0.9832
17458TIP3    H273866   3.999   4.539  16.089  0.5655  0.1396  0.7489
17459TIP3   OH273867   2.161   0.603   0.971 -0.3726  1.0564 -0.8380
17459TIP3    H173868   2.226   0.533   0.985 -1.2404  0.3351 -0.2570
17459TIP3    H273869   2.213   0.682   0.961  0.6178  0.4369 -0.7831
17460TIP3   OH273870   1.931   1.944  16.144  0.2865  0.0977 -0.7118
17460TIP3    H173871   1.925   1.938  16.048  2.1593 -1.7238 -0.7898
17460TIP3    H273872   1.882   1.869  16.176  1.2582 -0.4118 -0.3640
17461TIP3   OH273873   0.485   4.629   0.902  0.0175 -0.3442 -0.2434
17461TIP3    H173874   0.565   4.672   0.870  1.3469 -1.8110  0.9479
17461TIP3    H273875   0.486   4.543   0.861 -0.1243 -0.9375  0.9527
17462TIP3   OH273876   2.560   4.015  13.052  0.9912 -0.1495  0.6287
17462TIP3    H173877   2.524   4.102  13.038  1.7396 -0.2182 -2.2342
17462TIP3    H273878   2.654   4.029  13.063  1.4824 -0.6762 -2.2198
17463TIP3   OH273879   2.913   0.060  12.017  0.0270 -0.1113  0.3792
17463TIP3    H173880   2.871   0.055  11.932 -0.6766  0.0097  0.7101
17463TIP3    H273881   2.916   0.153  12.037 -0.7226 -0.1885  0.9164
17464TIP3   OH273882   2.655   1.519  12.427 -0.1240  0.2613 -0.0962
17464TIP3    H173883   2.621   1.536  12.515 -1.8900  0.2970 -0.7318
17464TIP3    H273884   2.606   1.579  12.371 -1.7018 -2.2167 -1.5676
17465TIP3   OH273885   0.744   3.106  14.272 -0.4722 -0.1060  0.2738
17465TIP3    H173886   0.802   3.171  14.313  0.2182  0.8896 -2.1089
17465TIP3    H273887   0.669   3.157  14.243 -1.0373 -0.8253  0.4468
17466TIP3   OH273888   5.946   3.205  14.042 -0.3172  0.5124 -0.6666
17466TIP3    H173889   5.933   3.115  14.012  2.3638  0.1299 -0.8685
17466TIP3    H273890   5.879   3.255  13.996 -0.6138 -1.0775 -2.0677
17467TIP3   OH273891   5.569   0.179  17.122 -0.3558 -0.2454  0.6182
17467TIP3    H173892   5.481   0.192  17.157 -1.0563 -0.1322 -1.1140
17467TIP3    H273893   5.612   0.264  17.132 -0.5384 -0.2152  1.1700
17468TIP3   OH273894   3.784   4.896   3.092 -0.1945  0.0483 -0.0647
17468TIP3    H173895   3.701   4.927   3.056 -0.2850  0.2162  0.2870
17468TIP3    H273896   3.813   4.828   3.031 -0.4226  0.2248 -0.3705
17469TIP3   OH273897   1.015   3.439   2.744 -0.4416 -0.5308  0.3643
17469TIP3    H173898   1.093   3.483   2.712 -0.5480 -1.1439 -0.7961
17469TIP3    H273899   0.958   3.510   2.775  0.3621 -0.0498  0.7743
17470TIP3   OH273900   1.803   2.414  16.215 -0.2276  0.2319 -0.2237
17470TIP3    H173901   1.836   2.477  16.151  1.6485 -2.4000 -2.0815
17470TIP3    H273902   1.865   2.341  16.211 -1.3161 -1.0686  3.0247
17471TIP3   OH273903   1.851   4.229  12.528 -0.4113 -0.2447  0.4815
17471TIP3    H173904   1.840   4.208  12.436  2.0875  0.6104 -0.1126
17471TIP3    H273905   1.938   4.195  12.550 -0.2784  1.0000  2.0740
17472TIP3   OH273906   0.953   0.790   2.158  0.5793 -0.2736 -0.2267
17472TIP3    H173907   0.955   0.885   2.173 -2.5189 -0.3076  1.4003
17472TIP3    H273908   1.014   0.755   2.222  0.3614  0.5758  0.4820
17473TIP3   OH273909   5.081   4.371   0.109  0.0596  0.1468 -0.2423
17473TIP3    H173910   5.025   4.293   0.114 -2.0151  1.5747  0.1260
17473TIP3    H273911   5.085   4.392   0.016  0.6116 -0.3764 -0.3413
17474TIP3   OH273912   0.266   2.114   4.840 -0.3202  0.1765 -0.4492
17474TIP3    H173913   0.320   2.035   4.850 -0.7077  0.1445  2.1292
17474TIP3    H273914   0.313   2.181   4.889 -1.4448  0.7612 -0.1412
17475TIP3   OH273915   5.922   1.758   5.617 -0.2941 -0.0602  0.3684
17475TIP3    H173916   5.969   1.834   5.584  0.0354 -0.6462 -0.5520
17475TIP3    H273917   5.903   1.705   5.539  0.3263 -1.3873  1.0843
17476TIP3   OH273918   3.910   6.628  12.808  0.0112 -0.4948  0.3192
17476TIP3    H173919   3.921   6.574  12.730  0.4446  0.6327 -0.4375
17476TIP3    H273920   3.995   6.671  12.820 -1.1356  2.4516 -1.0312
17477TIP3   OH273921   1.626   1.229  14.396  0.4224  0.0686  0.3873
17477TIP3    H173922   1.557   1.204  14.334  0.4026  0.0061  0.4345
17477TIP3    H273923   1.587   1.214  14.482  0.3104  0.5363  0.4182
17478TIP3   OH273924   2.139   5.672   0.008  0.4691 -0.3462  0.1706
17478TIP3    H173925   2.091   5.659   0.090 -0.5296 -0.9186 -0.4882
17478TIP3    H273926   2.074   5.656  -0.060  0.7672  1.9952 -0.7608
17479TIP3   OH273927   0.227   3.702   2.673  0.2703  0.0356 -0.3795
17479TIP3    H173928   0.187   3.683   2.757  0.8197 -0.8258 -0.2972
17479TIP3    H273929   0.218   3.621   2.623  0.0645  0.4987 -1.0987
17480TIP3   OH273930   3.954   2.341   3.350  0.5777  0.2509 -0.3299
17480TIP3    H173931   3.977   2.410   3.412  0.3962  2.1125 -2.2146
17480TIP3    H273932   4.033   2.288   3.342  1.3647  1.3930 -0.2745
17481TIP3   OH273933   0.116   1.272  16.294  0.0757  0.0114 -0.4456
17481TIP3    H173934   0.129   1.310  16.207  0.2108  0.6357 -0.1618
17481TIP3    H273935   0.040   1.319  16.328  1.2500  1.2481  0.5760
17482TIP3   OH273936   4.743   6.250   5.366  0.5005  0.2550  0.1055
17482TIP3    H173937   4.698   6.330   5.339  0.4111 -0.4301 -1.9559
17482TIP3    H273938   4.684   6.211   5.432  0.7384  2.0198  1.4438
17483TIP3   OH273939   5.530   1.120  16.229 -0.3252  0.5260 -0.1167
17483TIP3    H173940   5.442   1.102  16.194 -0.5643  1.7347 -0.1855
17483TIP3    H273941   5.573   1.170  16.159  0.3578  0.0796 -0.0139
17484TIP3   OH273942   3.653   3.375   0.626  0.2288 -0.3315  0.2860
17484TIP3    H173943   3.706   3.295   0.624 -1.1462 -1.3330 -2.5534
17484TIP3    H273944   3.710   3.443   0.590 -0.1433 -1.3480 -2.5313
17485TIP3   OH273945   3.152   2.030   1.779  0.5188  0.3629  0.4018
17485TIP3    H173946   3.209   2.014   1.703  0.7580 -1.5056  0.9354
17485TIP3    H273947   3.196   2.101   1.827  1.2013  0.4793 -0.3634
17486TIP3   OH273948   1.141   5.752   0.980  0.1678  0.4948 -0.0653
17486TIP3    H173949   1.215   5.709   0.937  0.6203  1.3665 -0.2021
17486TIP3    H273950   1.178   5.785   1.062  0.0348  1.2232 -0.2830
17487TIP3   OH273951   2.336   5.321  14.124  0.2690  0.3109  0.6241
17487TIP3    H173952   2.423   5.296  14.155  0.3124  1.3720  1.4304
17487TIP3    H273953   2.323   5.409  14.159 -0.6694  0.6220 -0.4448
17488TIP3   OH273954   1.305   2.071   2.351  0.1919 -0.1985 -0.0594
17488TIP3    H173955   1.259   2.002   2.399  0.8078 -0.1655  0.5900
17488TIP3    H273956   1.354   2.118   2.418 -0.5643  1.1514 -0.4309
17489TIP3   OH273957   1.139   0.047   4.134 -0.3008  0.4830 -0.6664
17489TIP3    H173958   1.191   0.107   4.081 -0.1400  0.3084 -0.7071
17489TIP3    H273959   1.164   0.067   4.224 -1.5241  1.6818 -0.5532
17490TIP3   OH273960   0.057   1.925   2.207 -0.3452  0.0558 -0.0694
17490TIP3    H173961   0.061   1.830   2.197 -0.0072  0.2934 -3.1334
17490TIP3    H273962   0.014   1.938   2.291 -0.4885 -2.7922  0.4175
17491TIP3   OH273963   0.533   3.922  12.348  0.5152  0.1424 -0.1656
17491TIP3    H173964   0.569   4.007  12.322  2.1863 -0.2887  0.5972
17491TIP3    H273965   0.516   3.931  12.441  1.0848 -0.4672  0.0052
17492TIP3   OH273966   1.960   4.718  15.699 -0.0636 -0.8347 -0.4797
17492TIP3    H173967   1.938   4.641  15.647  2.1253 -0.0370 -2.8244
17492TIP3    H273968   2.016   4.771  15.641  1.4197  0.8177  2.2348
17493TIP3   OH273969   1.684   5.648  13.423 -0.4971  0.4470 -0.0459
17493TIP3    H173970   1.760   5.696  13.457 -0.7543  3.0202 -2.6642
17493TIP3    H273971   1.719   5.596  13.351 -0.6243 -1.7451  1.3706
17494TIP3   OH273972   4.397   1.601  16.103  0.3671  0.1592  0.6019
17494TIP3    H173973   4.421   1.517  16.065 -0.1589  0.1422  0.2998
17494TIP3    H273974   4.312   1.586  16.144  0.5718  0.3774  1.1274
17495TIP3   OH273975   3.312   5.279   1.530 -0.0128  0.6008 -0.0062
17495TIP3    H173976   3.407   5.293   1.528 -0.1438  1.5263 -0.5711
17495TIP3    H273977   3.276   5.364   1.556 -0.7424  0.5489 -0.8185
17496TIP3   OH273978   5.498   3.031  12.237  0.1973  0.1282  0.0829
17496TIP3    H173979   5.472   3.019  12.328  2.4218  0.4480  0.8274
17496TIP3    H273980   5.558   3.105  12.240  1.0290 -0.4472 -1.5110
17497TIP3   OH273981   0.481   3.612   0.985 -0.0612  0.3141 -0.1707
17497TIP3    H173982   0.391   3.579   0.982  0.8370 -2.5782  1.1751
17497TIP3    H273983   0.515   3.597   0.897 -0.0018 -1.5836  0.1304
17498TIP3   OH273984   6.558   1.757   5.845  0.1546  0.1683  0.2007
17498TIP3    H173985   6.556   1.682   5.904  0.5999  0.8019  1.0393
17498TIP3    H273986   6.580   1.832   5.901 -2.7496  1.3892 -0.0918
17499TIP3   OH273987   3.516   5.359   4.998 -0.0286 -0.0200 -0.2039
17499TIP3    H173988   3.541   5.365   4.906  1.1389 -0.0915  0.0912
17499TIP3    H273989   3.512   5.450   5.028 -0.2427 -0.0039 -0.2781
17500TIP3   OH273990   3.535   4.949   3.331  1.0476  0.2337  0.6569
17500TIP3    H173991   3.538   4.860   3.368  1.1759  0.7709  1.9876
17500TIP3    H273992   3.612   4.993   3.367 -0.1766  1.5361  1.8016
17501TIP3   OH273993   3.659   6.447  16.899 -0.3218  0.0395 -0.5055
17501TIP3    H173994   3.699   6.360  16.898 -0.5854 -0.1120  0.6024
17501TIP3    H273995   3.623   6.458  16.811  0.8533 -0.4168 -1.0792
17502TIP3   OH273996   5.014   0.830   0.294  0.3784 -0.5084  0.9245
17502TIP3    H173997   5.106   0.820   0.270  0.4809 -1.3032  1.6224
17502TIP3    H273998   4.991   0.918   0.263  0.9849 -0.8074 -0.4582
17503TIP3   OH273999   6.175   4.132   0.868 -0.0141  0.9367  0.1533
17503TIP3    H174000   6.231   4.068   0.824 -0.4074  0.9908 -0.4423
17503TIP3    H274001   6.092   4.086   0.882 -1.0624  1.9465 -2.2606
17504TIP3   OH274002   2.640   2.133   0.573  0.0689  0.2834 -0.3142
17504TIP3    H174003   2.570   2.154   0.512  1.4834  2.7957 -1.2389
17504TIP3    H274004   2.606   2.160   0.659 -0.4675  0.4726 -0.5837
17505TIP3   OH274005   4.714   0.200  14.992  0.0064  0.2896 -0.0680
17505TIP3    H174006   4.742   0.217  15.082  0.3669  0.2808 -0.1770
17505TIP3    H274007   4.669   0.280  14.965 -2.0113 -0.4736  0.8404
17506TIP3   OH274008   2.828   3.196   1.765  0.1989 -0.6089 -0.1904
17506TIP3    H174009   2.917   3.225   1.741  0.4585 -0.2181  1.1534
17506TIP3    H274010   2.842   3.134   1.837 -0.6595  0.2104  0.7048
17507TIP3   OH274011   1.347   4.639  11.777  0.5535  0.0026 -0.1361
17507TIP3    H174012   1.281   4.694  11.735  0.5419 -0.1064 -0.2615
17507TIP3    H274013   1.353   4.562  11.721 -0.0075 -0.4897  0.4659
17508TIP3   OH274014   6.159   4.705   2.258 -0.7066 -0.1698 -0.3569
17508TIP3    H174015   6.218   4.727   2.186 -0.6849  0.2598 -0.2095
17508TIP3    H274016   6.076   4.746   2.235 -0.0798  1.9924  0.9635
17509TIP3   OH274017   2.073   1.076   1.889 -0.1693  0.0846  0.0749
17509TIP3    H174018   2.115   1.140   1.832  0.4481 -1.2807 -1.0573
17509TIP3    H274019   2.135   1.064   1.961 -0.3422  0.8193  0.3558
17510TIP3   OH274020   2.162   6.598  13.668  0.1252 -0.1630  0.4652
17510TIP3    H174021   2.202   6.601  13.755 -0.1704  0.5056  0.5824
17510TIP3    H274022   2.236   6.600  13.607  0.3007  2.7712  0.6413
17511TIP3   OH274023   1.641   3.578   5.793  0.7842  0.1854  0.4156
17511TIP3    H174024   1.650   3.560   5.700  1.1269 -1.5175  0.7413
17511TIP3    H274025   1.663   3.670   5.803  0.1033  0.5510 -1.2660
17512TIP3   OH274026   0.223   0.207   0.024 -0.1848  0.5032 -0.3922
17512TIP3    H174027   0.217   0.255  -0.058  0.4383 -0.5413 -1.0763
17512TIP3    H274028   0.238   0.116  -0.003  1.7411  0.3953  0.8801
17513TIP3   OH274029   2.225   0.601  16.843  0.0770  1.0075  0.2102
17513TIP3    H174030   2.286   0.635  16.908  0.5338  0.9909 -0.2035
17513TIP3    H274031   2.197   0.677  16.794 -0.5503  1.0708  0.6523
17514TIP3   OH274032   0.512   5.964  12.298 -0.0324 -0.3993 -0.4548
17514TIP3    H174033   0.436   5.920  12.337 -0.4314 -0.5810 -1.4076
17514TIP3    H274034   0.476   6.010  12.222  0.5033  1.0146  0.1139
17515TIP3   OH274035   0.400   0.872  12.562  0.3479 -0.1457 -0.1719
17515TIP3    H174036   0.457   0.880  12.485  1.1497  1.0949  0.5108
17515TIP3    H274037   0.461   0.868  12.636 -0.4270 -0.7163  0.4578
17516TIP3   OH274038   4.380   1.551  13.280  0.2815 -0.1677  0.3442
17516TIP3    H174039   4.380   1.582  13.371 -0.0045  0.3064  0.1863
17516TIP3    H274040   4.307   1.598  13.239  1.6251  1.1441 -0.6480
17517TIP3   OH274041   4.463   2.488   3.010  0.5829 -0.5692 -0.1743
17517TIP3    H174042   4.527   2.485   2.939  1.1276 -2.1381  0.3282
17517TIP3    H274043   4.450   2.581   3.027 -0.5857 -0.0792 -3.2023
17518TIP3   OH274044   1.009   0.251  13.224 -0.2888  0.2679 -0.0685
17518TIP3    H174045   0.936   0.295  13.267 -0.8969 -0.5114 -0.2780
17518TIP3    H274046   1.019   0.169  13.273 -0.6897 -0.4216 -1.0982
17519TIP3   OH274047   0.661   5.659   5.175  0.2961  0.4600 -0.4810
17519TIP3    H174048   0.575   5.628   5.205  0.3807 -0.2371 -0.9120
17519TIP3    H274049   0.655   5.654   5.080  0.8381  0.3377 -0.5091
17520TIP3   OH274050   4.784   2.597   0.785  0.1337  0.2969 -0.4745
17520TIP3    H174051   4.716   2.632   0.844  1.8212  0.8432  1.2507
17520TIP3    H274052   4.735   2.564   0.709 -2.0114  1.0627  0.4868
17521TIP3   OH274053   1.305   0.096  15.565 -0.0054 -0.0770 -0.2629
17521TIP3    H174054   1.395   0.083  15.533  1.0616  0.5455  2.2604
17521TIP3    H274055   1.278   0.010  15.597  0.9340  0.3438  1.8020
17522TIP3   OH274056   0.259   5.066  11.752  0.2458  0.0253  0.3523
17522TIP3    H174057   0.290   5.010  11.681 -1.2182  0.8541 -0.9716
17522TIP3    H274058   0.326   5.135  11.758  0.0706  0.2976 -0.6485
17523TIP3   OH274059   6.300   6.728   2.094  1.0274 -0.0360 -0.5622
17523TIP3    H174060   6.311   6.776   2.012  0.2961 -0.0629 -0.6759
17523TIP3    H274061   6.292   6.796   2.161  0.5013 -0.0060 -0.6569
17524TIP3   OH274062   1.198   0.837   5.620 -0.1217  0.0285 -0.0342
17524TIP3    H174063   1.241   0.753   5.640 -1.2524 -0.7862 -0.8421
17524TIP3    H274064   1.183   0.833   5.525  0.0792  1.2899 -0.1269
17525TIP3   OH274065   2.141   0.683  16.346  0.0912 -0.7310  0.3457
17525TIP3    H174066   2.210   0.616  16.351 -0.7192 -1.5714  0.4993
17525TIP3    H274067   2.096   0.665  16.263  0.2106 -0.0150  0.1128
17526TIP3   OH274068   4.349   6.768  14.691 -0.0374  0.0738  0.4756
17526TIP3    H174069   4.391   6.849  14.720  0.1833  0.3205 -0.4810
17526TIP3    H274070   4.389   6.699  14.745 -0.5150  0.6292  1.5701
17527TIP3   OH274071   1.442   1.931   5.924  0.2244 -0.1070  0.1036
17527TIP3    H174072   1.361   1.925   5.872  0.9228 -3.6209 -0.8057
17527TIP3    H274073   1.510   1.953   5.861  0.4198  0.1270  0.3886
17528TIP3   OH274074   2.225   1.667  11.440 -0.2086 -0.1292 -0.3993
17528TIP3    H174075   2.209   1.592  11.497 -0.3885 -0.1659 -0.4997
17528TIP3    H274076   2.177   1.647  11.360  0.2714 -0.2091 -0.6719
17529TIP3   OH274077   5.487   1.629  14.775 -0.4121 -0.1690  0.0504
17529TIP3    H174078   5.556   1.645  14.711  0.3957  0.9855  1.1737
17529TIP3    H274079   5.420   1.580  14.726  1.1795 -1.3504 -1.0685
17530TIP3   OH274080   6.399   5.678  14.571  0.1777  0.1619 -0.3367
17530TIP3    H174081   6.448   5.759  14.556 -0.2875  0.5608  0.2284
17530TIP3    H274082   6.387   5.675  14.666  2.2129 -1.7771 -0.0621
17531TIP3   OH274083   0.319   1.644   6.163 -0.7660 -0.3130 -0.5385
17531TIP3    H174084   0.235   1.600   6.178 -0.6907 -0.5653 -0.8549
17531TIP3    H274085   0.363   1.640   6.248 -0.5142 -1.3708 -0.7064
17532TIP3   OH274086   4.627   4.960  17.233 -0.1128  0.1640  0.8469
17532TIP3    H174087   4.698   4.968  17.170  0.4460 -1.3360  1.2291
17532TIP3    H274088   4.670   4.936  17.315 -0.9054  1.2081  1.5971
17533TIP3   OH274089   1.978   0.483  14.401  0.1456  0.2634 -0.1994
17533TIP3    H174090   1.916   0.450  14.336  0.6870 -0.4279 -0.3757
17533TIP3    H274091   1.956   0.436  14.482  1.4519 -1.2348 -0.6482
17534TIP3   OH274092   0.286   2.664   3.700  0.1889  0.0766  0.2172
17534TIP3    H174093   0.228   2.605   3.748 -0.0286 -0.6700 -0.9316
17534TIP3    H274094   0.374   2.630   3.717  0.2821  0.8903  1.5203
17535TIP3   OH274095   6.696   1.663   5.236 -0.2958  0.0842  0.1013
17535TIP3    H174096   6.763   1.599   5.211  0.5980  1.4571 -1.2084
17535TIP3    H274097   6.730   1.703   5.316 -0.5883 -0.6754  0.6118
17536TIP3   OH274098   5.513   1.177   6.732 -0.5090 -0.5193 -0.3696
17536TIP3    H174099   5.570   1.251   6.713 -0.1614 -0.3046  1.3810
17536TIP3    H274100   5.424   1.213   6.725 -0.4033 -0.4250 -1.3670
17537TIP3   OH274101   2.007   2.191  13.183  0.3061 -0.4211  0.0322
17537TIP3    H174102   2.076   2.167  13.120  1.3861  0.7489  0.7399
17537TIP3    H274103   1.928   2.152  13.146  1.0893 -0.6384 -1.5242
17538TIP3   OH274104   3.435   5.891   3.830  0.0122 -0.1014  0.1775
17538TIP3    H174105   3.341   5.910   3.822 -0.5215 -2.1756  0.7140
17538TIP3    H274106   3.449   5.816   3.772  1.0111 -0.7046  1.1553
17539TIP3   OH274107   5.049   6.705   1.319 -0.2511  0.4306 -0.5272
17539TIP3    H174108   5.073   6.654   1.242 -0.3284  0.5378 -0.6220
17539TIP3    H274109   5.001   6.644   1.375  1.6264 -0.2602  0.4052
17540TIP3   OH274110   0.976   1.716  11.830 -0.2329  0.4307 -0.5218
17540TIP3    H174111   1.035   1.663  11.776  0.4274  1.0557 -0.4257
17540TIP3    H274112   0.951   1.659  11.902  1.9672  0.8163  0.6163
17541TIP3   OH274113   0.489   0.871  16.177 -0.0477 -0.1895 -0.5090
17541TIP3    H174114   0.547   0.850  16.250 -0.8208  1.3082  0.6027
17541TIP3    H274115   0.541   0.930  16.122 -0.2862  0.6894  0.1808
17542TIP3   OH274116   1.776   3.600   2.301  0.6890  0.0808 -0.0401
17542TIP3    H174117   1.693   3.568   2.266  0.6925  0.2901 -0.2438
17542TIP3    H274118   1.831   3.522   2.307  0.7145  0.0538 -0.5805
17543TIP3   OH274119   2.865   2.926  12.594 -0.5142 -0.3250 -0.0247
17543TIP3    H174120   2.883   2.832  12.588 -0.1847 -0.2427 -0.4059
17543TIP3    H274121   2.807   2.944  12.521  0.6013  0.0258 -0.8592
17544TIP3   OH274122   0.985   2.484   2.731 -0.0085 -0.3777  0.5194
17544TIP3    H174123   0.958   2.449   2.816  0.2519 -2.0779 -0.0743
17544TIP3    H274124   0.983   2.409   2.672  1.2253  0.4711 -0.6546
17545TIP3   OH274125   5.572   1.651  16.700  0.3164 -0.1490  0.3319
17545TIP3    H174126   5.498   1.634  16.757 -0.1179 -0.1434 -0.2170
17545TIP3    H274127   5.632   1.704  16.753 -1.2301  2.0835 -0.0063
17546TIP3   OH274128   1.173   4.984   1.227  0.1962 -0.4974 -0.1112
17546TIP3    H174129   1.226   4.942   1.158 -1.8881 -3.1272 -0.2789
17546TIP3    H274130   1.155   4.914   1.290  1.2628  1.6042  2.7482
17547TIP3   OH274131   0.023   6.273  13.173 -0.0859 -0.3428 -0.4575
17547TIP3    H174132  -0.062   6.309  13.197  0.7475  0.7916  0.9221
17547TIP3    H274133   0.002   6.200  13.115 -1.9579  0.4264 -0.8339
17548TIP3   OH274134   5.465   5.993  13.635  0.0346 -0.5826  0.1803
17548TIP3    H174135   5.506   6.061  13.687 -0.1985 -0.5799  0.3647
17548TIP3    H274136   5.384   6.033  13.602  0.2383 -0.5478 -0.2770
17549TIP3   OH274137   4.388   4.506  16.029 -0.2442 -0.6579  0.0587
17549TIP3    H174138   4.456   4.487  15.964  0.9566  3.4130 -0.1869
17549TIP3    H274139   4.314   4.537  15.978 -0.6757 -0.9436  0.5025
17550TIP3   OH274140   0.361   3.950   2.342 -0.5996 -0.0497 -0.5187
17550TIP3    H174141   0.395   4.039   2.344 -1.4908  0.4540 -3.3006
17550TIP3    H274142   0.439   3.894   2.345 -0.0682  0.6448  2.5186
17551TIP3   OH274143   6.263   3.213  12.085  0.3000 -0.4027 -0.4422
17551TIP3    H174144   6.346   3.245  12.121 -0.3669 -0.3872  1.1287
17551TIP3    H274145   6.242   3.275  12.016  2.7216 -1.6766 -2.5014
17552TIP3   OH274146   0.947   5.108   2.415  0.0916 -0.0119 -0.4162
17552TIP3    H174147   0.892   5.146   2.347  0.5800  1.3415 -0.0865
17552TIP3    H274148   0.923   5.156   2.495 -0.3590 -1.4541  0.3511
17553TIP3   OH274149   5.307   3.976  11.273 -0.6022  0.2848 -0.7404
17553TIP3    H174150   5.256   3.977  11.192 -3.1132  1.1533  0.7661
17553TIP3    H274151   5.261   4.035  11.332  1.9891  0.8662  0.8848
17554TIP3   OH274152   4.243   5.849   6.577 -0.0419  0.1595 -0.7439
17554TIP3    H174153   4.164   5.825   6.625 -0.4464 -0.6443 -1.7742
17554TIP3    H274154   4.212   5.901   6.503  0.5218  0.9247 -0.4530
17555TIP3   OH274155   2.616   1.223   5.891 -0.2297 -0.5375 -0.1484
17555TIP3    H174156   2.642   1.301   5.840  0.6058  0.5732  1.8626
17555TIP3    H274157   2.698   1.187   5.923 -0.7767 -0.3911  1.5203
17556TIP3   OH274158   4.935   5.651   5.492 -0.0181  0.2515  0.4568
17556TIP3    H174159   4.952   5.644   5.398  0.3612  0.9389  0.4658
17556TIP3    H274160   4.925   5.745   5.507 -1.9065  0.0339  0.7873
17557TIP3   OH274161   4.038   3.629   2.564 -0.0079 -0.0283 -0.2331
17557TIP3    H174162   4.097   3.555   2.577 -1.2797 -1.3659 -1.6418
17557TIP3    H274163   3.968   3.614   2.628  0.2556  0.5426  0.1902
17558TIP3   OH274164   1.535   5.691   4.506 -0.4001  1.1655  0.1046
17558TIP3    H174165   1.478   5.760   4.539 -0.6108  0.7133  0.6930
17558TIP3    H274166   1.499   5.668   4.421 -0.9139  1.0962  0.3403
17559TIP3   OH274167   4.918   1.915   3.024  0.0250 -0.2062  0.5014
17559TIP3    H174168   4.939   1.839   3.078  1.2287 -0.8536 -0.8386
17559TIP3    H274169   4.854   1.883   2.961  0.1213  0.0427  0.2768
17560TIP3   OH274170   6.115   0.426   2.040  0.6521  0.4392 -0.2626
17560TIP3    H174171   6.022   0.424   2.063  0.8103  1.5433  0.5854
17560TIP3    H274172   6.126   0.356   1.976 -0.1497 -1.7995  1.9072
17561TIP3   OH274173   5.510   0.947   0.898  0.4361  0.0180 -0.5577
17561TIP3    H174174   5.446   1.000   0.946  2.9063  0.0890  3.0452
17561TIP3    H274175   5.544   1.005   0.830  1.4292  2.4517  1.8360
17562TIP3   OH274176   3.328   1.776  16.249 -0.3827 -0.1546  0.2469
17562TIP3    H174177   3.383   1.798  16.324  1.7449 -2.0770 -0.6234
17562TIP3    H274178   3.288   1.692  16.272 -2.0853  0.6522  0.3713
17563TIP3   OH274179   6.443   4.587  11.397 -0.2610 -0.1874  0.7702
17563TIP3    H174180   6.476   4.668  11.360 -0.0582  0.4648  2.3254
17563TIP3    H274181   6.383   4.553  11.330 -0.9780  1.6464  0.4252
17564TIP3   OH274182   5.917   4.998   3.523 -0.3275 -0.1924  0.1397
17564TIP3    H174183   5.831   5.001   3.565 -0.7353  0.8023 -0.7019
17564TIP3    H274184   5.935   5.090   3.501  0.9286 -0.3995  0.2603
17565TIP3   OH274185   3.628   4.241   2.367 -0.5151 -0.7550  0.0372
17565TIP3    H174186   3.577   4.210   2.442  0.4505 -1.6861  0.3373
17565TIP3    H274187   3.567   4.234   2.293 -1.1415 -0.8565  0.5472
17566TIP3   OH274188   5.270   1.500  15.227 -0.0768 -0.1279  0.2205
17566TIP3    H174189   5.327   1.526  15.155  2.1375 -2.1792  1.0788
17566TIP3    H274190   5.214   1.576  15.242 -0.6645  0.4103 -3.5874
17567TIP3   OH274191   1.713   2.212  13.385  0.2070  0.2713  0.4798
17567TIP3    H174192   1.697   2.192  13.293  0.9928 -0.0854  0.4104
17567TIP3    H274193   1.746   2.302  13.385  1.2233 -0.0870  0.2900
17568TIP3   OH274194   5.783   4.375   0.079 -0.0127  0.5157 -0.5953
17568TIP3    H174195   5.844   4.439   0.114 -0.7182  1.8108 -1.6729
17568TIP3    H274196   5.822   4.347  -0.003 -0.0577  0.0802 -0.4726
17569TIP3   OH274197   1.883   0.379  13.894  0.2740  0.3409 -0.0650
17569TIP3    H174198   1.957   0.421  13.851  1.2727 -2.2398 -1.0702
17569TIP3    H274199   1.910   0.288  13.906 -1.6562 -0.0376  2.1821
17570TIP3   OH274200   2.695   6.355   5.917  0.1344 -0.2951 -0.4397
17570TIP3    H174201   2.756   6.427   5.902  1.3170 -0.9747  0.9304
17570TIP3    H274202   2.730   6.283   5.865 -0.5579 -0.1638 -1.1099
17571TIP3   OH274203   2.345   3.449  14.162  0.1068 -0.0654  0.5105
17571TIP3    H174204   2.298   3.532  14.168 -1.5886 -0.7350 -2.0101
17571TIP3    H274205   2.284   3.389  14.119  2.1578 -1.8994 -0.0633
17572TIP3   OH274206   2.846   3.853   0.727 -0.2649  0.0463 -0.3197
17572TIP3    H174207   2.813   3.770   0.693 -2.2525 -1.3921  4.3890
17572TIP3    H274208   2.917   3.829   0.786 -1.1428  1.5400  1.4721
17573TIP3   OH274209   1.659   5.275  15.851 -0.0844 -0.1226 -0.1227
17573TIP3    H174210   1.700   5.196  15.816  0.5855 -0.2467  0.8817
17573TIP3    H274211   1.614   5.244  15.930  0.2886  0.5200  0.3460
17574TIP3   OH274212   2.077   3.056   2.545  0.1497  0.0001  0.6850
17574TIP3    H174213   2.101   3.080   2.634 -0.1162  2.4586  0.1600
17574TIP3    H274214   2.158   3.063   2.495  0.2904 -1.3262  0.6981
17575TIP3   OH274215   3.099   0.883   0.471  0.0390 -0.2319  0.0757
17575TIP3    H174216   3.040   0.879   0.546  0.3021  0.2204  0.3130
17575TIP3    H274217   3.099   0.976   0.446 -0.2498 -0.4204 -0.6480
17576TIP3   OH274218   1.184   0.074   5.502 -0.1107  0.9543 -0.6505
17576TIP3    H174219   1.245   0.077   5.429 -1.5516  2.2804 -1.8681
17576TIP3    H274220   1.136   0.157   5.497 -2.0980 -0.0770  0.1811
17577TIP3   OH274221   4.370   1.430   3.678 -0.2962  0.2567 -0.9199
17577TIP3    H174222   4.323   1.473   3.607 -1.4051 -0.0249 -0.3916
17577TIP3    H274223   4.337   1.473   3.757 -0.6535 -0.8408 -0.4507
17578TIP3   OH274224   1.770   1.321   5.440 -0.2344  0.1734 -0.4248
17578TIP3    H174225   1.861   1.323   5.408  0.8232 -1.1601  2.2008
17578TIP3    H274226   1.737   1.235   5.413  0.1051 -0.2820  0.5553
17579TIP3   OH274227   4.810   5.106  11.559  0.0254  0.2726  0.1594
17579TIP3    H174228   4.808   5.195  11.595  0.0824  0.3539 -0.0338
17579TIP3    H274229   4.835   5.118  11.467 -2.0356  0.2568 -0.4632
17580TIP3   OH274230   5.824   2.154  11.775 -0.4044  0.1365  0.4343
17580TIP3    H174231   5.891   2.193  11.720  0.4528 -0.9015  0.7228
17580TIP3    H274232   5.756   2.124  11.714  0.9454 -1.8367 -0.2000
17581TIP3   OH274233   1.633   0.257   1.462 -0.1752 -0.6348  0.0195
17581TIP3    H174234   1.637   0.254   1.558 -1.9133 -0.2337  0.1417
17581TIP3    H274235   1.689   0.185   1.433  2.5217  0.8366  1.2340
17582TIP3   OH274236   5.036   5.965   3.545  0.2619  0.1789 -0.2229
17582TIP3    H174237   4.951   6.003   3.522 -0.2064 -0.2722  0.6979
17582TIP3    H274238   5.033   5.877   3.510 -0.3783 -0.4458  1.3107
17583TIP3   OH274239   5.811   4.070   1.672 -0.2525 -0.1059 -0.1370
17583TIP3    H174240   5.865   4.075   1.751 -0.9197 -0.2025  0.3332
17583TIP3    H274241   5.737   4.014   1.696 -1.9756  2.1253  0.1084
17584TIP3   OH274242   1.993   1.174  15.550  0.0181 -0.2692 -0.0121
17584TIP3    H174243   2.056   1.235  15.512  0.5516 -1.4175 -1.0270
17584TIP3    H274244   1.942   1.142  15.476 -1.3923  0.2101  0.7267
17585TIP3   OH274245   0.322   1.523   2.967  0.6221 -0.5884 -0.5325
17585TIP3    H174246   0.312   1.458   3.037  0.8343 -1.6215 -1.4359
17585TIP3    H274247   0.254   1.588   2.984 -2.5560 -3.2863 -2.0566
17586TIP3   OH274248   0.324   3.348  15.897 -0.2426 -0.2114 -0.0539
17586TIP3    H174249   0.303   3.408  15.826  0.3273 -0.4316 -0.4188
17586TIP3    H274250   0.419   3.355  15.907 -0.3603  0.0635  0.9144
17587TIP3   OH274251   5.973   6.486  14.329 -0.1797  0.4556 -0.2462
17587TIP3    H174252   5.888   6.525  14.350  0.4369  2.6471 -1.4133
17587TIP3    H274253   6.009   6.461  14.414 -1.5723  0.4147  0.3654
17588TIP3   OH274254   1.734   4.540   3.941 -0.5297  0.5690 -1.0184
17588TIP3    H174255   1.768   4.628   3.955 -0.5557  0.8227 -2.3882
17588TIP3    H274256   1.811   4.484   3.945 -0.4215  0.7343 -0.7783
17589TIP3   OH274257   0.992   0.521   4.572  0.0583  0.2644 -0.0516
17589TIP3    H174258   0.900   0.536   4.595 -0.6756 -2.6750 -0.6178
17589TIP3    H274259   1.023   0.605   4.540 -2.4071  1.3779  0.2700
17590TIP3   OH274260   3.654   5.274  15.006 -1.0223 -0.0470  0.6164
17590TIP3    H174261   3.564   5.261  14.977 -1.2075 -0.2480  1.2732
17590TIP3    H274262   3.676   5.362  14.976 -0.8787 -0.5749 -0.9569
17591TIP3   OH274263   4.854   4.489  11.578 -0.0631 -0.7218 -0.1551
17591TIP3    H174264   4.807   4.492  11.495 -2.3288  2.5733  1.0471
17591TIP3    H274265   4.925   4.551  11.568 -1.5032  1.2115  0.8383
17592TIP3   OH274266   5.772   0.440   6.424  0.0263 -0.3439  0.6937
17592TIP3    H174267   5.717   0.515   6.444 -0.9043 -0.7727 -0.1303
17592TIP3    H274268   5.763   0.382   6.499  1.4907  0.7451  1.7567
17593TIP3   OH274269   0.244   4.650   2.195  0.1967 -0.3414 -0.0661
17593TIP3    H174270   0.317   4.669   2.137 -0.4035 -1.4027 -1.2030
17593TIP3    H274271   0.251   4.716   2.265  2.1850 -0.3929 -0.1751
17594TIP3   OH274272   3.909   0.532   4.356 -0.2153  0.2804 -0.3283
17594TIP3    H174273   3.940   0.558   4.443 -0.9265 -0.3048  0.1166
17594TIP3    H274274   3.816   0.513   4.369 -0.5364  1.0538 -1.4126
17595TIP3   OH274275   4.257   6.800   1.870 -0.6558  0.2361 -0.1087
17595TIP3    H174276   4.285   6.843   1.951 -0.2117  0.7029 -0.5088
17595TIP3    H274277   4.171   6.763   1.892  0.3961 -1.5422  1.2390
17596TIP3   OH274278   1.479   6.382   5.348  0.0737 -0.2522  0.6006
17596TIP3    H174279   1.394   6.427   5.344 -0.0577 -0.4795  0.7928
17596TIP3    H274280   1.456   6.289   5.349  0.4049 -0.4352 -2.0854
17597TIP3   OH274281   5.584   1.018  12.189 -0.3462 -0.6761  0.2370
17597TIP3    H174282   5.631   0.952  12.240 -1.2899 -0.7133  1.1044
17597TIP3    H274283   5.522   0.967  12.136 -0.9311 -0.5060  0.7498
17598TIP3   OH274284   0.632   1.570   2.489 -0.1462  0.1757  0.3542
17598TIP3    H174285   0.560   1.622   2.453 -1.1848 -0.0068  2.0638
17598TIP3    H274286   0.629   1.587   2.583  3.0664  1.4061  0.3606
17599TIP3   OH274287   4.082   3.394  15.553 -0.0346  0.6695  0.2246
17599TIP3    H174288   4.023   3.421  15.482 -2.8312 -3.2972  0.7200
17599TIP3    H274289   4.033   3.416  15.633 -0.1152 -1.0971  0.6884
17600TIP3   OH274290   3.878   0.704  12.440  0.5806  0.6793  0.5466
17600TIP3    H174291   3.894   0.620  12.482 -1.2385  0.6985  1.3647
17600TIP3    H274292   3.935   0.765  12.486  1.4927  0.0138  0.3272
17601TIP3   OH274293   2.683   1.562  16.101 -0.3833  0.1762  0.3329
17601TIP3    H174294   2.681   1.656  16.115 -2.0019  0.2523 -0.2038
17601TIP3    H274295   2.630   1.548  16.022 -1.8211 -1.3506  1.4883
17602TIP3   OH274296   0.844   3.531   1.592  0.5768  0.2448 -0.0526
17602TIP3    H174297   0.803   3.559   1.674  0.5771 -0.2423  0.1200
17602TIP3    H274298   0.933   3.506   1.617  0.5905  0.1356 -0.2114
17603TIP3   OH274299   3.234   1.960   3.727 -0.7090 -0.1914  0.3458
17603TIP3    H174300   3.144   1.966   3.760 -1.2395  3.5611 -1.3136
17603TIP3    H274301   3.224   1.922   3.640 -1.0128  1.8247 -0.5527
17604TIP3   OH274302   4.926   6.661  16.454 -0.1943 -0.4973 -0.1132
17604TIP3    H174303   4.932   6.712  16.535 -1.0956  1.8462 -1.3993
17604TIP3    H274304   5.015   6.665  16.417 -0.7041  2.2857 -1.3017
17605TIP3   OH274305   0.768   4.648  14.186  0.3640  0.0308  0.3648
17605TIP3    H174306   0.764   4.623  14.094  0.7104  0.6149  0.1874
17605TIP3    H274307   0.839   4.596  14.223  0.2124 -0.2175  0.3062
17606TIP3   OH274308   1.853   3.417   5.886 -0.7865 -0.2870  0.6957
17606TIP3    H174309   1.928   3.476   5.895 -0.4170 -0.7164  0.5356
17606TIP3    H274310   1.778   3.474   5.873 -0.6783  0.1957  2.0697
17607TIP3   OH274311   3.138   1.904  15.351  0.3882 -0.3068 -0.0220
17607TIP3    H174312   3.117   1.827  15.405  0.5815  0.2978  0.9290
17607TIP3    H274313   3.055   1.952  15.346  0.5718  0.0655  0.4460
17608TIP3   OH274314   2.454   2.477  15.950  0.6545  0.4147 -0.0187
17608TIP3    H174315   2.443   2.417  15.876 -0.4780  0.0946  0.4050
17608TIP3    H274316   2.464   2.563  15.909 -0.4486  0.3056 -0.5342
17609TIP3   OH274317   1.336   0.987   4.364 -0.2004 -0.0856 -0.4429
17609TIP3    H174318   1.250   1.004   4.326 -1.5925 -2.8919  1.1503
17609TIP3    H274319   1.375   0.919   4.309 -0.6053 -1.4111  0.8388
17610TIP3   OH274320   3.396   4.616  10.866 -0.0665 -0.0757  0.4164
17610TIP3    H174321   3.379   4.654  10.780  0.6016  0.8261  0.6690
17610TIP3    H274322   3.492   4.611  10.872 -0.0589 -3.6375 -0.3737
17611TIP3   OH274323   0.758   2.456  16.300 -0.4608  0.2445  0.6720
17611TIP3    H174324   0.784   2.533  16.351  0.6524 -0.7130  1.5970
17611TIP3    H274325   0.757   2.385  16.363 -0.3921 -0.7221 -0.3914
17612TIP3   OH274326   6.118   2.582  16.908  1.0626  0.3157 -0.2381
17612TIP3    H174327   6.212   2.598  16.897  0.8143  1.6301 -0.6182
17612TIP3    H274328   6.077   2.617  16.829  0.0861  1.6617  0.7974
17613TIP3   OH274329   0.840   1.756   4.999 -0.0828  0.6182 -0.1706
17613TIP3    H174330   0.861   1.674   4.954 -0.8624  1.2106 -1.7185
17613TIP3    H274331   0.925   1.790   5.029  0.2525 -0.6924  0.4066
17614TIP3   OH274332   3.564   1.437  14.730 -0.1811  0.0430  0.0253
17614TIP3    H174333   3.627   1.506  14.710 -0.2438 -0.4170 -2.0089
17614TIP3    H274334   3.482   1.469  14.691 -0.2594 -1.0688 -0.7531
17615TIP3   OH274335   3.337   5.716  15.668 -0.2768  0.0309 -0.2459
17615TIP3    H174336   3.309   5.625  15.670 -2.3754  0.6266  1.8125
17615TIP3    H274337   3.265   5.763  15.626  0.6842  0.8072 -1.0958
17616TIP3   OH274338   4.260   4.035  15.720 -0.3704 -0.3918  0.1952
17616TIP3    H174339   4.233   4.070  15.805  1.3835 -1.6593  1.3432
17616TIP3    H274340   4.355   4.025  15.727 -0.4118 -2.4111 -1.1818
17617TIP3   OH274341   2.943   6.289  10.514  0.5156  0.6242 -0.0132
17617TIP3    H174342   3.006   6.288  10.441  0.6157  0.0801  0.0762
17617TIP3    H274343   2.883   6.217  10.494  1.1096 -0.1413  0.9392
17618TIP3   OH274344   2.974   1.627   5.428 -0.0258  0.1410  0.1005
17618TIP3    H174345   2.966   1.643   5.334  0.8520  1.8300  0.2718
17618TIP3    H274346   3.046   1.564   5.436  1.0670  1.3017 -0.2945
17619TIP3   OH274347   5.809   6.292  12.312 -0.1911  0.2287 -0.3148
17619TIP3    H174348   5.873   6.283  12.384  0.3515  1.2804 -0.6528
17619TIP3    H274349   5.763   6.373  12.330  1.2718  1.5523 -2.1457
17620TIP3   OH274350   3.042   2.513   0.836 -0.3023  0.1550 -0.5034
17620TIP3    H174351   3.125   2.477   0.804 -0.5302  0.6948 -1.7658
17620TIP3    H274352   2.997   2.543   0.757 -1.0927  1.1375  0.2953
17621TIP3   OH274353   4.204   0.437  15.733  0.2583 -0.1217  0.3398
17621TIP3    H174354   4.197   0.466  15.642  0.2757 -0.6368  0.1718
17621TIP3    H274355   4.240   0.349  15.728  0.3889 -0.1046  0.8550
17622TIP3   OH274356   2.057   1.482  16.943  0.3914 -0.1842  0.3363
17622TIP3    H174357   1.989   1.535  16.901 -0.9327 -1.4927  0.7555
17622TIP3    H274358   2.049   1.502  17.036  1.0359  0.1398  0.3287
17623TIP3   OH274359   1.396   2.158  15.870  0.0465 -0.1882 -0.2501
17623TIP3    H174360   1.390   2.064  15.885  0.7773 -0.4150 -1.2602
17623TIP3    H274361   1.453   2.190  15.941 -1.4237 -0.2389  0.9961
17624TIP3   OH274362   0.213   0.868  16.174 -0.1959 -0.3859 -0.0763
17624TIP3    H174363   0.304   0.841  16.189 -0.0993 -0.1621 -0.2684
17624TIP3    H274364   0.215   0.917  16.093 -0.4919 -0.3814 -0.0828
17625TIP3   OH274365   0.278   4.564   4.024 -0.3240 -0.8285 -0.0954
17625TIP3    H174366   0.238   4.538   4.108  1.3765  0.4841  1.2017
17625TIP3    H274367   0.204   4.592   3.970 -1.3261  0.3042  1.7352
17626TIP3   OH274368   4.073   4.905  14.139  0.5520  0.3360  0.0839
17626TIP3    H174369   4.027   4.822  14.153  0.4952  0.2136 -0.7633
17626TIP3    H274370   4.059   4.954  14.220 -1.4260  0.4667 -0.2778
17627TIP3   OH274371   2.329   4.704   0.986  0.0553 -0.3507  0.1377
17627TIP3    H174372   2.416   4.686   1.020  0.5644  0.5810 -0.6402
17627TIP3    H274373   2.325   4.658   0.902  0.5392  1.2037 -0.7722
17628TIP3   OH274374   6.665   5.653  13.559 -0.3160 -0.1636 -0.5810
17628TIP3    H174375   6.676   5.568  13.603  3.5049  0.1405 -0.6159
17628TIP3    H274376   6.601   5.699  13.612 -0.8713 -2.2650  0.7125
17629TIP3   OH274377   1.873   1.449   4.440 -0.0995  0.0899 -0.4643
17629TIP3    H174378   1.839   1.521   4.493 -0.5547  0.9171 -1.8089
17629TIP3    H274379   1.797   1.392   4.427 -0.4753  0.8257 -1.6824
17630TIP3   OH274380   1.458   0.527  12.201  0.8683 -0.2681 -0.3022
17630TIP3    H174381   1.553   0.519  12.213  0.7487 -0.5377  0.4895
17630TIP3    H274382   1.449   0.582  12.123  1.6923  2.0929  1.1191
17631TIP3   OH274383   2.894   4.289   5.583 -0.1707 -0.3871 -0.0312
17631TIP3    H174384   2.802   4.273   5.603 -0.0243 -1.7039 -0.3178
17631TIP3    H274385   2.933   4.202   5.575  1.3950  0.1221  1.3255
17632TIP3   OH274386   4.561   2.799  11.095 -0.4041 -0.8008 -0.4385
17632TIP3    H174387   4.497   2.732  11.072  0.2485 -1.7483  0.4104
17632TIP3    H274388   4.521   2.846  11.169  0.6471 -2.6866  1.4363
17633TIP3   OH274389   2.961   2.980  14.919 -0.2407 -0.3831  0.6246
17633TIP3    H174390   3.021   2.930  14.974  0.6012 -0.2947 -0.2016
17633TIP3    H274391   2.953   3.064  14.963  1.6990  0.2807 -0.1672
17634TIP3   OH274392   0.848   3.562  16.541 -0.3547  0.3195 -0.4618
17634TIP3    H174393   0.943   3.558  16.528 -0.4634  1.5118 -1.8165
17634TIP3    H274394   0.814   3.594  16.458 -1.8206  1.2717  0.4742
17635TIP3   OH274395   4.144   3.809   0.075  0.5226 -0.2580 -0.3427
17635TIP3    H174396   4.127   3.750   0.148  1.2806 -0.1963 -0.0987
17635TIP3    H274397   4.133   3.755  -0.003 -0.3219 -0.3180 -0.1866
17636TIP3   OH274398   1.802   3.786  16.409  0.0787  0.0273 -0.1178
17636TIP3    H174399   1.729   3.776  16.348 -0.5013 -0.3481  0.6112
17636TIP3    H274400   1.817   3.880  16.413 -1.1540  0.2187  0.5963
17637TIP3   OH274401   1.323   5.819  12.968 -0.1046 -0.0322  0.9415
17637TIP3    H174402   1.274   5.865  12.900 -1.9774 -1.5235  1.2154
17637TIP3    H274403   1.291   5.856  13.050 -0.6285 -0.8280  1.1119
17638TIP3   OH274404   3.676   6.177  15.868 -0.1985  0.1675  0.0511
17638TIP3    H174405   3.676   6.113  15.796  0.0365  0.9302 -0.6453
17638TIP3    H274406   3.679   6.262  15.824  0.9019  0.6313  0.9829
17639TIP3   OH274407   3.331   5.665  11.727 -0.1723  0.3789  0.4803
17639TIP3    H174408   3.409   5.720  11.722 -0.3123  0.7968  2.3284
17639TIP3    H274409   3.342   5.614  11.807 -0.2262 -2.0796 -0.9718
17640TIP3   OH274410   3.223   2.688  12.674  0.1677 -0.3221 -0.4406
17640TIP3    H174411   3.132   2.697  12.644 -0.0244 -1.5253 -0.2728
17640TIP3    H274412   3.221   2.613  12.734  0.7618  1.2977  1.7235
17641TIP3   OH274413   6.061   1.931  15.217 -0.7784  0.4337 -0.0684
17641TIP3    H174414   6.027   1.988  15.147  0.4841  1.6840  0.2912
17641TIP3    H274415   5.986   1.918  15.275 -1.7906 -0.4323 -1.4932
17642TIP3   OH274416   5.925   3.131  10.371 -0.3644  0.4164 -0.0077
17642TIP3    H174417   5.878   3.215  10.363 -0.8948  0.2133  0.8018
17642TIP3    H274418   5.864   3.066  10.337 -1.1941  0.0032  2.1380
17643TIP3   OH274419   1.099   6.587   1.108 -0.1209 -0.1581 -0.3052
17643TIP3    H174420   1.074   6.495   1.111  0.3448 -0.2762  0.0674
17643TIP3    H274421   1.191   6.588   1.134 -0.7415  0.6611  2.1198
17644TIP3   OH274422   3.182   3.594   5.452  0.2299  0.1942 -0.5153
17644TIP3    H174423   3.222   3.530   5.393  0.1766 -3.2503  2.8013
17644TIP3    H274424   3.088   3.583   5.439  0.2330  0.1678 -0.5150
17645TIP3   OH274425   1.945   5.307   4.323 -0.4789  0.1910  0.2778
17645TIP3    H174426   1.851   5.317   4.338 -0.4874 -0.9182  1.1033
17645TIP3    H274427   1.952   5.276   4.232 -0.7985  1.5739 -0.2470
17646TIP3   OH274428   4.237   3.796   0.422  0.8663  0.0171  0.3129
17646TIP3    H174429   4.323   3.833   0.441  0.5781  1.4439 -0.9217
17646TIP3    H274430   4.189   3.869   0.381 -0.8524 -0.8036  0.7863
17647TIP3   OH274431   6.455   1.492   7.012  0.1470 -0.0697 -0.1098
17647TIP3    H174432   6.498   1.551   6.951 -0.6158  0.7181  0.0870
17647TIP3    H274433   6.415   1.425   6.957  2.0344 -1.1360 -0.2673
17648TIP3   OH274434   1.569   0.264   3.034 -0.4898 -0.0160 -0.0270
17648TIP3    H174435   1.562   0.289   3.126 -1.8607  0.1986 -0.1734
17648TIP3    H274436   1.559   0.169   3.034  0.4529 -0.1199  0.1275
17649TIP3   OH274437   6.364   4.697   4.784  0.5485 -0.5567 -0.3121
17649TIP3    H174438   6.448   4.702   4.739 -0.0613  1.8325 -1.3460
17649TIP3    H274439   6.386   4.701   4.877  1.5952 -0.6388 -0.5447
17650TIP3   OH274440   1.949   4.987  12.899  0.1637  0.2452 -0.6542
17650TIP3    H174441   1.862   5.023  12.884 -1.1612 -1.7271  1.5726
17650TIP3    H274442   1.945   4.899  12.863  1.4813  0.3354 -1.0757
17651TIP3   OH274443   5.971   5.703   0.909  0.0789  0.5723  0.3150
17651TIP3    H174444   6.027   5.645   0.857  0.4154 -0.4831  1.7550
17651TIP3    H274445   6.028   5.734   0.980 -0.1098  2.6858 -0.3856
17652TIP3   OH274446   5.304   6.534  11.997  0.5973 -0.3487  0.6160
17652TIP3    H174447   5.336   6.607  11.944 -0.4925  0.9358  1.6590
17652TIP3    H274448   5.323   6.456  11.945  1.5258  0.6968 -0.6607
17653TIP3   OH274449   4.000   2.629  12.336 -0.5994  0.1055 -0.1097
17653TIP3    H174450   4.043   2.572  12.399  0.2090  1.1483  0.2995
17653TIP3    H274451   3.940   2.571  12.289 -0.1461 -0.9796  0.6115
17654TIP3   OH274452   5.167   2.436   0.127  0.2660  0.3582 -0.4988
17654TIP3    H174453   5.237   2.481   0.174  0.1139 -0.7743  0.8901
17654TIP3    H274454   5.210   2.401   0.048  0.7278  1.5706 -0.8012
17655TIP3   OH274455   0.146   6.281  14.669 -0.1914 -0.4658 -0.4699
17655TIP3    H174456   0.166   6.196  14.630 -0.5954 -0.7700 -0.0245
17655TIP3    H274457   0.055   6.274  14.696  0.2870 -0.5520  1.2283
17656TIP3   OH274458   6.444   5.052  13.354  0.1753 -0.4161  0.4439
17656TIP3    H174459   6.473   5.121  13.413 -3.0285  0.2920  1.3859
17656TIP3    H274460   6.429   4.976  13.412 -1.6814 -0.1252  0.4162
17657TIP3   OH274461   3.030   0.997  13.886  0.4551  0.7478 -0.4974
17657TIP3    H174462   3.098   1.043  13.935  1.1095  1.5931 -2.1020
17657TIP3    H274463   2.954   0.996  13.944  1.5131  0.7465  0.9172
17658TIP3   OH274464   3.534   1.458   0.819  0.4020 -0.3343  0.2253
17658TIP3    H174465   3.584   1.422   0.746  1.3832  0.9829  0.2151
17658TIP3    H274466   3.479   1.385   0.848  1.2373 -1.3840 -0.7235
17659TIP3   OH274467   1.373   5.372  17.210  0.2288 -1.0044  0.6039
17659TIP3    H174468   1.344   5.285  17.234 -0.9607 -0.2210  2.1235
17659TIP3    H274469   1.337   5.386  17.122 -0.7610 -1.5139  0.9202
17660TIP3   OH274470   6.071   2.776  14.558  0.4962  0.0054 -1.0829
17660TIP3    H174471   6.095   2.860  14.599 -0.8082  0.7928 -1.8782
17660TIP3    H274472   6.008   2.799  14.490 -2.0139 -1.8309  0.4088
17661TIP3   OH274473   5.236   1.164  12.666  0.1033 -0.2043  0.2106
17661TIP3    H174474   5.147   1.196  12.678  0.0190  0.2300 -1.4051
17661TIP3    H274475   5.233   1.073  12.696 -1.1125 -0.4676 -0.6479
17662TIP3   OH274476   6.545   1.053  13.462  0.2552  0.2867 -0.1781
17662TIP3    H174477   6.459   1.022  13.490  0.5515 -0.6648 -0.2837
17662TIP3    H274478   6.528   1.138  13.422 -0.7079 -0.1018 -0.6330
17663TIP3   OH274479   4.158   4.230   5.669 -0.1073 -0.2419  0.3392
17663TIP3    H174480   4.077   4.280   5.657  0.3430  0.4774  0.2498
17663TIP3    H274481   4.130   4.138   5.664 -0.9122 -0.0029  0.2895
17664TIP3   OH274482   4.808   4.458  14.846  0.1422 -0.1946 -0.2741
17664TIP3    H174483   4.842   4.427  14.762 -1.4839 -0.2920 -0.9251
17664TIP3    H274484   4.725   4.413  14.857  1.1727 -1.6369  2.3427
17665TIP3   OH274485   3.439   6.110   2.807  0.2399  0.3718 -0.1338
17665TIP3    H174486   3.380   6.035   2.799 -0.5990  0.7336  1.9290
17665TIP3    H274487   3.387   6.177   2.852  1.9623  1.0125  1.0158
17666TIP3   OH274488   4.689   0.919   2.752  0.0845  0.1172  0.2195
17666TIP3    H174489   4.599   0.890   2.767  0.8717 -2.1554  1.0042
17666TIP3    H274490   4.724   0.857   2.688  1.8482 -0.7499  1.9198
17667TIP3   OH274491   3.220   6.383   2.472  0.3032  0.4235  0.0528
17667TIP3    H174492   3.216   6.461   2.416 -1.6062  1.3094  1.3425
17667TIP3    H274493   3.263   6.412   2.552  1.2416 -0.3474 -0.1459
17668TIP3   OH274494   3.279   1.911   5.253 -0.2093  0.0057 -0.0325
17668TIP3    H174495   3.298   2.005   5.246 -0.8678  0.1129 -0.4943
17668TIP3    H274496   3.215   1.906   5.325  0.7870 -0.2442  0.8678
17669TIP3   OH274497   2.980   5.644   2.162 -0.4595 -0.0637  0.0793
17669TIP3    H174498   2.969   5.704   2.087  2.0967 -0.7679 -0.9888
17669TIP3    H274499   3.071   5.658   2.190 -0.2955 -2.2856  0.8268
17670TIP3   OH274500   6.587   5.732   3.799 -0.0107 -0.0391 -0.5063
17670TIP3    H174501   6.649   5.662   3.781  1.6685  1.3068 -0.1487
17670TIP3    H274502   6.592   5.746   3.894 -1.4026 -0.3629 -0.3521
17671TIP3   OH274503   3.916   3.134   3.744 -0.3830 -0.2754  0.1312
17671TIP3    H174504   3.851   3.149   3.813 -0.5583 -1.1420  0.1696
17671TIP3    H274505   3.867   3.148   3.662 -0.1289  0.9327  0.1707
17672TIP3   OH274506   4.135   4.891  17.116  0.5571  0.4762  0.0186
17672TIP3    H174507   4.118   4.961  17.179  1.6397  0.8007 -0.0355
17672TIP3    H274508   4.145   4.812  17.170  0.3093  0.5334  0.1532
17673TIP3   OH274509   1.065   2.246  15.787  0.3146 -0.0831 -0.3108
17673TIP3    H174510   0.995   2.196  15.829 -1.9231  2.1396 -1.1631
17673TIP3    H274511   1.081   2.200  15.705 -0.5090 -0.3156 -0.3453
17674TIP3   OH274512   5.367   1.956   3.539 -0.2353  1.0175 -0.4090
17674TIP3    H174513   5.278   1.925   3.555 -0.2486 -0.5882 -2.9598
17674TIP3    H274514   5.361   2.002   3.455  0.9700  2.8061  0.4267
17675TIP3   OH274515   5.448   1.447  13.066 -0.2978 -0.1601 -0.1428
17675TIP3    H174516   5.465   1.522  13.122 -0.2318  0.9717 -1.6274
17675TIP3    H274517   5.529   1.434  13.017 -0.6275 -0.5791 -0.5941
17676TIP3   OH274518   4.963   4.253  12.948  0.0508  0.2998 -0.2349
17676TIP3    H174519   4.903   4.256  12.874 -2.9510 -3.1416  1.7397
17676TIP3    H274520   5.002   4.166  12.944  1.4048  0.7911  1.1368
17677TIP3   OH274521   4.435   0.210  13.990  0.0954  0.2377  0.0843
17677TIP3    H174522   4.411   0.258  14.069 -2.7781  0.1384 -0.6256
17677TIP3    H274523   4.433   0.276  13.920 -1.3884 -0.3720 -0.4943
17678TIP3   OH274524   0.411   2.328   4.946  0.4471 -0.4308 -0.0288
17678TIP3    H174525   0.404   2.396   4.879  0.0173 -0.6206 -0.1798
17678TIP3    H274526   0.365   2.364   5.022 -1.3760 -1.2789 -0.6987
17679TIP3   OH274527   6.381   3.511  16.078  0.1241 -0.2297  0.0773
17679TIP3    H174528   6.404   3.434  16.130  0.9659 -0.3167 -0.4045
17679TIP3    H274529   6.355   3.577  16.143 -0.3907 -0.8418  0.5048
17680TIP3   OH274530   0.038   3.128   2.801 -0.5252 -0.6146 -0.0145
17680TIP3    H174531   0.041   3.148   2.707 -0.2819  0.8930  0.2926
17680TIP3    H274532  -0.044   3.080   2.812 -2.3148  2.1704 -0.4827
17681TIP3   OH274533   4.866   4.696  15.365  0.3856 -0.2120 -0.1994
17681TIP3    H174534   4.885   4.786  15.393 -0.8822 -1.2463  5.0504
17681TIP3    H274535   4.947   4.648  15.380  0.9716 -0.1731 -2.7166
17682TIP3   OH274536   3.525   3.692  10.435 -0.3742  0.0290  0.1426
17682TIP3    H174537   3.571   3.614  10.466 -1.4031 -0.2267  1.0981
17682TIP3    H274538   3.593   3.748  10.399  0.6869 -0.3084  1.5768
17683TIP3   OH274539   2.541   0.636  11.479  0.2182  0.6762  0.2701
17683TIP3    H174540   2.456   0.591  11.484  0.4121 -0.1248 -2.1050
17683TIP3    H274541   2.606   0.566  11.478  0.8696  1.2440  1.1527
17684TIP3   OH274542   3.215   5.290  11.627 -0.4296  0.5294 -0.5481
17684TIP3    H174543   3.188   5.216  11.682  2.9764 -0.5612 -0.0898
17684TIP3    H274544   3.235   5.249  11.542  0.6919  1.0252 -0.5390
17685TIP3   OH274545   3.613   4.961  13.835  0.3020 -0.5556 -0.1513
17685TIP3    H174546   3.558   4.921  13.768  1.6304 -0.3441 -1.4084
17685TIP3    H274547   3.556   5.024  13.879 -0.3256  0.0830 -1.8054
17686TIP3   OH274548   0.509   6.570   3.016 -0.5842  0.0372  0.0818
17686TIP3    H174549   0.563   6.646   3.039 -1.7794  0.8272  0.3647
17686TIP3    H274550   0.421   6.593   3.046 -1.2806 -0.8032 -1.2151
17687TIP3   OH274551   6.575   4.703  15.315 -0.3856  0.3858 -0.0306
17687TIP3    H174552   6.582   4.792  15.278 -1.2476  0.7991  0.7532
17687TIP3    H274553   6.616   4.709  15.401  0.8302 -0.3539 -0.5367
17688TIP3   OH274554   5.869   4.719  11.406 -0.3094  0.3033 -0.4013
17688TIP3    H174555   5.947   4.754  11.450 -1.0056  1.0665  0.2805
17688TIP3    H274556   5.902   4.652  11.347  0.9262  1.0460 -0.5845
17689TIP3   OH274557   4.720   6.637   0.908 -0.5815 -0.0184 -0.5652
17689TIP3    H174558   4.727   6.634   1.003  2.6562  1.1941 -0.6209
17689TIP3    H274559   4.722   6.545   0.881 -0.8833 -0.3572  0.5184
17690TIP3   OH274560   4.322   2.339  12.324  0.4321  0.1707 -0.5230
17690TIP3    H174561   4.341   2.247  12.305 -1.8941 -0.3752 -0.4691
17690TIP3    H274562   4.267   2.367  12.250  1.9563  1.8616 -1.0821
17691TIP3   OH274563   6.061   3.070  13.234  0.1253 -0.1177 -0.4495
17691TIP3    H174564   6.154   3.085  13.251  0.2520 -1.5532  0.2918
17691TIP3    H274565   6.026   3.042  13.319 -1.1293  1.0107 -0.5750
17692TIP3   OH274566   2.940   1.701   5.150  0.2992 -0.0076 -0.0571
17692TIP3    H174567   2.859   1.682   5.102  0.2146 -0.6429  0.3296
17692TIP3    H274568   2.976   1.778   5.106  0.6065 -0.9850 -1.6152
17693TIP3   OH274569   2.477   6.225   3.088  0.2696  0.5653 -0.3605
17693TIP3    H174570   2.534   6.287   3.042 -0.7093  3.3006  1.8434
17693TIP3    H274571   2.424   6.279   3.145 -0.9763 -2.3411  1.4644
17694TIP3   OH274572   5.393   5.072   5.451 -0.2843 -0.5810  0.0211
17694TIP3    H174573   5.307   5.030   5.459 -0.2799 -0.8639 -1.2188
17694TIP3    H274574   5.453   5.011   5.494 -0.5657 -0.8917 -0.0244
17695TIP3   OH274575   1.331   6.594  14.887 -0.1218 -0.1708 -0.2398
17695TIP3    H174576   1.313   6.657  14.818 -1.2526 -0.3425 -0.1141
17695TIP3    H274577   1.350   6.648  14.964  2.5966  0.0531 -0.9672
17696TIP3   OH274578   4.294   5.784   4.249  0.1615 -0.0392 -0.4897
17696TIP3    H174579   4.283   5.706   4.195  1.9761  0.3668 -1.5355
17696TIP3    H274580   4.265   5.856   4.192  0.0769  0.2116 -0.1321
17697TIP3   OH274581   2.349   3.476  16.445  0.7434  0.3313 -0.5558
17697TIP3    H174582   2.305   3.455  16.362 -1.6318 -0.2212  0.7265
17697TIP3    H274583   2.384   3.564  16.432 -1.1521  1.0082 -1.6087
17698TIP3   OH274584   1.450   1.087   0.192 -0.5716  0.2167 -0.0909
17698TIP3    H174585   1.384   1.055   0.130 -0.4404 -0.1738 -0.0279
17698TIP3    H274586   1.515   1.017   0.196 -1.7040 -0.8096  2.2319
17699TIP3   OH274587   2.410   0.283  16.383 -0.2473 -0.1121 -0.4982
17699TIP3    H174588   2.422   0.204  16.435  2.1128  1.7108  2.0023
17699TIP3    H274589   2.355   0.339  16.436 -0.6796  0.5068 -1.5673
17700TIP3   OH274590   6.044   2.235  15.935  0.0304  0.0882 -0.3901
17700TIP3    H174591   6.131   2.196  15.929  0.0979  0.0673  0.5614
17700TIP3    H274592   5.984   2.163  15.915  0.1928 -0.2228  0.2246
17701TIP3   OH274593   1.741   2.675   2.110 -0.5858  0.3536  0.0662
17701TIP3    H174594   1.777   2.587   2.097  0.8562  0.9665 -0.2737
17701TIP3    H274595   1.744   2.688   2.205 -0.7183  0.0828  0.1099
17702TIP3   OH274596   4.183   6.096   0.391 -0.1469 -0.4635  0.3849
17702TIP3    H174597   4.194   6.039   0.314  0.7115 -0.9057  0.8191
17702TIP3    H274598   4.109   6.058   0.438 -0.2562 -0.5869  0.1184
17703TIP3   OH274599   5.827   2.197   1.730  0.2564  0.1917 -0.2486
17703TIP3    H174600   5.805   2.186   1.823  0.0837  0.5577 -0.2436
17703TIP3    H274601   5.787   2.121   1.687  2.6238 -1.5114  0.3080
17704TIP3   OH274602   5.340   1.511   2.951 -0.3123 -0.2390  0.4444
17704TIP3    H174603   5.311   1.588   2.902 -0.9181 -0.2056  0.8403
17704TIP3    H274604   5.436   1.512   2.943 -0.4541 -1.4101 -2.4745
17705TIP3   OH274605   4.788   6.104   1.901  0.5305  0.0072 -0.2889
17705TIP3    H174606   4.817   6.194   1.918 -0.1861  0.2618 -0.3812
17705TIP3    H274607   4.849   6.072   1.834  0.3777  0.6651 -0.7579
17706TIP3   OH274608   0.280   3.166  14.767  0.3688 -0.1253 -0.5877
17706TIP3    H174609   0.344   3.110  14.811 -0.3421  0.5943  1.4790
17706TIP3    H274610   0.200   3.113  14.762  0.3561 -0.0941 -0.7241
17707TIP3   OH274611   6.683   6.325  14.243 -0.0942  0.6905  0.5539
17707TIP3    H174612   6.611   6.296  14.300  1.1830 -0.7861  1.4856
17707TIP3    H274613   6.674   6.421  14.241 -1.6025  0.6024  1.2704
17708TIP3   OH274614   1.424   1.453   4.656  0.3570  0.1800 -0.3259
17708TIP3    H174615   1.333   1.423   4.650  0.6565 -0.6188 -1.0190
17708TIP3    H274616   1.426   1.532   4.602  0.1521  0.0125 -0.5797
17709TIP3   OH274617   2.947   2.399   0.174 -0.7245  0.0235 -0.1803
17709TIP3    H174618   2.930   2.373   0.264  0.4692  0.6231  0.2428
17709TIP3    H274619   2.865   2.380   0.127 -1.2106 -0.6954  0.9267
17710TIP3   OH274620   1.216   5.659   3.706 -0.1045  0.7077 -0.0426
17710TIP3    H174621   1.130   5.619   3.718  1.2356 -1.8278  2.2762
17710TIP3    H274622   1.225   5.718   3.781  0.6923 -0.1618  0.5702
17711TIP3   OH274623   3.486   0.653  12.667 -0.2574  0.3414 -0.1595
17711TIP3    H174624   3.501   0.672  12.574 -0.4096 -0.6027 -0.3872
17711TIP3    H274625   3.391   0.643  12.675 -0.1931 -0.1918 -0.0299
17712TIP3   OH274626   0.410   3.112  15.011 -0.0305  0.3718  0.5827
17712TIP3    H174627   0.340   3.048  15.025 -1.0282 -0.1052 -4.7861
17712TIP3    H274628   0.488   3.068  15.044 -1.1899 -2.2915  0.0889
17713TIP3   OH274629   5.813   5.200   4.853  0.1955  0.4652 -0.1555
17713TIP3    H174630   5.898   5.169   4.822  0.7953  0.9533  0.9450
17713TIP3    H274631   5.834   5.257   4.927 -1.1167  0.0839  0.5368
17714TIP3   OH274632   2.405   4.239   1.008 -0.3813 -0.9774 -0.0089
17714TIP3    H174633   2.436   4.261   1.096 -1.3542  1.8063 -0.2590
17714TIP3    H274634   2.429   4.315   0.954 -1.4156 -1.7970 -1.7251
17715TIP3   OH274635   5.508   4.675   5.131 -0.6405  0.4758 -0.2721
17715TIP3    H174636   5.512   4.583   5.158  0.4489  0.4221 -0.5734
17715TIP3    H274637   5.433   4.710   5.179  0.1498 -0.0605  1.4586
17716TIP3   OH274638   2.789   3.485  11.345  0.4890  0.0752  0.4806
17716TIP3    H174639   2.796   3.533  11.428  0.4407 -0.5340  0.8429
17716TIP3    H274640   2.698   3.497  11.319 -0.0879 -1.4474  1.5985
17717TIP3   OH274641   5.778   2.300  16.212 -0.3656 -0.2823 -0.3217
17717TIP3    H174642   5.758   2.317  16.305  2.4375 -0.3914  0.3741
17717TIP3    H274643   5.719   2.228  16.189 -0.0125 -1.3887  1.8862
17718TIP3   OH274644   3.181   2.258   4.359  0.5401  1.0157  0.0581
17718TIP3    H174645   3.228   2.291   4.435  2.2482 -1.4743  0.2069
17718TIP3    H274646   3.208   2.166   4.352 -2.3312  0.1760 -1.4507
17719TIP3   OH274647   5.329   6.070   4.323 -0.4615  0.1188 -0.0486
17719TIP3    H174648   5.365   5.982   4.310 -1.6913 -0.2528 -1.1213
17719TIP3    H274649   5.373   6.101   4.403 -1.3286 -2.1977  1.4671
17720TIP3   OH274650   6.029   4.985  11.680 -0.3496 -0.8261  0.1340
17720TIP3    H174651   5.971   4.999  11.605 -0.2438 -1.1574 -0.0095
17720TIP3    H274652   6.066   4.898  11.666 -0.8524 -1.1749  0.9270
17721TIP3   OH274653   3.811   2.606   1.367 -0.4485 -0.7510 -0.3962
17721TIP3    H174654   3.875   2.535   1.366 -0.4096 -0.7134 -0.7933
17721TIP3    H274655   3.744   2.578   1.304 -0.8127 -0.7822  0.0017
17722TIP3   OH274656   4.839   3.404  11.021  1.0701  0.6033 -0.2974
17722TIP3    H174657   4.800   3.412  11.108  1.7911  0.9618 -0.0001
17722TIP3    H274658   4.781   3.344  10.974  0.0591  1.2812  0.0650
17723TIP3   OH274659   5.364   3.194  15.446 -0.2066 -0.4465 -0.2790
17723TIP3    H174660   5.287   3.157  15.489 -1.5822  1.7176 -0.7018
17723TIP3    H274661   5.434   3.185  15.511 -1.3816 -0.4188  1.0363
17724TIP3   OH274662   1.530   0.570   1.560 -0.0974 -0.0926 -0.3902
17724TIP3    H174663   1.499   0.586   1.471 -1.9730 -3.2473 -0.4343
17724TIP3    H274664   1.597   0.502   1.550 -0.9341 -1.1022  0.6394
17725TIP3   OH274665   1.895   3.558  14.080 -0.3959  0.8413 -0.1793
17725TIP3    H174666   1.902   3.648  14.110  1.2188  0.7669 -0.2294
17725TIP3    H274667   1.836   3.562  14.004 -0.5544  1.7999 -0.0146
17726TIP3   OH274668   2.336   5.859  11.843  0.2764  0.5354 -0.5512
17726TIP3    H174669   2.420   5.893  11.875  0.1489  0.8895 -0.5809
17726TIP3    H274670   2.350   5.846  11.750  0.2136  0.8668 -0.6082
17727TIP3   OH274671   5.774   2.071  12.484  0.4052  0.0964  0.1830
17727TIP3    H174672   5.775   2.009  12.411  3.6000  1.3409 -0.9937
17727TIP3    H274673   5.835   2.033  12.548  0.4151  0.7962  0.5946
17728TIP3   OH274674   2.596   0.328   4.958  0.3058 -0.0938 -0.5808
17728TIP3    H174675   2.642   0.364   5.034  0.2940  0.6263 -0.9043
17728TIP3    H274676   2.531   0.268   4.995  1.4384 -1.0720 -0.1176
17729TIP3   OH274677   1.058   2.194   5.778 -0.1567 -0.0199  0.0517
17729TIP3    H174678   1.152   2.195   5.764 -0.1877 -2.2421 -0.7156
17729TIP3    H274679   1.046   2.148   5.861 -0.5740 -1.3504 -0.7001
17730TIP3   OH274680   5.577   5.299  15.519  0.4263  0.2102 -0.0566
17730TIP3    H174681   5.616   5.239  15.456  1.2886  1.9586 -1.2579
17730TIP3    H274682   5.506   5.249  15.559  1.7836 -1.9545 -0.2077
17731TIP3   OH274683   6.662   3.258  16.338 -1.0411  0.1538 -0.3691
17731TIP3    H174684   6.567   3.256  16.349 -0.8504 -0.0115  1.8763
17731TIP3    H274685   6.695   3.285  16.424  1.0572 -2.4212 -0.2282
17732TIP3   OH274686   1.092   3.709  13.739 -0.1197  0.3409 -0.1814
17732TIP3    H174687   1.069   3.773  13.806  2.8904 -0.3993  1.7405
17732TIP3    H274688   1.182   3.730  13.715  1.6623 -3.9487  1.7502
17733TIP3   OH274689   1.189   4.147  15.648  0.3804 -0.1631 -0.1230
17733TIP3    H174690   1.236   4.159  15.566 -0.9492 -2.5337 -1.3057
17733TIP3    H274691   1.238   4.079  15.694  1.0057  1.0104  1.0386
17734TIP3   OH274692   3.576   4.691  11.372 -0.4240 -0.0475  0.2027
17734TIP3    H174693   3.615   4.633  11.306 -1.4329  3.1031 -3.5898
17734TIP3    H274694   3.649   4.745  11.403 -0.2501 -0.2987  0.2329
17735TIP3   OH274695   3.477   5.731   0.245  0.4395 -0.1100  0.3001
17735TIP3    H174696   3.397   5.722   0.298 -1.5223 -1.6549 -2.6420
17735TIP3    H274697   3.478   5.824   0.221 -0.2844 -0.0039  0.6254
17736TIP3   OH274698   2.737   5.503  14.621  0.3104  0.2490  0.5858
17736TIP3    H174699   2.822   5.500  14.664  0.1072  1.2513  1.0837
17736TIP3    H274700   2.674   5.484  14.691 -0.0468  2.2384  0.8677
17737TIP3   OH274701   6.734   4.707  15.567 -0.2364 -0.1860  0.6466
17737TIP3    H174702   6.715   4.649  15.640  3.0691  0.5709  2.3026
17737TIP3    H274703   6.820   4.679  15.535 -1.2050  0.0452 -2.5138
17738TIP3   OH274704   1.853   3.035  10.351 -0.3543 -0.0940  0.2689
17738TIP3    H174705   1.880   3.110  10.405 -0.5987 -0.4205  0.8599
17738TIP3    H274706   1.823   3.074  10.269  0.1344  0.4050  0.3234
17739TIP3   OH274707   1.377   4.252  15.142  0.4838 -0.2355  0.0154
17739TIP3    H174708   1.380   4.156  15.146 -0.0040 -0.2148  1.4492
17739TIP3    H274709   1.430   4.274  15.066  0.5439 -1.6465 -0.3914
17740TIP3   OH274710   5.620   6.281  15.100 -0.6500 -0.6132  0.3393
17740TIP3    H174711   5.600   6.196  15.059  2.2346 -0.8311 -0.8371
17740TIP3    H274712   5.561   6.342  15.057 -1.2970 -1.6892 -0.3659
17741TIP3   OH274713   3.876   6.541  15.862  0.1891 -0.3100  0.3830
17741TIP3    H174714   3.971   6.552  15.854  0.1468 -0.3273 -0.1457
17741TIP3    H274715   3.863   6.514  15.953  0.6433  0.2021  0.6060
17742TIP3   OH274716   1.306   1.442   3.863  0.4286  0.4299  0.0346
17742TIP3    H174717   1.259   1.362   3.886  0.0711  0.0538 -1.8231
17742TIP3    H274718   1.267   1.470   3.780  2.5374  0.8449 -0.9062
17743TIP3   OH274719   1.651   0.348  11.123  0.3189  0.5795  0.4226
17743TIP3    H174720   1.675   0.430  11.080 -0.7532  0.1414 -1.0759
17743TIP3    H274721   1.718   0.286  11.095  0.1655  0.5291  0.1665
17744TIP3   OH274722   4.858   3.283   0.872 -0.0677 -0.3007  0.0733
17744TIP3    H174723   4.849   3.241   0.958  0.3729  2.0105  1.3416
17744TIP3    H274724   4.943   3.252   0.840  0.1192 -0.6107  0.8282
17745TIP3   OH274725   4.443   4.336   3.850  1.0134 -0.2139 -0.3534
17745TIP3    H174726   4.372   4.271   3.844  0.9368  0.0077 -2.4177
17745TIP3    H274727   4.518   4.287   3.884  0.2892 -0.7808  0.4797
17746TIP3   OH274728   6.637   2.077  11.839 -0.5330 -0.0828 -0.8727
17746TIP3    H174729   6.547   2.102  11.860 -0.5791  0.5062 -1.6896
17746TIP3    H274730   6.692   2.132  11.895 -0.6740 -1.2714  0.4814
17747TIP3   OH274731   3.260   5.632   5.644  0.4039 -0.2600  0.0683
17747TIP3    H174732   3.346   5.591   5.656 -0.1381 -1.0781  1.4915
17747TIP3    H274733   3.241   5.673   5.728 -0.5401  0.0166 -0.2665
17748TIP3   OH274734   3.746   6.741  12.161  0.3264 -0.3386  0.0527
17748TIP3    H174735   3.808   6.726  12.090  1.6506  0.4239  0.9888
17748TIP3    H274736   3.660   6.743  12.119  0.9054 -1.5533 -1.2665
17749TIP3   OH274737   3.208   0.332   4.292 -0.4137 -0.3332  0.0799
17749TIP3    H174738   3.121   0.300   4.317 -1.2246  1.2063 -0.6342
17749TIP3    H274739   3.242   0.370   4.373 -1.5756  1.5041 -0.2420
17750TIP3   OH274740   0.973   3.753   2.525  0.2925  0.1652 -0.1107
17750TIP3    H174741   0.987   3.663   2.495  2.0089  0.2451  0.3518
17750TIP3    H274742   1.041   3.767   2.591 -1.4969  0.9957  1.6549
17751TIP3   OH274743   1.454   0.526   2.366 -0.8367  0.0781  0.1011
17751TIP3    H174744   1.362   0.508   2.346 -0.8390  0.2401 -0.0330
17751TIP3    H274745   1.481   0.588   2.299 -0.7035  0.2331  0.2985
17752TIP3   OH274746   4.668   2.493   0.545 -0.7157  0.2043 -0.4203
17752TIP3    H174747   4.586   2.457   0.580 -0.3884 -2.4039 -2.0900
17752TIP3    H274748   4.707   2.420   0.497  2.3826  1.5091 -0.0733
17753TIP3   OH274749   0.908   4.336  15.227  0.0409  0.4202  0.3752
17753TIP3    H174750   0.918   4.248  15.192 -3.4129  0.2240 -0.4933
17753TIP3    H274751   0.886   4.322  15.319 -1.5938  0.2304 -0.0107
17754TIP3   OH274752   3.510   4.106   4.871  0.5030 -0.1601 -0.1254
17754TIP3    H174753   3.458   4.050   4.928  1.3333 -0.6035  0.2069
17754TIP3    H274754   3.448   4.137   4.805 -0.6275  0.8127  1.3101
17755TIP3   OH274755   2.929   6.437  11.763 -0.3609  0.6045  0.2117
17755TIP3    H174756   2.929   6.501  11.835 -2.8398  1.2832 -0.2956
17755TIP3    H274757   2.934   6.489  11.684  0.4658 -0.0295 -0.1672
17756TIP3   OH274758   0.355   2.717  14.931  0.4348 -0.0130 -0.6276
17756TIP3    H174759   0.396   2.749  14.851 -0.1417 -2.8946 -2.2236
17756TIP3    H274760   0.419   2.655  14.967 -0.7544 -1.4071 -0.8517
17757TIP3   OH274761   3.417   1.338  16.850 -0.1637  0.4333 -0.4793
17757TIP3    H174762   3.453   1.268  16.904  0.0460  0.5349 -0.4866
17757TIP3    H274763   3.347   1.376  16.904  0.6769  1.1645  0.1278
17758TIP3   OH274764   2.794   5.196   1.481  0.0091  0.3826 -0.1970
17758TIP3    H174765   2.749   5.120   1.518  0.4280  0.4206  0.4093
17758TIP3    H274766   2.865   5.159   1.428 -0.1245  0.3460 -0.3530
17759TIP3   OH274767   2.385   6.440  14.090 -0.3349  0.1419 -0.2033
17759TIP3    H174768   2.419   6.358  14.055 -2.6422 -1.0233  0.1240
17759TIP3    H274769   2.414   6.507  14.028 -0.2781 -1.2172 -1.6988
17760TIP3   OH274770   2.858   2.691   5.026  0.1705 -0.1677  0.2859
17760TIP3    H174771   2.951   2.704   5.007  0.2923 -0.4742  0.6509
17760TIP3    H274772   2.857   2.652   5.113 -0.2783 -0.5062  0.1358
17761TIP3   OH274773   0.443   0.264   5.657  0.7902 -0.0340 -0.2060
17761TIP3    H174774   0.451   0.170   5.642  2.4325 -0.0986  0.7374
17761TIP3    H274775   0.467   0.275   5.750  0.6823  1.3118 -0.3168
17762TIP3   OH274776   4.666   4.243  10.977 -0.4854 -0.0081  0.2229
17762TIP3    H174777   4.709   4.160  10.962  0.1841 -0.1387  2.5091
17762TIP3    H274778   4.572   4.223  10.971 -0.3138 -0.5015 -1.0691
17763TIP3   OH274779   5.644   5.091   6.288 -0.3965 -0.1965 -0.5325
17763TIP3    H174780   5.722   5.047   6.322 -0.5406 -0.3879 -0.4514
17763TIP3    H274781   5.634   5.169   6.343  1.5861  1.5951 -2.4731
17764TIP3   OH274782   0.658   2.253   6.187 -0.5115 -0.0999 -0.3614
17764TIP3    H174783   0.704   2.234   6.269 -1.8056  0.5317  0.5499
17764TIP3    H274784   0.625   2.168   6.157  0.0546 -0.3462 -0.2867
17765TIP3   OH274785   4.458   6.579   4.941  0.3179  0.3115 -0.0969
17765TIP3    H174786   4.526   6.537   4.888 -0.7138 -1.5425 -0.0511
17765TIP3    H274787   4.429   6.510   5.002 -1.3256  1.1541  0.1393
17766TIP3   OH274788   4.425   4.530  11.832  0.3721  0.3080  0.1279
17766TIP3    H174789   4.344   4.578  11.817  1.3610  2.6087  1.6701
17766TIP3    H274790   4.494   4.589  11.802  1.6173 -0.3071  1.6227
17767TIP3   OH274791   0.458   4.841   4.657 -0.1674  0.2332 -0.1515
17767TIP3    H174792   0.467   4.832   4.752 -0.2894  0.6822 -0.0946
17767TIP3    H274793   0.372   4.881   4.645  0.5091  1.6973 -0.3473
17768TIP3   OH274794   0.726   4.644  11.168  0.3087  0.0704 -0.3434
17768TIP3    H174795   0.797   4.606  11.116 -0.6536 -0.3012 -1.4371
17768TIP3    H274796   0.729   4.597  11.251  1.7664  0.5521 -0.0938
17769TIP3   OH274797   2.468   2.029   1.497  0.2173 -0.3017  0.4118
17769TIP3    H174798   2.477   1.990   1.410 -0.6017 -0.4921  0.3973
17769TIP3    H274799   2.527   2.104   1.497 -0.7914  0.5195 -0.7946
17770TIP3   OH274800   2.598   4.910  16.906  0.4641  0.1970 -0.4425
17770TIP3    H174801   2.654   4.929  16.831 -0.1787  2.7459 -0.3698
17770TIP3    H274802   2.654   4.922  16.982  0.4833  0.0927 -0.4404
17771TIP3   OH274803   6.775   0.977   2.959 -0.1789  0.1402 -0.4722
17771TIP3    H174804   6.703   0.933   2.913  0.0623 -0.7299 -0.0334
17771TIP3    H274805   6.852   0.960   2.906 -0.2899  1.1389 -0.9834
17772TIP3   OH274806   5.703   0.231  11.767  0.1287  0.3539  0.0798
17772TIP3    H174807   5.779   0.227  11.826  2.0996  0.7546 -2.2550
17772TIP3    H274808   5.632   0.264  11.822  1.1788 -1.5330  2.7650
17773TIP3   OH274809   3.592   3.211  12.557  0.0633 -0.5762 -0.1338
17773TIP3    H174810   3.601   3.237  12.466  1.1032 -0.0158  0.1099
17773TIP3    H274811   3.647   3.133  12.565  1.5584  0.4911  0.4332
17774TIP3   OH274812   3.357   1.299  11.068 -0.5146 -0.1080 -0.2641
17774TIP3    H174813   3.388   1.210  11.049  1.9315  0.6988 -0.3840
17774TIP3    H274814   3.310   1.326  10.989 -0.7631 -1.0539 -0.4488
17775TIP3   OH274815   0.773   0.247  12.406  0.8256 -0.3796 -0.2050
17775TIP3    H174816   0.815   0.290  12.481 -2.3840  0.3088  1.4052
17775TIP3    H274817   0.743   0.320  12.351  2.3090 -0.8703 -1.7611
17776TIP3   OH274818   2.850   4.880   4.897  0.2966  0.2499  0.0520
17776TIP3    H174819   2.754   4.883   4.887  0.3599 -0.4164 -0.8779
17776TIP3    H274820   2.865   4.899   4.989 -0.6579  1.7306 -0.0627
17777TIP3   OH274821   3.145   5.265  16.859 -0.0465 -0.8549  0.5484
17777TIP3    H174822   3.197   5.200  16.811  1.4461  0.2502  0.6082
17777TIP3    H274823   3.078   5.291  16.796 -0.5202 -2.2456  0.4330
17778TIP3   OH274824   1.572   6.210   5.644  0.7559  0.5669  0.2493
17778TIP3    H174825   1.490   6.260   5.637  0.9473  1.0548  1.2956
17778TIP3    H274826   1.543   6.121   5.663  0.4385  0.4404 -0.7522
17779TIP3   OH274827   3.310   4.095   1.264 -0.2503 -0.0845 -0.1945
17779TIP3    H174828   3.374   4.137   1.207 -0.6510  0.2750 -0.3852
17779TIP3    H274829   3.280   4.019   1.215  0.1291 -0.3302 -0.0479
17780TIP3   OH274830   4.604   4.042  16.769  0.0105  0.0158  0.1782
17780TIP3    H174831   4.678   3.991  16.737  0.9829  1.5383 -0.1111
17780TIP3    H274832   4.597   4.019  16.861 -0.6738 -1.8755 -0.2927
17781TIP3   OH274833   1.831   1.478  13.165 -0.0842 -0.3267 -0.2455
17781TIP3    H174834   1.877   1.445  13.087 -0.1518 -3.3808  0.8655
17781TIP3    H274835   1.892   1.461  13.237 -0.7254  0.8736  0.6139
17782TIP3   OH274836   5.407   3.398  13.192  0.1692  0.1840 -0.5563
17782TIP3    H174837   5.418   3.429  13.102 -0.7017  1.2199 -0.3241
17782TIP3    H274838   5.495   3.402  13.229  0.1355  2.5196 -0.5382
17783TIP3   OH274839   6.071   0.343   1.189 -0.1827  0.2023  0.1562
17783TIP3    H174840   5.990   0.295   1.201 -0.8337  0.6913 -1.9544
17783TIP3    H274841   6.094   0.373   1.278 -2.5432  0.4486  0.7622
17784TIP3   OH274842   6.126   3.894  11.052 -0.4297 -0.1174  0.1433
17784TIP3    H174843   6.063   3.851  10.994 -1.2481 -0.4725  1.2614
17784TIP3    H274844   6.150   3.826  11.115  0.6262  0.1979  0.0985
17785TIP3   OH274845   1.675   5.373   4.360 -0.1971  0.6594  0.5727
17785TIP3    H174846   1.728   5.446   4.327  1.6178 -1.2416 -1.0622
17785TIP3    H274847   1.585   5.406   4.359  0.3520  2.3943 -1.6672
17786TIP3   OH274848   6.762   3.440  13.917  0.4189  0.1913 -0.3197
17786TIP3    H174849   6.718   3.459  13.834 -0.4448  1.3141  0.3510
17786TIP3    H274850   6.690   3.421  13.978  1.0391 -0.6632  0.1559
17787TIP3   OH274851   5.850   0.280   5.603  0.2361 -0.0335 -0.1491
17787TIP3    H174852   5.932   0.326   5.583  0.6399  0.0424  1.5489
17787TIP3    H274853   5.788   0.350   5.624  0.0531 -0.1504 -0.2947
17788TIP3   OH274854   0.106   6.187   6.046  0.0059  0.2339  0.3936
17788TIP3    H174855   0.135   6.097   6.032  1.7799  0.5659  1.5981
17788TIP3    H274856   0.017   6.179   6.079  0.4197 -1.1460  1.2293
17789TIP3   OH274857   4.708   5.380   0.520 -0.1308  0.5571 -0.2015
17789TIP3    H174858   4.626   5.361   0.474 -0.3045 -1.0449  0.7049
17789TIP3    H274859   4.768   5.310   0.493 -0.0764 -0.1176  1.5437
17790TIP3   OH274860   2.197   5.567  14.287 -0.3763  0.2871  0.1941
17790TIP3    H174861   2.142   5.645  14.298  0.5320  1.1830 -1.2937
17790TIP3    H274862   2.247   5.563  14.368  0.7835  2.2898 -0.3502
17791TIP3   OH274863   3.044   3.813   2.026  0.0501  0.7027  0.0521
17791TIP3    H174864   2.974   3.873   2.052 -0.4915 -0.5737  1.6582
17791TIP3    H274865   3.000   3.730   2.011  1.2959 -0.3970  2.0760
17792TIP3   OH274866   0.479   5.176  11.966 -0.2158 -0.4066 -0.4200
17792TIP3    H174867   0.489   5.175  11.870  0.2964 -1.3551 -0.3670
17792TIP3    H274868   0.568   5.176  12.000 -0.3979 -0.2279  0.0667
17793TIP3   OH274869   4.467   3.072  16.419  0.8582  0.8998  0.0327
17793TIP3    H174870   4.557   3.084  16.449  0.2095  1.2179  1.9941
17793TIP3    H274871   4.417   3.058  16.499 -0.8490  0.7321 -1.0225
17794TIP3   OH274872   2.013   5.635  10.747 -0.5155  0.0319  0.6013
17794TIP3    H174873   1.942   5.623  10.685 -0.4903  0.6115  0.4559
17794TIP3    H274874   2.049   5.721  10.726  2.4296 -1.5739 -1.5564
17795TIP3   OH274875   0.811   3.839  17.090 -0.1889 -0.2797  0.1656
17795TIP3    H174876   0.855   3.770  17.141 -1.9626 -2.0167 -0.5365
17795TIP3    H274877   0.781   3.902  17.156  0.8196 -0.5192  0.8899
17796TIP3   OH274878   1.631   1.162  14.074 -0.1156  0.2265  0.0552
17796TIP3    H174879   1.597   1.119  14.153  0.9309  1.7408  1.4144
17796TIP3    H274880   1.712   1.115  14.055  0.0054  0.3122  0.3410
17797TIP3   OH274881   2.461   5.562  15.577  0.6792 -0.5455  0.2031
17797TIP3    H174882   2.412   5.544  15.496 -2.9174  1.4665  1.7049
17797TIP3    H274883   2.463   5.478  15.623 -2.2372 -0.6269  0.3895
17798TIP3   OH274884   4.016   5.166   2.203 -0.0974  0.5342 -0.2895
17798TIP3    H174885   3.949   5.100   2.224 -2.3188  2.8736  0.4226
17798TIP3    H274886   3.987   5.203   2.120  0.9473  0.8685 -0.5131
17799TIP3   OH274887   3.952   3.336   5.746 -0.1423 -0.0098  0.3678
17799TIP3    H174888   4.030   3.382   5.777  0.2839 -0.4112 -0.0917
17799TIP3    H274889   3.986   3.267   5.689 -0.8997  0.8868 -1.2301
17800TIP3   OH274890   2.104   3.990   3.502 -0.3476 -0.2188  0.2511
17800TIP3    H174891   2.175   3.984   3.566  0.4385 -1.4657 -0.6995
17800TIP3    H274892   2.062   4.074   3.521  1.9565  1.0173  0.2466
17801TIP3   OH274893   2.646   4.733  12.341  0.3293 -0.0366 -0.5295
17801TIP3    H174894   2.628   4.826  12.355 -2.9620 -0.5558 -0.5434
17801TIP3    H274895   2.569   4.700  12.295  1.5374 -2.7357 -0.8161
17802TIP3   OH274896   5.785   4.007   4.951 -0.7254  0.0201  0.7775
17802TIP3    H174897   5.729   4.040   5.021 -0.9340  1.4971 -0.0475
17802TIP3    H274898   5.801   4.083   4.895 -1.6097 -1.3531 -1.5054
17803TIP3   OH274899   3.858   5.000  16.319  0.0660  0.3379 -0.4078
17803TIP3    H174900   3.935   4.945  16.334 -0.2295  0.0127 -0.0603
17803TIP3    H274901   3.852   5.054  16.398 -0.7592 -0.4840  0.0981
17804TIP3   OH274902   3.972   1.496  14.814 -0.0148  0.3770  0.1184
17804TIP3    H174903   3.952   1.488  14.721 -0.1028 -1.3628  0.2408
17804TIP3    H274904   3.914   1.565  14.846 -0.2048  0.7754 -1.0412
17805TIP3   OH274905   3.463   2.970   4.161 -0.4666 -0.2559 -0.0269
17805TIP3    H174906   3.448   2.882   4.126 -2.4949  0.3119 -0.7856
17805TIP3    H274907   3.468   3.025   4.083 -0.2107  0.4264  0.4694
17806TIP3   OH274908   5.701   4.604   2.116 -0.1726 -0.5384 -0.0334
17806TIP3    H174909   5.721   4.512   2.133  0.1264 -0.6359 -0.8964
17806TIP3    H274910   5.606   4.605   2.100 -0.6253 -0.3390  2.2339
17807TIP3   OH274911   4.210   4.892   0.637 -0.3848  0.2760 -0.1657
17807TIP3    H174912   4.145   4.916   0.571 -0.7082  0.2854  0.1451
17807TIP3    H274913   4.237   4.976   0.675  1.6957  0.4910 -1.9997
17808TIP3   OH274914   5.996   2.994   1.150  0.0437  0.8077  0.0408
17808TIP3    H174915   6.002   3.089   1.164  2.5824  1.0869 -2.0881
17808TIP3    H274916   6.044   2.956   1.224 -0.7016  1.1915  0.7293
17809TIP3   OH274917   4.605   4.539  14.181  0.2333  0.0402  0.3762
17809TIP3    H174918   4.517   4.570  14.160 -0.1748 -1.0682  0.3767
17809TIP3    H274919   4.604   4.529  14.276  0.0281 -0.9023  0.2841
17810TIP3   OH274920   3.466   0.840  16.250  0.2923 -0.0647 -0.4622
17810TIP3    H174921   3.476   0.781  16.325 -1.5905  1.3427  0.9933
17810TIP3    H274922   3.391   0.806  16.201  1.2905 -0.7697 -1.5416
17811TIP3   OH274923   2.123   4.477  12.733  0.0887 -0.0545  0.1740
17811TIP3    H174924   2.043   4.513  12.693 -0.6272 -1.6060  0.1328
17811TIP3    H274925   2.194   4.508  12.676 -0.4857  1.2087  0.1169
17812TIP3   OH274926   1.996   0.035  16.151 -0.5779 -0.7888 -0.5187
17812TIP3    H174927   1.983   0.092  16.228 -0.8184 -2.0373  0.3907
17812TIP3    H274928   1.916   0.044  16.100  0.0236  0.9081 -1.2331
17813TIP3   OH274929   4.024   1.623   3.668 -0.0655  0.1037 -0.5383
17813TIP3    H174930   4.087   1.628   3.596 -0.2049  0.4245 -0.6367
17813TIP3    H274931   3.951   1.679   3.641 -0.6392 -0.6782 -0.6652
17814TIP3   OH274932   4.035   2.907  12.452  0.2562  0.8054  0.5486
17814TIP3    H174933   4.125   2.915  12.484  1.2226 -0.1469 -1.7253
17814TIP3    H274934   4.023   2.814  12.437 -0.3456  1.1272 -1.1757
17815TIP3   OH274935   1.516   4.416   4.632 -0.4488 -0.1922 -0.4010
17815TIP3    H174936   1.422   4.430   4.635 -0.2247  1.5937 -0.5265
17815TIP3    H274937   1.531   4.340   4.688 -1.7594  0.7982  1.4119
17816TIP3   OH274938   4.813   3.661  14.165 -0.2581  0.3242 -0.4838
17816TIP3    H174939   4.779   3.583  14.211 -0.2540  1.2739  1.2287
17816TIP3    H274940   4.825   3.632  14.075  0.2804 -1.8293  0.2126
17817TIP3   OH274941   2.153   0.994  11.839 -0.5301 -0.2471 -0.4378
17817TIP3    H174942   2.175   0.922  11.780 -0.8497 -0.1572 -0.6748
17817TIP3    H274943   2.060   1.012  11.821 -0.1829  0.9602 -1.1866
17818TIP3   OH274944   0.125   5.615  11.991 -0.2204  0.0965  0.4158
17818TIP3    H174945   0.153   5.600  11.901 -0.6764  3.7391 -0.4906
17818TIP3    H274946   0.047   5.671  11.983  1.0591  2.5194  2.9910
17819TIP3   OH274947   2.864   3.235  14.707 -0.0196  0.3096  0.2968
17819TIP3    H174948   2.836   3.260  14.619 -0.5903  3.6129  1.2764
17819TIP3    H274949   2.922   3.306  14.735  1.9680 -1.7607  1.8287
17820TIP3   OH274950   1.345   0.482   6.140 -0.0210 -0.4072 -0.4104
17820TIP3    H174951   1.311   0.421   6.075 -0.8267 -0.4173  0.0054
17820TIP3    H274952   1.391   0.426   6.204 -0.8106 -0.5945  0.0032
17821TIP3   OH274953   6.511   0.741   3.126  0.4490  0.6088  0.2040
17821TIP3    H174954   6.561   0.703   3.198 -0.6470 -0.0384  0.6456
17821TIP3    H274955   6.563   0.724   3.048 -0.7978 -3.5425  0.0721
17822TIP3   OH274956   4.423   0.362   5.246  0.5418  0.1454  0.0546
17822TIP3    H174957   4.382   0.334   5.328  0.0439  0.9510  0.0884
17822TIP3    H274958   4.375   0.314   5.178  1.1672 -0.7672  0.2494
17823TIP3   OH274959   6.033   2.895  16.004  0.4109  0.2764  0.0185
17823TIP3    H174960   6.049   2.828  16.070  1.6176 -0.0940 -0.6130
17823TIP3    H274961   5.957   2.864  15.956  1.6960 -1.3512 -1.0867
17824TIP3   OH274962   1.462   4.343  12.853 -0.0979 -0.4775  0.1092
17824TIP3    H174963   1.433   4.255  12.877  1.0494 -0.8282  0.2574
17824TIP3    H274964   1.446   4.348  12.759 -0.7702 -0.5956  0.2071
17825TIP3   OH274965   5.016   6.240  13.628 -0.6485  0.2940  0.6880
17825TIP3    H174966   5.044   6.277  13.712 -0.6924 -2.1058  1.8451
17825TIP3    H274967   5.080   6.171  13.610 -1.8723 -0.6700 -0.1417
17826TIP3   OH274968   2.992   3.651  12.750 -0.2469  0.7016 -0.1544
17826TIP3    H174969   3.065   3.594  12.773 -1.0301  0.3508  1.6140
17826TIP3    H274970   3.025   3.704  12.677  1.3509 -0.2560 -0.1704
17827TIP3   OH274971   1.725   0.081  14.117 -0.3257  0.2391  0.7530
17827TIP3    H174972   1.638   0.063  14.154 -0.8820  0.0039 -0.5931
17827TIP3    H274973   1.752  -0.003  14.078  1.2364 -0.1388  2.5295
17828TIP3   OH274974   6.003   4.326  12.183 -0.5190  0.2270 -0.0060
17828TIP3    H174975   5.988   4.406  12.232 -0.3129  1.0858 -1.3119
17828TIP3    H274976   6.094   4.302  12.204 -0.5941  0.3031  0.4184
17829TIP3   OH274977   5.128   3.608  12.828  0.2157 -0.4931 -0.3914
17829TIP3    H174978   5.122   3.514  12.812  1.0856 -0.6683  0.2788
17829TIP3    H274979   5.158   3.644  12.744 -1.4398 -0.6215 -1.0829
17830TIP3   OH274980   6.303   3.808  16.983 -0.4409 -0.2626  0.1474
17830TIP3    H174981   6.306   3.787  17.077 -1.3339 -1.1798 -0.0102
17830TIP3    H274982   6.254   3.735  16.944 -0.7575  0.5017 -0.9215
17831TIP3   OH274983   6.791   5.316   2.996  0.1501 -0.0078  0.5186
17831TIP3    H174984   6.846   5.238   3.000 -0.4482 -0.7019 -2.2985
17831TIP3    H274985   6.754   5.315   2.907 -2.3851  1.7855  1.4133
17832TIP3   OH274986   4.895   6.043  16.760 -0.0070  0.1941  0.0808
17832TIP3    H174987   4.980   6.081  16.783  0.1198 -0.1537  0.1930
17832TIP3    H274988   4.831   6.110  16.785  0.3189  1.2490 -1.6893
17833TIP3   OH274989   2.698   1.609  15.021 -0.3074 -0.3446 -0.2054
17833TIP3    H174990   2.711   1.526  15.066  1.8150  0.3404  0.5408
17833TIP3    H274991   2.738   1.675  15.079  2.3706  0.6202 -2.8755
17834TIP3   OH274992   3.794   3.269  13.876 -0.1199 -0.1717  0.0405
17834TIP3    H174993   3.819   3.259  13.968  1.0638 -2.7507 -0.4751
17834TIP3    H274994   3.744   3.190  13.856  1.0101 -0.4431 -1.9463
17835TIP3   OH274995   1.765   4.116   2.396  0.6881 -0.2426 -0.8683
17835TIP3    H174996   1.847   4.116   2.346  1.9421 -0.2584  1.0403
17835TIP3    H274997   1.781   4.054   2.467 -0.8246  0.0963 -0.1913
17836TIP3   OH274998   3.618   0.730   5.400 -0.2854  0.3268 -0.0720
17836TIP3    H174999   3.702   0.713   5.359  0.7414  0.8614  1.7132
17836TIP3    H275000   3.589   0.645   5.432 -0.3872  0.1624 -0.5864
17837TIP3   OH275001   2.150   2.261   5.179  0.2017 -0.3751 -0.0459
17837TIP3    H175002   2.088   2.261   5.107  0.1369  1.9103 -0.0624
17837TIP3    H275003   2.211   2.332   5.159  0.0527  0.4851  2.2042
17838TIP3   OH275004   6.436   0.229  14.724 -0.3324 -0.1022  0.3981
17838TIP3    H175005   6.523   0.256  14.694  0.2165 -1.1188  1.0074
17838TIP3    H275006   6.408   0.300  14.781  0.8607 -0.5317  1.5761
17839TIP3   OH275007   5.249   3.923   5.795  0.8288  0.4595 -0.1157
17839TIP3    H175008   5.326   3.870   5.813  0.6539  0.4760  0.7168
17839TIP3    H275009   5.264   4.004   5.843  0.0934  0.2864  0.4114
17840TIP3   OH275010   2.503   1.334  15.468 -0.6761 -0.0673 -0.3406
17840TIP3    H175011   2.546   1.265  15.417  0.3532 -1.7270  2.5759
17840TIP3    H275012   2.544   1.415  15.436  1.0528 -1.1526 -1.0841
17841TIP3   OH275013   4.068   0.023  17.224  0.3447 -0.3964 -0.0884
17841TIP3    H175014   3.985   0.026  17.176 -1.9997 -0.8529  3.4971
17841TIP3    H275015   4.112  -0.055  17.190 -0.7972 -0.3124 -1.9162
17842TIP3   OH275016   1.181   3.770   0.367  0.1979 -0.2729 -0.1375
17842TIP3    H175017   1.173   3.820   0.448  1.3094  0.8717 -0.7058
17842TIP3    H275018   1.265   3.797   0.329  1.0004 -2.7788 -0.3553
17843TIP3   OH275019   5.265   3.458  15.601  0.3354 -0.2593 -0.0186
17843TIP3    H175020   5.200   3.447  15.531 -0.0524  1.1174  0.0970
17843TIP3    H275021   5.217   3.436  15.681  0.6390 -1.3503 -0.1239
17844TIP3   OH275022   6.719   5.506   3.975  0.3103 -0.1389 -0.3316
17844TIP3    H175023   6.787   5.560   4.015  0.0982 -0.0275 -0.1234
17844TIP3    H275024   6.750   5.492   3.885  1.0014 -0.7603 -0.0072
17845TIP3   OH275025   6.336   4.794   3.272  0.2530  0.1523  0.3881
17845TIP3    H175026   6.303   4.765   3.357  1.0628  0.7688  0.9367
17845TIP3    H275027   6.379   4.877   3.291  0.4998  0.2668 -0.6218
17846TIP3   OH275028   0.757   2.141  13.243 -0.4119 -0.5932 -0.3228
17846TIP3    H175029   0.741   2.175  13.154 -1.2883  0.0569  0.0691
17846TIP3    H275030   0.851   2.125  13.245 -0.0091  1.4420 -0.6766
17847TIP3   OH275031   2.417   6.230  12.310 -0.0958  0.0791 -0.0424
17847TIP3    H175032   2.467   6.177  12.248 -0.8613 -0.4334 -0.2342
17847TIP3    H275033   2.418   6.318  12.272 -1.0567 -0.3502 -1.1047
17848TIP3   OH275034   0.147   0.608   1.471  0.2591  0.8262  0.5719
17848TIP3    H175035   0.081   0.652   1.525  0.7813  1.6628  0.5499
17848TIP3    H275036   0.096   0.553   1.411 -0.3652  0.6261  1.2735
17849TIP3   OH275037   5.712   2.856  16.583  0.3626  0.3566  0.0825
17849TIP3    H175038   5.660   2.782  16.614 -0.1808  0.7953  0.2252
17849TIP3    H275039   5.759   2.886  16.661  0.9388 -0.1137 -0.0703
17850TIP3   OH275040   6.269   3.846   2.579 -0.3769  0.2323  0.1859
17850TIP3    H175041   6.306   3.905   2.644 -1.5418  1.5773 -0.3089
17850TIP3    H275042   6.190   3.811   2.621 -0.3819  0.0155 -0.0034
17851TIP3   OH275043   3.494   3.874   2.321 -0.1249 -0.0281  0.2217
17851TIP3    H175044   3.450   3.927   2.388 -0.1897 -0.0837  0.2235
17851TIP3    H275045   3.435   3.877   2.246  0.1762  0.4360 -0.0045
17852TIP3   OH275046   4.669   5.440  16.030 -0.0876 -0.1063  0.3617
17852TIP3    H175047   4.713   5.415  15.948 -2.0875 -0.5925 -0.6463
17852TIP3    H275048   4.618   5.518  16.007  0.7966  0.8993  1.6863
17853TIP3   OH275049   3.169   5.678   1.889 -0.7928 -0.3075 -0.0599
17853TIP3    H175050   3.081   5.641   1.885 -0.9348  0.1059 -0.9102
17853TIP3    H275051   3.216   5.636   1.817  1.1206 -4.0158  2.9603
17854TIP3   OH275052   4.428   2.197  14.470 -0.6519  0.0057  0.3555
17854TIP3    H175053   4.348   2.247  14.485 -0.3959  0.2269  1.0400
17854TIP3    H275054   4.418   2.119  14.525 -0.6545 -0.2526 -0.0102
17855TIP3   OH275055   6.030   4.039  13.902 -0.6786  0.4659  0.2630
17855TIP3    H175056   5.991   4.055  13.988 -2.2438  1.1532 -0.5361
17855TIP3    H275057   5.971   4.083  13.840 -0.0382 -0.6984 -1.2375
17856TIP3   OH275058   4.789   1.744  17.215  0.2974  0.2326 -0.4184
17856TIP3    H175059   4.828   1.777  17.296  1.8659 -2.2829 -0.0510
17856TIP3    H275060   4.805   1.650  17.217 -1.6652 -0.2402 -2.5958
17857TIP3   OH275061   3.244   2.135  16.761  0.1497  0.0044 -0.2124
17857TIP3    H175062   3.277   2.089  16.839  0.9413 -1.4860 -1.3798
17857TIP3    H275063   3.153   2.154  16.781 -0.0475 -1.5865  0.5609
17858TIP3   OH275064   1.839   1.910  17.166  0.3555 -0.7742 -0.2365
17858TIP3    H175065   1.926   1.948  17.155  0.9405 -1.6738  0.9932
17858TIP3    H275066   1.789   1.978  17.212  0.3551 -0.2044 -1.0641
17859TIP3   OH275067   2.114   0.900  15.997  0.2962 -0.5799 -0.5771
17859TIP3    H175068   2.047   0.891  16.064  0.6338  1.0471  0.0396
17859TIP3    H275069   2.076   0.958  15.932  0.7721 -0.3667 -0.6725
17860TIP3   OH275070   2.210   1.626   0.566 -0.2459  0.0020 -0.1688
17860TIP3    H175071   2.213   1.685   0.642  1.1771  0.1998 -0.3485
17860TIP3    H275072   2.134   1.571   0.582 -0.5301  0.6695  0.9280
17861TIP3   OH275073   2.675   4.459   4.473 -0.0382 -0.2777 -0.1645
17861TIP3    H175074   2.735   4.526   4.440 -1.3319  0.6665 -0.6743
17861TIP3    H275075   2.659   4.403   4.398  1.3271 -1.4204  0.3547
17862TIP3   OH275076   0.927   0.377  15.992  0.2744 -0.1515  0.4721
17862TIP3    H175077   1.017   0.381  16.024  0.0745 -0.8341  1.1267
17862TIP3    H275078   0.936   0.366  15.897  0.8682  2.2772  0.1812
17863TIP3   OH275079   6.315   1.608   3.219  0.3300 -0.0989  0.2146
17863TIP3    H175080   6.224   1.610   3.191 -0.5950 -0.4056  2.9320
17863TIP3    H275081   6.312   1.578   3.310  3.2580 -1.4358  0.0002
17864TIP3   OH275082   2.435   5.735  14.479 -0.2238  0.1806  0.1114
17864TIP3    H175083   2.428   5.796  14.552 -1.3684  2.1439 -1.5167
17864TIP3    H275084   2.413   5.650  14.516  0.1847  0.9453  2.2270
17865TIP3   OH275085   3.404   3.944  11.542  0.1538 -0.2047 -0.0643
17865TIP3    H175086   3.471   4.009  11.520 -0.9190 -0.0215 -3.4655
17865TIP3    H275087   3.327   3.996  11.564 -0.3513 -0.2652 -1.5661
17866TIP3   OH275088   5.275   1.157   1.796  0.2729 -0.0747 -0.0902
17866TIP3    H175089   5.283   1.236   1.742  0.8815 -1.6047 -2.3936
17866TIP3    H275090   5.334   1.094   1.755 -0.3501 -1.8118  1.5412
17867TIP3   OH275091   0.800   5.239   5.876  0.4798  0.2226 -0.4484
17867TIP3    H175092   0.812   5.151   5.839  2.5877 -0.8236  2.3253
17867TIP3    H275093   0.804   5.225   5.971 -0.4074  3.2001  0.1248
17868TIP3   OH275094   6.731   5.437  13.718  0.0691  0.2703  0.2650
17868TIP3    H175095   6.788   5.473  13.786 -2.6763 -0.5333  3.2786
17868TIP3    H275096   6.775   5.357  13.689  1.6300  0.9697  0.5984
17869TIP3   OH275097   3.804   5.100  15.569  0.0123 -0.0949  0.6641
17869TIP3    H175098   3.787   5.125  15.479 -1.1671  0.7506  1.1051
17869TIP3    H275099   3.775   5.175  15.621 -0.6551 -1.1276  1.8310
17870TIP3   OH275100   2.410   1.220   4.073 -0.4774 -0.1987 -0.9000
17870TIP3    H175101   2.325   1.261   4.056 -1.3771 -0.4780  2.3111
17870TIP3    H275102   2.470   1.294   4.086 -0.8423  0.0451 -0.5771
17871TIP3   OH275103   3.876   3.645   3.670 -0.3296  0.8881  0.4944
17871TIP3    H175104   3.911   3.727   3.634  0.3716 -0.4436 -2.1666
17871TIP3    H275105   3.781   3.653   3.661 -0.2782  1.4938  0.4515
17872TIP3   OH275106   6.164   0.563  11.454 -0.2517 -0.0102  0.1518
17872TIP3    H175107   6.222   0.521  11.517 -1.5661 -0.2069  1.2720
17872TIP3    H275108   6.193   0.531  11.369  1.4308  0.1068  0.6467
17873TIP3   OH275109   1.335   5.572  11.193 -0.5030  0.7225 -0.5148
17873TIP3    H175110   1.377   5.560  11.278  0.7255  1.8058 -0.9399
17873TIP3    H275111   1.342   5.487  11.150  0.4236  0.6404 -0.2076
17874TIP3   OH275112   4.379   0.712  15.388  0.4491  0.1200 -0.1281
17874TIP3    H175113   4.421   0.723  15.303  0.1650 -0.4288 -0.3446
17874TIP3    H275114   4.373   0.800  15.424 -0.1321  0.4563 -1.0163
17875TIP3   OH275115   0.096   1.664  16.339 -0.0377 -0.0303 -0.3492
17875TIP3    H175116   0.040   1.739  16.319 -0.3092 -0.6136 -1.9079
17875TIP3    H275117   0.072   1.640  16.428 -0.9653  0.8569 -0.3338
17876TIP3   OH275118   2.846   0.792   5.850 -0.2369  0.5271 -0.1443
17876TIP3    H175119   2.867   0.853   5.920  1.0530 -0.6384  0.5212
17876TIP3    H275120   2.762   0.754   5.875  0.1866  0.1653  0.7423
17877TIP3   OH275121   5.510   5.222   1.178 -0.5838  0.0517  0.4324
17877TIP3    H175122   5.479   5.284   1.244 -1.0709 -1.6651  1.8740
17877TIP3    H275123   5.444   5.226   1.108 -0.5984  1.1281  0.4888
17878TIP3   OH275124   3.436   3.290  11.550  0.2738 -0.4449  0.5732
17878TIP3    H175125   3.444   3.312  11.643 -1.6909  0.0857  0.6533
17878TIP3    H275126   3.482   3.207  11.540  1.8248  0.2358  1.6930
17879TIP3   OH275127   1.016   1.358  12.511 -0.1866 -0.1280  0.4839
17879TIP3    H175128   0.999   1.444  12.472 -0.3731 -0.4778 -0.2302
17879TIP3    H275129   1.021   1.299  12.436 -0.1185 -0.7499  0.9733
17880TIP3   OH275130   4.753   5.342  14.515  0.2230 -0.2758  0.4780
17880TIP3    H175131   4.681   5.316  14.573 -1.4309  0.4833 -1.1221
17880TIP3    H275132   4.722   5.318  14.427  1.3353  1.3165 -0.3920
17881TIP3   OH275133   2.518   3.441  13.066  0.1689 -0.2852  0.4203
17881TIP3    H175134   2.581   3.415  13.133 -0.6544 -0.5117  1.1121
17881TIP3    H275135   2.438   3.459  13.114 -0.1230  0.6167 -0.3878
17882TIP3   OH275136   2.649   0.077   0.902 -0.1447  0.2613 -0.1969
17882TIP3    H175137   2.583   0.090   0.970 -0.0125  1.7473 -0.3090
17882TIP3    H275138   2.637  -0.013   0.874 -1.4171  0.1773  0.5235
17883TIP3   OH275139   1.385   4.268  16.491 -0.1192  0.4087  0.1804
17883TIP3    H175140   1.338   4.252  16.409 -2.0762 -0.9202  1.4810
17883TIP3    H275141   1.331   4.332  16.537  0.0098 -0.1867  1.1837
17884TIP3   OH275142   3.829   1.366   2.462 -0.2056 -0.1660 -0.3574
17884TIP3    H175143   3.854   1.274   2.473 -1.6133 -0.5571 -0.2677
17884TIP3    H275144   3.823   1.400   2.551  1.4455  0.3665 -0.4095
17885TIP3   OH275145   5.440   5.961   5.959 -0.1605 -0.0956 -0.2976
17885TIP3    H175146   5.390   5.933   6.036  0.0664  0.1535 -0.0580
17885TIP3    H275147   5.531   5.947   5.984 -0.0227  1.1828 -0.0424
17886TIP3   OH275148   4.494   3.204   4.740 -0.5694  0.5334 -0.2886
17886TIP3    H175149   4.490   3.274   4.806 -1.3483 -0.6126  0.9386
17886TIP3    H275150   4.495   3.123   4.791 -1.5284 -0.4082 -1.6993
17887TIP3   OH275151   1.592   1.531  14.347  0.5671 -0.4256 -0.3530
17887TIP3    H175152   1.568   1.564  14.433  1.1896  1.2771 -0.7843
17887TIP3    H275153   1.620   1.441  14.362  0.9309 -0.0638  1.2793
17888TIP3   OH275154   5.012   6.109   3.182 -0.0963  0.1767  0.2996
17888TIP3    H175155   4.932   6.090   3.133 -0.2019  1.8086 -0.2264
17888TIP3    H275156   4.989   6.185   3.237  0.8094  0.0428  0.8841
17889TIP3   OH275157   3.013   4.664   3.143 -0.0310  0.7572 -0.1291
17889TIP3    H175158   2.939   4.691   3.090  0.2153  0.2275 -0.7470
17889TIP3    H275159   3.090   4.684   3.090  0.3324  2.0401  0.8173
17890TIP3   OH275160   0.959   3.603  11.855 -0.3453 -0.0738  0.0534
17890TIP3    H175161   0.966   3.678  11.913  1.5097  0.5326 -0.8537
17890TIP3    H275162   0.893   3.629  11.790 -0.0350  0.5954 -0.0040
17891TIP3   OH275163   3.474   4.153  16.244 -0.2980  0.0066  0.6173
17891TIP3    H175164   3.379   4.140  16.250 -0.4880 -0.1376 -1.7208
17891TIP3    H275165   3.512   4.074  16.282 -1.1951 -1.0789 -0.6463
17892TIP3   OH275166   1.455   4.808   1.332  0.1353  0.7901  0.5051
17892TIP3    H175167   1.458   4.776   1.241  2.3670  0.2296  0.7138
17892TIP3    H275168   1.474   4.901   1.326  1.5506  0.5186  0.4530
17893TIP3   OH275169   3.121   0.003  10.990  0.7452 -0.3839  0.0392
17893TIP3    H175170   3.182   0.077  10.991 -0.1247  0.3919 -1.3258
17893TIP3    H275171   3.075   0.011  10.907 -2.4186  0.0663  1.6850
17894TIP3   OH275172   1.963   5.594  17.034  0.4921 -0.2436  0.2817
17894TIP3    H175173   2.007   5.612  16.951  0.0325  0.1693  0.1154
17894TIP3    H275174   1.889   5.538  17.009 -1.0477  1.7710  0.0155
17895TIP3   OH275175   3.118   5.854  15.556 -0.0562 -0.1971  0.0914
17895TIP3    H175176   3.061   5.910  15.606  0.1176 -0.5825  0.7309
17895TIP3    H275177   3.129   5.899  15.472 -0.9196  0.0964  0.1345
17896TIP3   OH275178   2.213   3.328  15.394  0.2037 -0.2199 -0.1956
17896TIP3    H175179   2.263   3.308  15.473  0.2874  1.4700  0.2081
17896TIP3    H275180   2.274   3.311  15.322  1.5777  2.2364  0.3076
17897TIP3   OH275181   4.506   3.575  11.457  0.1318 -0.0395  0.0877
17897TIP3    H175182   4.560   3.592  11.534  0.0351  2.1508 -0.2769
17897TIP3    H275183   4.453   3.499  11.481  1.8176 -0.9250  1.2471
17898TIP3   OH275184   5.848   0.488  16.926  0.0296  0.2634 -0.1621
17898TIP3    H175185   5.756   0.463  16.919  0.4135 -1.0197 -1.1807
17898TIP3    H275186   5.852   0.546  17.002 -1.3234 -1.0863  0.9995
17899TIP3   OH275187   3.609   4.211   1.438 -0.5372 -0.3185  1.0384
17899TIP3    H175188   3.594   4.137   1.378  0.3830  0.3717 -0.0741
17899TIP3    H275189   3.703   4.213   1.451 -0.6333  0.1845  1.6921
17900TIP3   OH275190   0.386   3.932  16.037  0.0808  0.0221 -0.1211
17900TIP3    H175191   0.428   3.991  16.100  0.0921 -0.4349  0.3028
17900TIP3    H275192   0.444   3.856  16.033 -1.3151 -1.1989  1.4594
17901TIP3   OH275193   6.182   6.038  16.724  0.5113 -0.1783 -0.9997
17901TIP3    H175194   6.192   6.081  16.810 -0.8573 -1.7438 -0.0028
17901TIP3    H275195   6.215   6.102  16.662  2.1635  0.7702  0.7430
17902TIP3   OH275196   0.051   1.503  12.958 -0.3358 -0.0878 -0.4615
17902TIP3    H175197   0.014   1.434  13.013 -1.3343  0.0753 -0.9154
17902TIP3    H275198   0.066   1.461  12.873  1.2572 -0.3561 -0.0863
17903TIP3   OH275199   2.687   0.916  16.950  0.6605  0.1484  0.2625
17903TIP3    H175200   2.664   0.862  17.026  2.3395 -0.2768  0.5179
17903TIP3    H275201   2.720   0.998  16.987 -0.5449  0.8166 -0.0907
17904TIP3   OH275202   1.071   3.603   6.122 -0.3130 -0.5905 -0.9404
17904TIP3    H175203   1.048   3.670   6.186 -0.6531 -0.3341 -1.3221
17904TIP3    H275204   1.163   3.582   6.139 -1.1959 -2.9228  1.8068
17905TIP3   OH275205   4.635   0.240   6.184  0.2585  0.0111  0.3295
17905TIP3    H175206   4.632   0.298   6.107  0.0777  0.5473  0.7353
17905TIP3    H275207   4.687   0.165   6.155 -0.4541 -0.1642 -0.5698
17906TIP3   OH275208   1.444   4.410   6.415 -0.4191 -0.9032  0.2491
17906TIP3    H175209   1.534   4.382   6.428  0.3500  1.0586 -0.4689
17906TIP3    H275210   1.438   4.427   6.321 -0.1629  3.0852  0.7781
17907TIP3   OH275211   6.071   4.077   0.258  0.4596 -0.5458 -0.0349
17907TIP3    H175212   6.102   4.111   0.342  0.1615 -0.6968  0.1368
17907TIP3    H275213   6.077   4.151   0.198 -1.3053  0.1512  0.6104
17908TIP3   OH275214   4.628   2.523   1.124  0.3347  0.0964 -0.4087
17908TIP3    H175215   4.657   2.506   1.214 -1.8545  4.6901  1.5066
17908TIP3    H275216   4.543   2.479   1.118  0.4305 -0.1197 -0.1821
17909TIP3   OH275217   3.746   3.764  15.211  0.4640  0.2140 -0.2835
17909TIP3    H175218   3.730   3.858  15.211 -0.1935  0.2245  3.0392
17909TIP3    H275219   3.832   3.754  15.170  0.2265  2.1483 -1.3676
17910TIP3   OH275220   0.787   4.603   2.005  0.3411  0.3141  0.3845
17910TIP3    H175221   0.762   4.540   1.937 -0.7384 -0.2777  1.2969
17910TIP3    H275222   0.876   4.578   2.029  0.0532 -0.6513  0.4848
17911TIP3   OH275223   4.150   0.436   4.859  0.2948 -0.3009  0.4890
17911TIP3    H175224   4.128   0.504   4.923  2.0435  0.8734 -0.0646
17911TIP3    H275225   4.099   0.458   4.781  0.2783 -0.0668  0.5651
17912TIP3   OH275226   2.474   5.012   0.730  0.3394  0.1384 -0.4359
17912TIP3    H175227   2.549   5.006   0.788  1.0963 -1.6710 -1.5179
17912TIP3    H275228   2.498   5.078   0.665  1.3380 -0.8891 -1.1642
17913TIP3   OH275229   0.934   0.483  12.705 -0.2098 -0.0363  0.2453
17913TIP3    H175230   0.956   0.392  12.684 -1.1676 -0.2926  0.2753
17913TIP3    H275231   0.838   0.484  12.705 -0.2293  1.2651 -1.0805
17914TIP3   OH275232   2.730   0.978  13.769  0.3327 -0.1485 -0.7184
17914TIP3    H175233   2.825   0.961  13.770  0.4982  0.7753 -0.1477
17914TIP3    H275234   2.723   1.073  13.761 -0.5660 -0.3102 -2.4116
17915TIP3   OH275235   2.450   2.098   5.034 -0.2562  0.5905 -0.0208
17915TIP3    H175236   2.366   2.088   4.990  0.7516 -0.6635 -1.8235
17915TIP3    H275237   2.488   2.178   4.996 -0.2098  0.5824  0.0088
17916TIP3   OH275238   0.952   0.727   3.103 -0.0485 -0.3789 -0.0085
17916TIP3    H175239   1.006   0.783   3.047 -1.3596  0.6401 -0.2917
17916TIP3    H275240   1.003   0.718   3.184  0.6241  0.3891 -0.3315
17917TIP3   OH275241   1.680   5.925  13.712  0.0873 -0.1372  0.0301
17917TIP3    H175242   1.658   5.875  13.791  0.7042 -1.3522 -0.5370
17917TIP3    H275243   1.610   5.903  13.650  1.1518 -1.5839 -0.7393
17918TIP3   OH275244   3.577   1.241   4.641 -0.3640  0.1206 -0.3266
17918TIP3    H175245   3.570   1.264   4.734  0.8308 -1.9316  0.3504
17918TIP3    H275246   3.567   1.324   4.595 -2.2139  1.0466  1.5489
17919TIP3   OH275247   0.460   2.751  15.719  0.2322  0.3164  0.1855
17919TIP3    H175248   0.377   2.734  15.674  0.4494  0.1932 -0.1766
17919TIP3    H275249   0.525   2.703  15.668  0.3598 -0.6302  1.1951
17920TIP3   OH275250   5.517   2.150  11.589  0.3212 -0.3122  0.3356
17920TIP3    H175251   5.591   2.210  11.577  1.6922 -1.9471  0.2014
17920TIP3    H275252   5.447   2.205  11.625  1.6925  1.2350  0.7600
17921TIP3   OH275253   0.495   4.275   5.179  0.6123 -0.8383  0.0677
17921TIP3    H175254   0.559   4.344   5.194  0.2015  0.0801 -1.9714
17921TIP3    H275255   0.410   4.318   5.192  0.3612 -0.9741 -0.9790
17922TIP3   OH275256   1.845   6.272  14.982 -0.1235 -0.0852  0.1742
17922TIP3    H175257   1.893   6.341  14.937  0.3750 -0.5514 -0.0126
17922TIP3    H275258   1.755   6.305  14.988  0.1960  0.7460  0.4349
17923TIP3   OH275259   0.246   1.993   4.413 -0.2209  0.2685 -0.1661
17923TIP3    H175260   0.180   1.939   4.369 -1.4592  0.7119  1.0727
17923TIP3    H275261   0.220   2.083   4.394  1.1541  0.4625 -1.2447
17924TIP3   OH275262   2.812   2.253  11.825  0.3555 -0.1809  0.1837
17924TIP3    H175263   2.852   2.309  11.758  0.0024 -2.3657 -1.9664
17924TIP3    H275264   2.873   2.180  11.835  0.6878  0.3425  2.7575
17925TIP3   OH275265   6.068   3.649  14.608  0.7658 -0.0341 -0.0168
17925TIP3    H175266   5.989   3.607  14.644 -1.4995  2.5995 -1.5177
17925TIP3    H275267   6.103   3.699  14.682  0.5987 -0.6382  0.4833
17926TIP3   OH275268   5.679   1.482   5.166 -0.6199  0.3454 -0.2669
17926TIP3    H175269   5.698   1.415   5.232 -0.5902 -0.3013 -0.9176
17926TIP3    H275270   5.590   1.511   5.186 -0.3689  0.6449  0.4657
17927TIP3   OH275271   5.945   3.175  16.260 -0.2582 -0.1385 -0.2602
17927TIP3    H175272   6.014   3.201  16.321 -0.4518 -1.0083  0.3565
17927TIP3    H275273   5.876   3.140  16.316  0.4849 -3.1216 -1.0282
17928TIP3   OH275274   0.194   3.201  17.227 -0.0966  0.0050  0.1700
17928TIP3    H175275   0.184   3.207  17.322  1.1535 -0.2987  0.3372
17928TIP3    H275276   0.106   3.183  17.195 -0.3458 -1.1133  1.3902
17929TIP3   OH275277   0.416   3.230   6.348 -0.6326 -0.6564  0.2213
17929TIP3    H175278   0.403   3.166   6.417  0.4759  1.3335  2.4093
17929TIP3    H275279   0.510   3.244   6.344 -0.8150  0.6566 -0.3340
17930TIP3   OH275280   0.806   6.348  14.514 -0.7505 -0.7416 -0.5493
17930TIP3    H175281   0.824   6.274  14.572 -1.8313 -2.1081 -1.8793
17930TIP3    H275282   0.713   6.341  14.494 -1.2082  1.7919  0.3254
17931TIP3   OH275283   1.599   5.104   5.422  0.3147  0.1677 -0.6733
17931TIP3    H175284   1.536   5.166   5.383 -2.6449 -1.4930  1.0615
17931TIP3    H275285   1.646   5.157   5.487 -1.3296  0.9423 -0.0334
17932TIP3   OH275286   2.534   2.038   0.133 -0.5330 -0.1339 -0.5152
17932TIP3    H175287   2.485   2.108   0.090 -0.0640 -1.0292 -2.6157
17932TIP3    H275288   2.571   1.986   0.061 -0.1561 -2.0491  0.9708
17933TIP3   OH275289   4.136   3.951   1.881 -0.4296 -0.9078 -0.1506
17933TIP3    H175290   4.148   3.861   1.851 -1.0832 -0.9226 -0.3936
17933TIP3    H275291   4.047   3.953   1.916 -0.5968 -0.2434 -0.5868
17934TIP3   OH275292   3.112   5.841  16.415 -0.1392 -0.0186 -0.2103
17934TIP3    H175293   3.169   5.838  16.492 -0.2298 -1.8804 -0.1707
17934TIP3    H275294   3.032   5.795  16.443 -0.8569  0.7693 -0.8997
17935TIP3   OH275295   4.621   1.278  14.592  0.4026  0.1296 -0.0992
17935TIP3    H175296   4.676   1.205  14.620  0.0526 -0.1933 -0.2412
17935TIP3    H275297   4.681   1.337  14.547  0.7785  0.1621  0.4286
17936TIP3   OH275298   3.307   3.443  15.075 -0.4641  0.2247  0.2026
17936TIP3    H175299   3.372   3.497  15.120  0.8715  0.2661 -1.6631
17936TIP3    H275300   3.224   3.486  15.095 -0.1189 -0.2979  3.3338
17937TIP3   OH275301   0.053   4.361   5.045  0.4363 -0.7512 -0.3918
17937TIP3    H175302  -0.027   4.316   5.017 -1.9344  0.8806  3.0480
17937TIP3    H275303   0.038   4.453   5.022  0.6720 -0.2275  1.3600
17938TIP3   OH275304   0.684   3.291  15.206  0.1145  0.4223 -0.5423
17938TIP3    H175305   0.643   3.341  15.136  2.3333 -0.0117 -2.2718
17938TIP3    H275306   0.682   3.349  15.282 -2.7962  0.7150 -0.7352
17939TIP3   OH275307   3.815   4.800   5.455  0.1785  0.2749  0.4400
17939TIP3    H175308   3.784   4.890   5.462 -0.9799  0.1137 -1.8568
17939TIP3    H275309   3.865   4.786   5.536 -3.4620  1.4431  3.1831
17940TIP3   OH275310   3.124   5.501  15.095  0.3667 -0.5624  0.0948
17940TIP3    H175311   3.217   5.487  15.116  0.1508  0.3709  1.8869
17940TIP3    H275312   3.126   5.561  15.021  1.2368  0.4945  0.9306
17941TIP3   OH275313   1.971   1.980   5.770  0.6655 -0.0685  0.1831
17941TIP3    H175314   1.930   1.904   5.729 -1.3621  0.5486  0.9362
17941TIP3    H275315   2.062   1.954   5.785  0.1765 -2.1015 -0.1441
17942TIP3   OH275316   2.760   2.553  14.235 -0.1589  0.2407  0.5721
17942TIP3    H175317   2.777   2.584  14.324 -0.4367  1.4069  0.2352
17942TIP3    H275318   2.669   2.577  14.219  0.2990  1.3508 -0.5295
17943TIP3   OH275319   6.198   3.144   3.383 -0.4185 -0.2161 -0.4313
17943TIP3    H175320   6.239   3.138   3.297  1.7660  0.0892  0.5198
17943TIP3    H275321   6.147   3.225   3.380  1.8421  1.2696 -0.5906
17944TIP3   OH275322   3.926   1.072   5.814 -0.6868  0.5098  0.3935
17944TIP3    H175323   3.914   1.044   5.905 -0.1234 -0.2740  0.2300
17944TIP3    H275324   4.020   1.075   5.802 -0.7384  2.0009  0.2445
17945TIP3   OH275325   3.820   1.556  11.392  0.2233  0.0512  0.6774
17945TIP3    H175326   3.818   1.585  11.483  2.3018 -0.2611  0.8673
17945TIP3    H275327   3.810   1.637  11.341  1.2817  0.5260  1.1969
17946TIP3   OH275328   0.142   1.214  14.222  0.2935 -0.1161  0.1752
17946TIP3    H175329   0.107   1.227  14.310 -1.5007  0.8256 -0.6373
17946TIP3    H275330   0.129   1.298  14.178 -1.4375 -1.3574 -1.8526
17947TIP3   OH275331   3.598   3.069   1.259 -1.0756  0.5345  0.1563
17947TIP3    H175332   3.644   2.988   1.283 -1.6857  0.0302 -0.3377
17947TIP3    H275333   3.537   3.042   1.191 -1.2180  1.4397 -0.0825
17948TIP3   OH275334   1.329   4.080   4.891 -0.2930 -0.2955 -0.2190
17948TIP3    H175335   1.288   3.994   4.882 -2.5070  0.9091 -3.5560
17948TIP3    H275336   1.266   4.131   4.941 -0.1356  0.0215 -0.3421
17949TIP3   OH275337   2.983   4.414  14.838  0.8173  0.2314  0.5339
17949TIP3    H175338   3.044   4.433  14.767 -0.4341  0.7348 -0.4643
17949TIP3    H275339   2.986   4.319  14.848  0.3277  0.0417 -0.8874
17950TIP3   OH275340   6.730   0.853   1.905 -0.2492 -0.4132 -0.2254
17950TIP3    H175341   6.643   0.856   1.947  0.1317  0.7202  0.5232
17950TIP3    H275342   6.749   0.944   1.884  0.2996 -0.7905 -1.3857
17951TIP3   OH275343   3.031   0.450  15.567  0.6086  0.0012 -0.3618
17951TIP3    H175344   2.993   0.537  15.579  0.0863 -0.2437 -0.2137
17951TIP3    H275345   2.957   0.390  15.575  1.1271 -0.5327  0.5963
17952TIP3   OH275346   3.151   1.112   3.335 -0.1377  0.6783 -0.0538
17952TIP3    H175347   3.067   1.074   3.310  0.3864 -0.2056 -0.5310
17952TIP3    H275348   3.169   1.178   3.268 -1.1410  1.9481  0.8824
17953TIP3   OH275349   5.785   1.121  14.335  0.2955 -0.0166 -0.4187
17953TIP3    H175350   5.741   1.177  14.272  1.0855  1.4317  0.2671
17953TIP3    H275351   5.755   1.032  14.314 -0.4368  0.5721 -1.9806
17954TIP3   OH275352   4.553   0.573   2.779 -0.2653 -0.3116 -0.3081
17954TIP3    H175353   4.639   0.587   2.741 -0.5803 -1.1136 -1.3957
17954TIP3    H275354   4.513   0.506   2.722 -1.4584 -0.2062  0.3770
17955TIP3   OH275355   0.034   2.201   2.132  0.2074  0.2430  0.0059
17955TIP3    H175356   0.030   2.112   2.169  0.3076  0.0641 -0.4012
17955TIP3    H275357  -0.010   2.193   2.047 -1.2138  0.9468  0.6464
17956TIP3   OH275358   0.521   4.618   1.407 -0.2159  0.1255 -0.4439
17956TIP3    H175359   0.461   4.692   1.403 -0.1795  0.2215  0.5504
17956TIP3    H275360   0.576   4.627   1.329  0.4425  1.7077  0.1672
17957TIP3   OH275361   5.553   1.784   3.384 -0.1710  0.3018  0.0575
17957TIP3    H175362   5.544   1.810   3.292  0.2395 -0.4406 -0.1975
17957TIP3    H275363   5.519   1.859   3.433 -1.2903  0.3219 -0.7187
17958TIP3   OH275364   1.578   6.776  14.780  0.0043 -0.1882 -0.4147
17958TIP3    H175365   1.538   6.827  14.710 -0.1715 -1.1078 -1.0035
17958TIP3    H275366   1.542   6.813  14.861 -0.5653  0.2198 -0.8508
17959TIP3   OH275367   2.378   6.766  15.845 -0.2056 -0.4607  0.2418
17959TIP3    H175368   2.311   6.805  15.901 -1.4310 -1.5222 -0.4185
17959TIP3    H275369   2.461   6.786  15.888 -0.7360  2.6859  0.0102
17960TIP3   OH275370   5.567   5.217  15.895  0.7427 -0.6443  0.0314
17960TIP3    H175371   5.562   5.122  15.908  0.9592 -0.6345  0.1893
17960TIP3    H275372   5.483   5.240  15.857  0.8214 -0.9526 -0.3336
17961TIP3   OH275373   4.051   2.992   0.065  0.2615 -0.2558  0.3066
17961TIP3    H175374   4.028   3.085   0.074 -0.9452 -0.5444  0.2964
17961TIP3    H275375   3.973   2.952   0.027  1.3107 -1.0195 -1.1066
17962TIP3   OH275376   3.390   3.076  14.005 -0.2855 -0.7120 -0.2829
17962TIP3    H175377   3.382   3.079  14.100  0.8372 -1.4341 -0.1578
17962TIP3    H275378   3.389   2.983  13.984  0.8035 -0.5995 -0.8574
17963TIP3   OH275379   2.266   3.608  16.921 -0.3383 -0.1474 -0.5434
17963TIP3    H175380   2.353   3.578  16.895 -0.5254 -0.7649 -0.4715
17963TIP3    H275381   2.275   3.703  16.931  0.4607 -0.2658 -0.0353
17964TIP3   OH275382   5.189   3.746   5.307  0.3735 -0.5231  0.6029
17964TIP3    H175383   5.277   3.713   5.286  0.4026 -0.5950  0.8351
17964TIP3    H275384   5.200   3.841   5.309 -0.1599 -0.2956 -2.1890
17965TIP3   OH275385   6.788   2.116   2.430 -0.0409  0.5119 -0.8068
17965TIP3    H175386   6.753   2.027   2.442 -0.0917  0.5144 -0.9275
17965TIP3    H275387   6.714   2.166   2.396 -0.0936  0.6744 -0.4555
17966TIP3   OH275388   2.810   4.028   3.793 -0.2809 -0.1292  0.1365
17966TIP3    H175389   2.856   4.053   3.713 -1.0059  4.2675  0.8018
17966TIP3    H275390   2.739   3.971   3.763  0.0547  0.5938 -2.2527
17967TIP3   OH275391   1.108   6.175  16.568 -0.1761  0.6285  0.0696
17967TIP3    H175392   1.177   6.119  16.604 -1.3298 -0.2292  1.0695
17967TIP3    H275393   1.149   6.261  16.558  0.3329  0.9034  3.3424
17968TIP3   OH275394   1.323   3.601   0.989 -0.2696  0.3348 -0.0402
17968TIP3    H175395   1.340   3.510   0.968  3.9711  0.9088  0.1481
17968TIP3    H275396   1.335   3.648   0.907  1.5543  1.0644  0.6029
17969TIP3   OH275397   3.084   0.616   0.924  0.8284  0.0991 -0.9107
17969TIP3    H175398   3.071   0.703   0.962  3.2985 -0.4700  1.5702
17969TIP3    H275399   3.014   0.607   0.859 -0.3341  3.3565 -0.2836
17970TIP3   OH275400   1.168   1.152   1.510  0.3294  0.5422 -0.1575
17970TIP3    H175401   1.174   1.107   1.426  1.5884 -1.9824  1.1686
17970TIP3    H275402   1.250   1.131   1.555  0.1357  2.6570  1.3309
17971TIP3   OH275403   4.313   2.776  14.858 -0.0693 -0.1744  0.0668
17971TIP3    H175404   4.259   2.745  14.930 -2.4734 -0.1519 -1.5915
17971TIP3    H275405   4.320   2.871  14.872  2.8843 -0.6254  2.3355
17972TIP3   OH275406   6.343   5.648   2.632 -0.0143  0.6521 -0.2396
17972TIP3    H175407   6.397   5.604   2.697 -0.9595  0.4522  0.4337
17972TIP3    H275408   6.329   5.736   2.667  0.2410  0.8569 -0.6346
17973TIP3   OH275409   0.558   4.513   2.985  0.1620 -0.4588 -0.1094
17973TIP3    H175410   0.557   4.569   2.907  0.6159 -0.1656  0.0939
17973TIP3    H275411   0.562   4.424   2.950  0.0019 -0.3442 -0.4270
17974TIP3   OH275412   4.434   4.346   1.902 -0.4954  0.3827 -0.2329
17974TIP3    H175413   4.376   4.406   1.948  0.6009  0.0039  1.8106
17974TIP3    H275414   4.383   4.314   1.828 -1.0918  3.8770 -1.5507
17975TIP3   OH275415   4.889   3.228   0.239 -0.4569 -0.0890 -0.0408
17975TIP3    H175416   4.966   3.181   0.210 -1.8377 -1.4690 -1.7014
17975TIP3    H275417   4.923   3.298   0.295  1.8204 -1.8543  0.9552
17976TIP3   OH275418   5.190   4.108  14.007  0.3117 -0.4228  0.2547
17976TIP3    H175419   5.101   4.075  14.010  0.6776 -1.4270  0.3326
17976TIP3    H275420   5.245   4.030  14.000  1.3054  0.0412  2.3336
17977TIP3   OH275421   4.613   2.411  14.986  0.6086  0.1111  0.2368
17977TIP3    H175422   4.539   2.462  14.953  0.3089 -0.3492  0.1947
17977TIP3    H275423   4.611   2.329  14.937  1.0870  0.0494  0.3058
17978TIP3   OH275424   4.158   5.068   0.112  0.6541  0.4328 -0.2056
17978TIP3    H175425   4.176   5.017   0.191  2.8139  2.0890  0.4671
17978TIP3    H275426   4.079   5.118   0.133  1.2752  0.9486  0.9887
17979TIP3   OH275427   4.192   1.296   0.639 -0.3612  0.1022  0.2462
17979TIP3    H175428   4.098   1.305   0.654 -0.5406 -1.6086  0.3324
17979TIP3    H275429   4.213   1.364   0.575 -1.3816  1.3575  1.1874
17980TIP3   OH275430   0.470   1.394   4.654 -0.4090  0.3396 -0.6313
17980TIP3    H175431   0.534   1.335   4.614  0.7020  2.1888 -1.7923
17980TIP3    H275432   0.448   1.455   4.583  0.9056  3.1758  1.2299
17981TIP3   OH275433   2.226   3.156  12.276 -0.3241  0.2985 -0.1134
17981TIP3    H175434   2.276   3.095  12.331 -1.5881  0.3672  1.1932
17981TIP3    H275435   2.184   3.100  12.210  1.0243  0.1844 -0.9013
17982TIP3   OH275436   2.051   0.918   2.295  0.3407 -0.1865 -0.1565
17982TIP3    H175437   1.982   0.943   2.233 -0.0056 -1.8363 -0.4602
17982TIP3    H275438   2.010   0.927   2.381  0.1848  0.1638 -0.2645
17983TIP3   OH275439   3.034   3.211   1.438  0.2086 -0.0305 -0.0069
17983TIP3    H175440   3.066   3.125   1.412 -0.1160 -0.7621  1.8499
17983TIP3    H275441   2.946   3.216   1.402 -0.0916 -0.8537  0.5720
17984TIP3   OH275442   0.918   5.401  13.547 -0.4818  0.4833  0.0202
17984TIP3    H175443   0.988   5.356  13.499  0.9083  1.5080  0.9865
17984TIP3    H275444   0.920   5.362  13.635 -1.0875  0.5660  0.0735
17985TIP3   OH275445   5.647   4.444  16.180  0.1913 -0.2501  0.2702
17985TIP3    H175446   5.639   4.514  16.116  0.2386  0.1743  0.7276
17985TIP3    H275447   5.741   4.438  16.197  0.3912 -1.5688 -1.0202
17986TIP3   OH275448   0.912   2.585  12.265 -0.0188  0.3273 -0.6700
17986TIP3    H175449   0.833   2.541  12.297  1.0849 -0.1652  1.5764
17986TIP3    H275450   0.884   2.674  12.245 -0.6110  1.2711  3.4418
17987TIP3   OH275451   1.185   6.320  11.428 -0.2742  0.1676  0.2934
17987TIP3    H175452   1.244   6.375  11.480 -1.4000  0.3933  1.3865
17987TIP3    H275453   1.154   6.254  11.489 -0.3021 -0.6248 -0.5585
17988TIP3   OH275454   6.814   3.523   1.406 -0.0697 -0.3703  0.0752
17988TIP3    H175455   6.901   3.483   1.399  0.0730  0.0068 -0.3398
17988TIP3    H275456   6.830   3.613   1.433 -0.2883 -0.0926 -0.7037
17989TIP3   OH275457   0.088   6.036   5.252 -0.2541 -0.3028  0.1863
17989TIP3    H175458   0.032   6.074   5.320  0.5834  1.3250 -0.0010
17989TIP3    H275459   0.177   6.051   5.283  0.1664 -2.7604  0.4218
17990TIP3   OH275460   6.293   0.622   2.613 -0.6919  0.2696 -0.2620
17990TIP3    H175461   6.381   0.642   2.582 -0.4605 -1.0775 -0.5276
17990TIP3    H275462   6.306   0.558   2.684 -1.5068 -1.4710 -1.6098
17991TIP3   OH275463   4.625   4.947  15.689 -0.0759  0.6296 -0.2381
17991TIP3    H175464   4.605   5.022  15.633 -0.1882  0.2909 -0.6606
17991TIP3    H275465   4.661   4.986  15.769 -0.6334  1.1572 -0.2344
17992TIP3   OH275466   5.616   0.780   4.308  0.0346 -0.2979 -0.1423
17992TIP3    H175467   5.521   0.769   4.317  0.0898 -0.2530  0.5526
17992TIP3    H275468   5.652   0.694   4.331  0.1031 -0.7329 -1.7699
17993TIP3   OH275469   4.487   1.437   5.675  0.0214  0.0344  0.2519
17993TIP3    H175470   4.427   1.369   5.644  0.4322 -0.1040 -0.2492
17993TIP3    H275471   4.444   1.473   5.753 -1.2685  0.7096 -0.7296
17994TIP3   OH275472   3.861   2.029   4.876 -0.0743  0.2113  0.0375
17994TIP3    H175473   3.921   2.104   4.878  0.8141 -0.4774  2.1487
17994TIP3    H275474   3.830   2.020   4.966  1.4146 -3.1323  0.3835
17995TIP3   OH275475   4.226   5.309   0.418 -0.4411 -0.0267 -0.0380
17995TIP3    H175476   4.243   5.228   0.466 -0.7917 -0.8149 -1.2137
17995TIP3    H275477   4.308   5.328   0.372 -0.4951  0.0628 -0.0993
17996TIP3   OH275478   6.275   4.647  13.310 -0.3613  0.1900  0.0244
17996TIP3    H175479   6.242   4.676  13.225  1.1647  1.9885 -0.0347
17996TIP3    H275480   6.243   4.712  13.372 -0.5257 -0.4771  0.6568
17997TIP3   OH275481   6.105   6.385   4.603  0.2849  0.0784  0.0663
17997TIP3    H175482   6.146   6.432   4.530  0.7160  0.0260  0.2730
17997TIP3    H275483   6.122   6.439   4.680  1.0045 -0.5313  0.3483
17998TIP3   OH275484   1.801   3.400  11.321  0.1970 -0.3711  0.1024
17998TIP3    H175485   1.791   3.445  11.405 -0.0800  1.7762 -1.0112
17998TIP3    H275486   1.796   3.307  11.343  0.5237  0.1122  2.4946
17999TIP3   OH275487   0.365   0.728   3.151 -1.2583  0.0956 -0.2084
17999TIP3    H175488   0.352   0.813   3.194 -0.9874  0.0484 -0.0323
17999TIP3    H275489   0.376   0.666   3.222  1.7377  0.3865 -0.2679
18000TIP3   OH275490   5.594   2.293  14.034 -0.1038  0.3333  0.0438
18000TIP3    H175491   5.563   2.217  14.083  1.6866 -0.7188 -0.3631
18000TIP3    H275492   5.546   2.291  13.952  0.5309 -0.8960 -0.3231
18001TIP3   OH275493   2.547   3.679  10.388  0.0449 -0.1986  0.1583
18001TIP3    H175494   2.496   3.742  10.338 -2.7454 -0.0402  2.8693
18001TIP3    H275495   2.603   3.636  10.324 -1.3818  1.7246 -2.5584
18002TIP3   OH275496   0.075   2.719   4.066 -0.7132 -0.0218  0.3301
18002TIP3    H175497  -0.005   2.672   4.090 -0.7628 -0.8152 -1.2673
18002TIP3    H275498   0.134   2.651   4.033  0.0247  0.7765 -0.0435
18003TIP3   OH275499   5.125   3.102  11.197  0.3593  0.7366 -0.4760
18003TIP3    H175500   5.107   3.014  11.230  0.7720  0.8577  0.0964
18003TIP3    H275501   5.159   3.089  11.109 -0.5725  0.3888 -0.7899
18004TIP3   OH275502   1.391   0.638  14.861  0.2555  0.0981 -0.0923
18004TIP3    H175503   1.450   0.573  14.824 -0.6524  0.3955 -2.2452
18004TIP3    H275504   1.373   0.698  14.788 -2.2240  0.3476  0.6169
18005TIP3   OH275505   4.456   0.096   2.783 -0.0980 -0.5282  0.9653
18005TIP3    H175506   4.503   0.179   2.780 -0.2902 -0.4315  0.6118
18005TIP3    H275507   4.388   0.109   2.850 -0.1074 -0.4143  0.9333
18006TIP3   OH275508   0.515   3.110  14.529 -0.2530  0.0617 -0.2218
18006TIP3    H175509   0.496   3.161  14.450 -1.3941 -0.9316 -0.6223
18006TIP3    H275510   0.607   3.085  14.521 -0.0996  0.7743 -0.7559
18007TIP3   OH275511   1.731   0.014   1.187  0.1278  0.1102 -0.0384
18007TIP3    H175512   1.760   0.090   1.137 -0.2554 -0.5084 -1.2436
18007TIP3    H275513   1.778  -0.060   1.148 -0.7729 -0.4998  0.0026
18008TIP3   OH275514   2.874   5.493  10.625 -0.1643 -0.3863  0.3907
18008TIP3    H175515   2.939   5.423  10.633  1.2556  0.8107 -0.1102
18008TIP3    H275516   2.840   5.484  10.536  2.5426  1.5470 -0.9842
18009TIP3   OH275517   0.403   2.067   0.985 -0.5269  0.0413  0.3343
18009TIP3    H175518   0.449   2.105   1.060 -0.9257 -0.8693  1.0638
18009TIP3    H275519   0.384   2.141   0.928 -1.3489  0.9491  1.7473
18010TIP3   OH275520   4.286   2.666   2.478  0.2889 -0.3257  0.5117
18010TIP3    H175521   4.288   2.700   2.568 -0.4803 -0.9593  0.7746
18010TIP3    H275522   4.361   2.606   2.474  1.1739  0.7693  0.2859
18011TIP3   OH275523   5.951   5.193  17.090  0.4966  0.0370 -0.0373
18011TIP3    H175524   5.934   5.266  17.150 -1.0294 -0.9033  0.7384
18011TIP3    H275525   5.997   5.129  17.144  0.6460 -0.1145 -0.3474
18012TIP3   OH275526   5.856   5.016   1.544 -0.2828  0.3757 -0.1324
18012TIP3    H175527   5.903   5.098   1.562  0.2319  0.8197 -3.0362
18012TIP3    H275528   5.926   4.951   1.533 -0.4582  0.4016 -1.5551
18013TIP3   OH275529   3.111   6.299   5.971  0.2180 -0.4824 -0.2803
18013TIP3    H175530   3.045   6.341   6.027  0.5996  0.1221 -0.2688
18013TIP3    H275531   3.117   6.357   5.895  0.5596 -0.6645 -0.3916
18014TIP3   OH275532   2.521   0.314   0.021  0.2090 -0.5149 -0.4143
18014TIP3    H175533   2.450   0.317   0.085  1.5648  0.6195  1.1089
18014TIP3    H275534   2.493   0.372  -0.049 -1.9840 -2.9212 -1.7239
18015TIP3   OH275535   3.506   4.432   1.096  0.3842  0.4510 -0.2886
18015TIP3    H175536   3.566   4.495   1.137 -0.3540  0.1353  1.3399
18015TIP3    H275537   3.509   4.455   1.003  2.8703  0.5547 -0.2705
18016TIP3   OH275538   0.417   0.734  15.776 -0.2018 -0.3624 -0.5596
18016TIP3    H175539   0.510   0.715  15.790  0.0034 -1.8525 -3.4086
18016TIP3    H275540   0.375   0.648  15.770 -1.5790  0.2781 -0.5221
18017TIP3   OH275541   2.252   1.218   6.502  0.6773 -0.5163  0.0250
18017TIP3    H175542   2.234   1.171   6.584 -2.2459  0.2487 -0.0845
18017TIP3    H275543   2.211   1.165   6.434 -1.0722  1.1827 -0.3173
18018TIP3   OH275544   2.722   3.209   3.617  0.2472  0.7251 -0.0690
18018TIP3    H175545   2.750   3.178   3.703  0.6469 -0.0134 -0.4511
18018TIP3    H275546   2.766   3.294   3.607  4.1812 -1.2256 -1.4687
18019TIP3   OH275547   6.256   5.624   2.140 -0.0470 -0.3610  0.1250
18019TIP3    H175548   6.294   5.538   2.156  0.6872  0.2025  1.6832
18019TIP3    H275549   6.327   5.675   2.102 -0.3218 -0.2955 -0.3038
18020TIP3   OH275550   2.593   6.694  15.036  0.7900  0.1360  0.0452
18020TIP3    H175551   2.622   6.701  15.127  1.1150 -1.1554  0.0675
18020TIP3    H275552   2.503   6.661  15.043  0.0689  2.0054 -0.0738
18021TIP3   OH275553   1.691   5.480  12.916  0.7970  0.2869 -0.0549
18021TIP3    H175554   1.638   5.405  12.889 -0.8588  1.9993 -1.8343
18021TIP3    H275555   1.766   5.479  12.857 -0.4890  1.3839 -1.7986
18022TIP3   OH275556   3.545   0.726  11.563  0.0850 -0.0710  0.3376
18022TIP3    H175557   3.555   0.724  11.468 -2.2444  0.5447  0.0192
18022TIP3    H275558   3.570   0.639  11.592 -0.6698 -0.7753 -1.0397
18023TIP3   OH275559   3.674   4.473   0.504 -0.1927 -0.1686  0.0661
18023TIP3    H175560   3.657   4.560   0.541 -0.7338  0.0380 -0.6325
18023TIP3    H275561   3.692   4.489   0.411  0.4535 -0.7344  0.0876
18024TIP3   OH275562   6.118   5.595  12.916 -0.7167  0.1400 -0.3887
18024TIP3    H175563   6.118   5.653  12.992  0.5548 -1.3382  0.8086
18024TIP3    H275564   6.117   5.654  12.841  1.6050  1.8062  0.7572
18025TIP3   OH275565   6.545   2.705   6.724  0.6461 -0.3051  0.5743
18025TIP3    H175566   6.604   2.732   6.653  0.2853 -0.2011  0.3064
18025TIP3    H275567   6.516   2.786   6.764 -0.5559 -0.2551 -0.3275
18026TIP3   OH275568   5.095   3.521  15.826 -0.0137  0.1559 -0.6630
18026TIP3    H175569   5.021   3.536  15.766 -0.1930 -2.2469 -1.1220
18026TIP3    H275570   5.055   3.488  15.906  0.5089 -0.3191 -0.5938
18027TIP3   OH275571   3.509   2.657   3.120 -0.2766  0.0573  0.2405
18027TIP3    H175572   3.506   2.662   3.215  0.1121  1.0403  0.2120
18027TIP3    H275573   3.541   2.743   3.092  0.7644 -0.6048 -0.7151
18028TIP3   OH275574   0.075   0.448  11.603 -0.3907 -0.0006  0.6195
18028TIP3    H175575  -0.012   0.420  11.576 -1.0962  2.6973 -0.2272
18028TIP3    H275576   0.122   0.465  11.521  0.9113 -1.1920  1.0648
18029TIP3   OH275577   0.147   2.567  14.159  0.1882  0.3249 -0.0267
18029TIP3    H175578   0.145   2.609  14.073  2.4161  0.0610 -0.2731
18029TIP3    H275579   0.107   2.481  14.145  1.9247 -0.3389 -1.2232
18030TIP3   OH275580   5.884   1.642   2.815 -0.2271 -0.1250 -0.1636
18030TIP3    H175581   5.802   1.593   2.811 -0.1910 -0.3070  0.9721
18030TIP3    H275582   5.950   1.582   2.779 -0.4236 -0.3487 -0.1476
18031TIP3   OH275583   3.221   2.987  15.328 -0.1500  0.8435 -0.4971
18031TIP3    H175584   3.285   3.032  15.383  0.4249 -0.7468  0.2039
18031TIP3    H275585   3.136   3.005  15.369  0.0552  1.3170 -0.2723
18032TIP3   OH275586   5.061   0.289   0.258 -0.0344  0.0053 -0.3241
18032TIP3    H175587   5.041   0.322   0.170 -1.8552 -1.3042 -0.4506
18032TIP3    H275588   5.044   0.195   0.253  1.7787 -0.4442  0.9168
18033TIP3   OH275589   0.941   1.493   3.446 -0.0764  0.2299 -0.1213
18033TIP3    H175590   0.906   1.433   3.380 -0.0960  0.5478 -0.4007
18033TIP3    H275591   1.017   1.447   3.481 -0.9524 -0.6126  0.7316
18034TIP3   OH275592   4.460   0.302   0.864 -0.0275 -0.4330  0.0990
18034TIP3    H175593   4.456   0.221   0.814 -2.3227 -0.9124  0.9244
18034TIP3    H275594   4.477   0.273   0.954  1.3068  0.1951  0.0653
18035TIP3   OH275595   5.264   4.565  13.072  0.0611  0.8237 -0.3964
18035TIP3    H175596   5.194   4.561  13.007  0.1179  1.7040 -0.5296
18035TIP3    H275597   5.240   4.639  13.127 -0.5172 -0.5154  1.2295
18036TIP3   OH275598   2.692   1.015   4.139 -0.6149  0.4085  0.2200
18036TIP3    H175599   2.599   0.992   4.143 -0.4923 -0.1112  0.2179
18036TIP3    H275600   2.714   1.042   4.228 -0.6535  0.0636  0.3342
18037TIP3   OH275601   6.804   2.469  11.226 -0.2391  0.1267 -0.5559
18037TIP3    H175602   6.713   2.497  11.215 -0.7214 -0.6262  1.1993
18037TIP3    H275603   6.831   2.442  11.138 -1.5150  0.9139 -1.2199
18038TIP3   OH275604   1.153   6.070  14.078 -0.2588  0.7142 -0.1252
18038TIP3    H175605   1.112   6.070  13.992 -0.9908  0.3257  0.2105
18038TIP3    H275606   1.082   6.046  14.138  0.3522  0.5061  0.5261
18039TIP3   OH275607   6.045   0.979   4.960  0.3191  0.2008  0.1107
18039TIP3    H175608   6.038   1.034   5.038  1.4002 -1.6022  1.5799
18039TIP3    H275609   6.029   0.890   4.992 -1.2973 -0.4046 -2.1479
18040TIP3   OH275610   1.232   4.301  16.259 -0.0866 -0.1231  0.0936
18040TIP3    H175611   1.219   4.228  16.198  0.4592 -1.4571  1.5134
18040TIP3    H275612   1.293   4.359  16.214 -0.8325 -0.3229 -1.2272
18041TIP3   OH275613   2.799   4.909   5.638  0.6558 -0.0197 -0.1176
18041TIP3    H175614   2.714   4.902   5.595  1.0961  0.9864 -1.2070
18041TIP3    H275615   2.787   4.976   5.705  0.0317 -1.4249  1.2411
18042TIP3   OH275616   0.615   6.391   4.658  0.3242  0.4469 -0.1316
18042TIP3    H175617   0.589   6.399   4.566  0.8624  0.6635 -0.2708
18042TIP3    H275618   0.602   6.478   4.695  0.3895  0.4335 -0.0772
18043TIP3   OH275619   3.410   2.819  15.216  0.0450  0.6958 -0.3868
18043TIP3    H175620   3.390   2.886  15.281  2.3722 -0.5762  1.7983
18043TIP3    H275621   3.364   2.741  15.248  1.3021  0.0273 -0.1772
18044TIP3   OH275622   5.723   6.213  14.456  0.3287  0.1553  0.4809
18044TIP3    H175623   5.809   6.189  14.490  0.2491 -2.1158 -0.7332
18044TIP3    H275624   5.733   6.211  14.361 -1.5581 -2.6599  0.2182
18045TIP3   OH275625   0.475   6.571  16.106  0.1335  0.2146  0.6967
18045TIP3    H175626   0.514   6.654  16.133  0.7423  0.0850  0.2394
18045TIP3    H275627   0.550   6.513  16.090 -0.2519 -0.1581  0.1848
18046TIP3   OH275628   5.674   0.527   6.018  0.6261  0.0861 -0.4540
18046TIP3    H175629   5.664   0.621   6.035 -0.9663 -0.1456  0.1028
18046TIP3    H275630   5.768   0.512   6.020  0.9234  1.7253 -0.8545
18047TIP3   OH275631   6.743   1.694  17.185 -0.8854  0.4805 -1.1809
18047TIP3    H175632   6.741   1.716  17.278  0.1528  0.7736 -1.2221
18047TIP3    H275633   6.748   1.779  17.140  1.4250  0.2798 -1.3979
18048TIP3   OH275634   4.135   5.416  14.033  0.4482 -0.5079 -0.5682
18048TIP3    H175635   4.222   5.429  13.996  0.5276 -1.8515 -0.8925
18048TIP3    H275636   4.126   5.322  14.042 -0.0919 -0.2919  1.6201
18049TIP3   OH275637   1.910   5.725  15.447 -0.3937 -0.0415 -0.2349
18049TIP3    H175638   1.925   5.789  15.377  1.5023 -0.0744  0.1137
18049TIP3    H275639   1.929   5.773  15.527 -0.5172 -0.6167  0.1374
18050TIP3   OH275640   0.010   0.412  16.962  0.3784 -0.2662  0.4380
18050TIP3    H175641   0.098   0.375  16.962 -0.1109 -1.5287  2.1034
18050TIP3    H275642   0.012   0.479  17.030 -0.0636 -0.6377  0.8241
18051TIP3   OH275643   2.429   4.543  13.457  0.0244  0.0976  0.6450
18051TIP3    H175644   2.435   4.594  13.376  0.5134  0.1094  0.6826
18051TIP3    H275645   2.447   4.607  13.526 -0.6982  0.1515  0.7841
18052TIP3   OH275646   5.934   3.477  14.378  0.0005 -0.3998 -0.1509
18052TIP3    H175647   5.947   3.572  14.380  0.2119 -0.4185  2.3615
18052TIP3    H275648   5.880   3.458  14.455 -0.5974 -2.2515 -0.9676
18053TIP3   OH275649   4.948   2.067   2.777  1.1694  0.1077 -0.1857
18053TIP3    H175650   5.038   2.043   2.801  0.9934 -0.7303 -0.3297
18053TIP3    H275651   4.924   2.005   2.708  0.1194 -0.3498  0.5628
18054TIP3   OH275652   3.029   3.407   0.620  0.2501  0.4908 -0.1761
18054TIP3    H175653   2.998   3.413   0.530  1.0234  0.4424 -0.4589
18054TIP3    H275654   2.957   3.439   0.673 -1.0969 -1.5763 -0.6312
18055TIP3   OH275655   6.176   3.832  14.860 -0.0743 -0.1167  0.2811
18055TIP3    H175656   6.154   3.925  14.852 -1.2583 -0.4868 -1.5585
18055TIP3    H275657   6.249   3.829  14.921  2.1526  2.3938 -1.9768
18056TIP3   OH275658   0.038   3.334  11.126 -0.0757  0.0365 -0.1800
18056TIP3    H175659   0.070   3.374  11.206  0.2316 -2.3810  1.0133
18056TIP3    H275660   0.114   3.287  11.091 -0.3538  0.5951 -1.6213
18057TIP3   OH275661   6.273   1.489   1.969  0.2662 -0.1156 -0.2444
18057TIP3    H175662   6.289   1.513   2.060 -2.3659 -2.1918  0.8914
18057TIP3    H275663   6.304   1.399   1.962 -0.3102 -0.2545 -1.1432
18058TIP3   OH275664   0.908   5.927  11.982 -0.2201 -0.4238  0.2280
18058TIP3    H175665   0.884   5.929  11.889  0.4060  2.1336  0.0371
18058TIP3    H275666   0.847   5.988  12.024 -1.8011 -2.9960  1.9308
18059TIP3   OH275667   1.656   1.702  10.991 -0.0991 -0.2894  0.4409
18059TIP3    H175668   1.740   1.696  11.037  0.3994  1.4697 -0.1556
18059TIP3    H275669   1.651   1.793  10.961 -2.4469 -0.2041  0.8658
18060TIP3   OH275670   2.436   3.307  12.752 -0.2493  0.1516 -0.3643
18060TIP3    H175671   2.383   3.246  12.803  1.0917  0.5904  1.6498
18060TIP3    H275672   2.517   3.260  12.734  0.9634  1.4010  1.5541
18061TIP3   OH275673   5.021   1.412  14.709  1.0485  0.0509 -0.5523
18061TIP3    H175674   5.094   1.474  14.710  1.5317 -0.5089  0.0785
18061TIP3    H275675   5.059   1.330  14.742  0.1882 -0.3047 -0.4176
18062TIP3   OH275676   5.629   4.384   2.425 -0.1947 -0.8825  0.3603
18062TIP3    H175677   5.550   4.348   2.464 -0.6205 -1.3334 -0.8476
18062TIP3    H275678   5.609   4.476   2.410 -0.3646 -0.9148  0.3872
18063TIP3   OH275679   6.775   3.158   3.443  0.0306  0.0980 -0.9506
18063TIP3    H175680   6.724   3.101   3.385  0.3717  0.5779 -1.7364
18063TIP3    H275681   6.806   3.228   3.386  0.4257  0.5469 -0.1920
18064TIP3   OH275682   2.066   5.321  14.908  0.0438 -0.8327  0.4215
18064TIP3    H175683   1.974   5.331  14.884  0.6537 -0.5256 -1.9544
18064TIP3    H275684   2.073   5.365  14.993 -1.6885  0.5106 -0.0787
18065TIP3   OH275685   4.657   0.378   5.496 -0.0113 -0.0732  0.7026
18065TIP3    H175686   4.629   0.398   5.585 -0.6116 -1.0991  0.7623
18065TIP3    H275687   4.656   0.282   5.492 -0.6840 -0.0266 -0.6284
18066TIP3   OH275688   5.197   6.786  15.825  0.0092 -0.1881  0.3521
18066TIP3    H175689   5.156   6.761  15.908 -0.4342  1.2862  0.6172
18066TIP3    H275690   5.291   6.782  15.843 -0.0626 -0.8991  0.5969
18067TIP3   OH275691   5.945   0.433   0.299  0.6851  0.1373 -0.8108
18067TIP3    H175692   5.926   0.522   0.327  0.3833 -0.0223 -0.5043
18067TIP3    H275693   5.874   0.410   0.240 -0.7970 -0.8842  1.2571
18068TIP3   OH275694   1.476   1.694  16.030  0.2819 -0.1089  0.8961
18068TIP3    H175695   1.404   1.631  16.033  0.4878 -0.3060  2.3287
18068TIP3    H275696   1.519   1.677  15.946 -1.7988  0.5845 -0.4078
18069TIP3   OH275697   6.467   5.371  14.336 -0.0410 -0.2797  0.4415
18069TIP3    H175698   6.499   5.459  14.356 -1.6821  0.5749 -0.5067
18069TIP3    H275699   6.429   5.340  14.419  0.4234 -0.0552  0.7441
18070TIP3   OH275700   1.375   4.305   3.594  0.3933  0.0783 -0.4475
18070TIP3    H175701   1.292   4.258   3.601 -0.5735  1.6984 -0.3250
18070TIP3    H275702   1.442   4.239   3.607 -0.9004 -1.1390  0.3027
18071TIP3   OH275703   0.572   0.602  12.136 -0.2903  0.4625  0.1521
18071TIP3    H175704   0.578   0.685  12.183  0.2141  0.0183  0.8823
18071TIP3    H275705   0.653   0.597  12.085 -1.1367  1.2650 -1.3401
18072TIP3   OH275706   3.941   6.062  14.275 -0.2592 -0.5915  0.0582
18072TIP3    H175707   3.912   6.111  14.352  0.7910 -0.5810  0.4728
18072TIP3    H275708   3.957   5.973  14.308 -0.0144 -0.6413 -0.1879
18073TIP3   OH275709   5.961   2.013   4.255  0.1042  0.2250 -0.3641
18073TIP3    H175710   6.013   1.962   4.317 -0.3666 -0.6634 -0.6802
18073TIP3    H275711   5.985   1.977   4.169 -0.3638  0.4230 -0.5782
18074TIP3   OH275712   6.740   6.617   3.145  0.0390  0.4137  0.0953
18074TIP3    H175713   6.682   6.550   3.110  0.2690  0.8083 -1.0853
18074TIP3    H275714   6.744   6.599   3.239 -0.7834 -0.5336 -0.0372
18075TIP3   OH275715   2.773   3.715  13.138 -0.3572  0.1062 -0.3040
18075TIP3    H175716   2.772   3.655  13.064 -0.8851 -1.9811  1.3222
18075TIP3    H275717   2.866   3.731  13.155 -0.2095 -0.4175 -0.6170
18076TIP3   OH275718   2.733   6.136  13.536 -0.5354 -0.2317  0.2533
18076TIP3    H175719   2.798   6.206  13.521 -1.3196 -0.1490 -3.9152
18076TIP3    H275720   2.766   6.089  13.613  0.3565  4.2325  3.0035
18077TIP3   OH275721   3.242   0.264   3.350 -0.1448 -0.4683  0.3111
18077TIP3    H175722   3.297   0.304   3.416  0.1915 -2.1555  1.1095
18077TIP3    H275723   3.254   0.169   3.362 -0.7098 -0.8363 -1.6247
18078TIP3   OH275724   1.878   3.898  14.888  1.1177  0.7079 -0.2010
18078TIP3    H175725   1.926   3.832  14.839  1.9227  0.9361  0.2711
18078TIP3    H275726   1.789   3.893  14.853  0.7059 -1.8195  0.9921
18079TIP3   OH275727   0.918   2.816   0.678  0.4143 -0.0988  0.4323
18079TIP3    H175728   0.921   2.738   0.732 -0.0047 -0.4140  0.0109
18079TIP3    H275729   0.826   2.843   0.680  0.4950  0.1963  0.3133
18080TIP3   OH275730   4.613   3.770  13.616  0.2991 -0.1670  0.2401
18080TIP3    H175731   4.575   3.857  13.610  0.1744 -0.1120  1.6060
18080TIP3    H275732   4.707   3.785  13.630  0.3694 -0.2729 -0.0885
18081TIP3   OH275733   3.470   5.642  11.029  0.1287 -0.5235 -0.3153
18081TIP3    H175734   3.441   5.680  11.112  1.3520  1.5401 -0.7679
18081TIP3    H275735   3.392   5.642  10.974  0.3381  3.0540 -0.8458
18082TIP3   OH275736   2.985   3.838   3.616 -0.0888  0.3494 -0.3189
18082TIP3    H175737   2.890   3.831   3.605 -0.0666 -0.1244 -0.2145
18082TIP3    H275738   3.007   3.772   3.682  0.0262  1.9107  1.2761
18083TIP3   OH275739   4.592   4.307   6.228 -0.3493 -0.5759 -0.2764
18083TIP3    H175740   4.518   4.247   6.232 -0.5113 -0.4182 -0.8376
18083TIP3    H275741   4.567   4.372   6.162 -0.2546  0.2170  0.4551
18084TIP3   OH275742   1.400   4.275   0.496 -0.7348 -0.0953  0.5175
18084TIP3    H175743   1.354   4.355   0.470  0.6880  0.5292 -0.1873
18084TIP3    H275744   1.431   4.237   0.414  1.5399  0.4866  1.0470
18085TIP3   OH275745   3.853   2.797  12.057 -0.4485  0.1473 -0.4116
18085TIP3    H175746   3.773   2.845  12.035 -0.4077  1.1816  1.4726
18085TIP3    H275747   3.863   2.809  12.151  1.9232  0.0325 -0.5852
18086TIP3   OH275748   2.208   6.013  14.265  0.0330 -0.3800 -0.1400
18086TIP3    H175749   2.173   6.056  14.187 -0.9489 -1.6246 -0.4128
18086TIP3    H275750   2.300   6.037  14.266 -0.3278  1.2056 -0.6124
18087TIP3   OH275751   1.514   2.745  12.032 -0.2111  0.0205  0.1658
18087TIP3    H175752   1.605   2.767  12.016 -0.6562  0.8755 -1.4535
18087TIP3    H275753   1.516   2.660  12.074  1.3517  0.3390  0.7707
18088TIP3   OH275754   4.464   4.029  13.628 -0.2698 -0.1158 -0.1221
18088TIP3    H175755   4.422   4.093  13.571 -0.2923  0.4465  0.5130
18088TIP3    H275756   4.514   4.081  13.691  3.5753 -0.7616 -2.3644
18089TIP3   OH275757   0.764   2.439   4.347  0.3864 -0.0028 -0.1053
18089TIP3    H175758   0.719   2.514   4.308  0.7695  0.4841  0.3826
18089TIP3    H275759   0.708   2.413   4.420 -0.6810 -1.3295 -1.3047
18090TIP3   OH275760   0.807   4.939  17.162 -0.2264  0.4319  0.0321
18090TIP3    H175761   0.885   4.935  17.216 -0.6296 -1.0548  0.5633
18090TIP3    H275762   0.762   5.019  17.189  0.2056  0.3497  1.0172
18091TIP3   OH275763   6.100   6.434  15.462  0.1905  0.4142 -0.0207
18091TIP3    H175764   6.134   6.387  15.386 -0.4481  2.1189 -1.4433
18091TIP3    H275765   6.006   6.416  15.462 -0.2537  2.4007 -1.2196
18092TIP3   OH275766   0.826   0.590   5.585 -0.1994  0.1203  0.2567
18092TIP3    H175767   0.805   0.649   5.513  0.8794  1.7599  1.2160
18092TIP3    H275768   0.746   0.586   5.637 -1.0286 -1.1815 -1.0549
18093TIP3   OH275769   0.224   1.797  16.891 -0.0909 -0.1843  0.1763
18093TIP3    H175770   0.227   1.724  16.953 -1.0148 -0.1403  0.2955
18093TIP3    H275771   0.199   1.873  16.944 -0.9783 -0.1639 -0.2520
18094TIP3   OH275772   1.833   6.707   4.789  0.0346  0.0088 -0.1167
18094TIP3    H175773   1.914   6.656   4.794  0.4770  0.7582  0.7527
18094TIP3    H275774   1.792   6.680   4.707  0.5200 -1.3362  0.0722
18095TIP3   OH275775   1.292   0.481  15.155  0.2969  0.0571 -0.3862
18095TIP3    H175776   1.294   0.545  15.084  1.0061 -1.1047 -1.4499
18095TIP3    H275777   1.222   0.512  15.213 -0.7834  0.6836 -1.9387
18096TIP3   OH275778   4.957   4.393  12.496  0.2737 -0.3287  0.2488
18096TIP3    H175779   4.913   4.381  12.412  0.3727  2.4574 -0.2792
18096TIP3    H275780   5.048   4.371  12.479  0.2876  0.1846 -0.3868
18097TIP3   OH275781   2.564   6.270  14.758 -0.0963  0.6724  0.0540
18097TIP3    H175782   2.509   6.282  14.836 -0.7666  0.6178 -0.4016
18097TIP3    H275783   2.505   6.232  14.693  0.7246 -0.2975 -0.1511
18098TIP3   OH275784   3.392   2.274  10.972 -0.1976  0.2170 -0.2875
18098TIP3    H175785   3.446   2.197  10.990 -0.2289 -0.4613 -2.7752
18098TIP3    H275786   3.429   2.310  10.892 -1.1403  1.9458  0.0272
18099TIP3   OH275787   3.299   1.668   5.582  0.2686 -0.8329 -0.1335
18099TIP3    H175788   3.361   1.711   5.523  0.4144  0.4472  0.8958
18099TIP3    H275789   3.213   1.696   5.551  0.3937  2.4798  2.0274
18100TIP3   OH275790   6.759   6.187  15.110  0.0328  0.3458  0.2937
18100TIP3    H175791   6.846   6.151  15.097  0.0694 -0.1028  1.6156
18100TIP3    H275792   6.712   6.120  15.160 -1.1011  0.5436 -0.4750
18101TIP3   OH275793   1.708   1.735   4.814 -0.0621 -0.1136  0.2019
18101TIP3    H175794   1.690   1.656   4.865  2.5885 -1.4161 -0.6715
18101TIP3    H275795   1.717   1.804   4.880  2.4149 -1.5822  1.5608
18102TIP3   OH275796   0.127   2.187   0.608  0.1213  0.0190 -0.3722
18102TIP3    H175797   0.162   2.148   0.528 -1.0744  0.8564 -1.3467
18102TIP3    H275798   0.203   2.222   0.653  1.1973 -2.8343  0.2770
18103TIP3   OH275799   0.097   4.108  14.569 -0.5020 -0.2810 -0.7361
18103TIP3    H175800   0.189   4.115  14.597 -0.7807  0.0160  0.1416
18103TIP3    H275801   0.066   4.027  14.609 -1.3115  0.8650  1.0718
18104TIP3   OH275802   4.773   3.610   0.207 -0.4438 -0.7152  0.4540
18104TIP3    H175803   4.829   3.560   0.266 -0.5991  0.0955  1.3129
18104TIP3    H275804   4.780   3.565   0.123 -0.1520 -1.8480  1.0681
18105TIP3   OH275805   4.229   4.609  16.570 -0.1728 -0.4886  0.5700
18105TIP3    H175806   4.251   4.668  16.642 -1.4329  0.7514 -0.0251
18105TIP3    H275807   4.295   4.539  16.575  1.0084  0.6573  1.6367
18106TIP3   OH275808   4.702   0.396   2.517 -0.0138 -0.0799  0.4679
18106TIP3    H175809   4.779   0.379   2.571 -0.2140  0.3207  0.8786
18106TIP3    H275810   4.643   0.323   2.535  0.8821 -1.2341 -1.0101
18107TIP3   OH275811   6.771   0.316  15.077  1.1346  0.6669 -0.1629
18107TIP3    H175812   6.866   0.307  15.076  1.0986  0.3194 -0.7976
18107TIP3    H275813   6.745   0.286  15.164  1.4682 -0.6657 -0.5064
18108TIP3   OH275814   1.852   0.526   4.962  0.0220 -0.0780 -0.2891
18108TIP3    H175815   1.919   0.572   4.910 -1.5787  2.7525 -0.0686
18108TIP3    H275816   1.771   0.574   4.945 -1.0164 -0.2913  3.1751
18109TIP3   OH275817   3.295   0.401  13.251 -0.5175 -0.3890 -0.5389
18109TIP3    H175818   3.357   0.468  13.279 -3.0847  0.9788  2.3857
18109TIP3    H275819   3.225   0.449  13.207 -1.3003 -1.4428 -0.4936
18110TIP3   OH275820   3.080   0.957   4.434 -0.1061  0.3908 -0.4948
18110TIP3    H175821   3.060   0.870   4.469 -1.1253  0.0580 -1.8456
18110TIP3    H275822   3.087   0.944   4.340 -2.2939  2.1208 -0.9592
18111TIP3   OH275823   6.784   5.865   0.989  0.2033 -0.7235  0.1558
18111TIP3    H175824   6.859   5.823   1.032 -0.8787 -0.9844  1.9226
18111TIP3    H275825   6.780   5.824   0.903  0.5176 -2.6686  1.0057
18112TIP3   OH275826   3.315   3.691   1.473 -0.1731 -0.2098 -0.2405
18112TIP3    H175827   3.235   3.720   1.517  1.1449  1.0542  1.4642
18112TIP3    H275828   3.353   3.627   1.532  0.6504  0.0726 -0.4538
18113TIP3   OH275829   0.866   5.830   0.617 -0.0920 -1.0442  0.3239
18113TIP3    H175830   0.783   5.797   0.583 -1.0967  1.9484 -0.4024
18113TIP3    H275831   0.933   5.791   0.560 -1.3506 -0.2081 -1.7981
18114TIP3   OH275832   4.233   4.913   2.236 -0.2484  0.5076 -0.1276
18114TIP3    H175833   4.182   4.982   2.194 -0.7742 -0.2256 -0.7138
18114TIP3    H275834   4.273   4.864   2.164 -0.3266 -0.1292  0.2509
18115TIP3   OH275835   1.341   1.484  17.131  0.3751  0.0627  0.4689
18115TIP3    H175836   1.370   1.514  17.218 -2.8316 -0.9853  2.0804
18115TIP3    H275837   1.282   1.553  17.101 -0.3474 -0.6630  0.2118
18116TIP3   OH275838   5.049   4.331   2.773 -0.2026  0.1292 -1.0809
18116TIP3    H175839   5.102   4.376   2.838 -0.0367  1.1340 -1.8863
18116TIP3    H275840   4.978   4.291   2.823  1.0355 -0.8476 -0.0496
18117TIP3   OH275841   4.013   2.807   3.818  0.3519 -0.3140  0.0654
18117TIP3    H175842   3.980   2.851   3.739  0.1465  0.3120  0.4932
18117TIP3    H275843   4.083   2.864   3.850  0.8790 -0.9006 -0.0236
18118TIP3   OH275844   0.553   4.909   0.552  0.5750  0.1410  0.5568
18118TIP3    H175845   0.547   4.980   0.488  1.5851 -0.6841 -0.5002
18118TIP3    H275846   0.472   4.915   0.602  0.5720  1.9381  0.4038
18119TIP3   OH275847   6.749   1.475  15.541  0.3285  0.1734  0.1524
18119TIP3    H175848   6.712   1.390  15.560  1.7792 -0.6541 -0.5474
18119TIP3    H275849   6.775   1.509  15.627  1.1081 -0.7732  0.3139
18120TIP3   OH275850   6.603   4.763   5.820 -0.3177  0.2034  0.0414
18120TIP3    H175851   6.566   4.813   5.893  0.4372  1.6331 -0.5242
18120TIP3    H275852   6.548   4.787   5.745 -0.4114 -0.4137 -0.0943
18121TIP3   OH275853   6.049   3.667   5.269  0.5554 -0.3713  0.1358
18121TIP3    H175854   6.035   3.637   5.358 -1.5861 -1.1618 -0.4007
18121TIP3    H275855   6.089   3.592   5.224 -1.0327 -1.0663 -0.2111
18122TIP3   OH275856   6.661   4.173  13.316  0.0297  0.1381 -0.7702
18122TIP3    H175857   6.638   4.188  13.225 -0.0625 -2.0236 -1.1643
18122TIP3    H275858   6.755   4.156  13.315 -0.0421 -0.2981 -0.5351
18123TIP3   OH275859   6.726   5.411   4.498  0.4314  0.0048 -0.2164
18123TIP3    H175860   6.701   5.438   4.586  0.1692 -2.3469  0.4995
18123TIP3    H275861   6.649   5.366   4.464  1.3033 -1.1405 -0.7368
18124TIP3   OH275862   1.198   6.412  15.811 -0.0758 -0.3942 -0.0520
18124TIP3    H175863   1.120   6.371  15.848 -0.4957 -0.7824 -1.3102
18124TIP3    H275864   1.270   6.360  15.844 -0.1790  0.8603  2.3363
18125TIP3   OH275865   5.889   4.800  12.456 -0.1995  0.3600 -0.7302
18125TIP3    H175866   5.843   4.826  12.536 -1.7286 -1.8004 -0.8189
18125TIP3    H275867   5.830   4.738  12.413  0.5126  1.5508 -3.6586
18126TIP3   OH275868   1.054   4.166  14.060 -0.1227 -0.4109  0.3907
18126TIP3    H175869   1.056   4.233  14.128  3.1071 -0.9305  0.9903
18126TIP3    H275870   1.023   4.212  13.982 -0.3028  1.1686  1.3481
18127TIP3   OH275871   5.063   6.373  13.870 -0.2759  0.0622 -0.4080
18127TIP3    H175872   5.012   6.453  13.862 -2.1250 -1.1407 -1.4710
18127TIP3    H275873   5.049   6.345  13.961 -0.1900  0.5860 -0.2310
18128TIP3   OH275874   6.596   6.002   5.385  0.0401  0.3393 -0.3547
18128TIP3    H175875   6.615   5.935   5.450 -2.5590 -0.2371 -0.1130
18128TIP3    H275876   6.663   6.069   5.400  0.0124 -0.1299  2.3854
18129TIP3   OH275877   4.373   5.171   5.941  0.1458  0.0034 -0.4654
18129TIP3    H175878   4.375   5.253   5.892 -1.1230  0.4215  0.1351
18129TIP3    H275879   4.465   5.142   5.944  0.4990  0.9913 -1.3475
18130TIP3   OH275880   2.309   6.713  10.718  0.5790 -0.0007 -0.3978
18130TIP3    H175881   2.320   6.770  10.643 -0.0406 -1.5901 -1.7651
18130TIP3    H275882   2.316   6.624  10.682 -0.4588 -0.8240  1.2920
18131TIP3   OH275883   1.528   0.324   5.263  0.3809 -0.1716 -0.4071
18131TIP3    H175884   1.612   0.318   5.218  0.1419  0.6763 -0.9898
18131TIP3    H275885   1.540   0.396   5.325  0.3441 -0.5977  0.1028
18132TIP3   OH275886   1.350   6.238   5.934  0.3735  0.2172 -0.0290
18132TIP3    H175887   1.260   6.209   5.922 -0.3085  2.6903 -1.4804
18132TIP3    H275888   1.392   6.165   5.981 -2.4111 -0.8716  1.0014
18133TIP3   OH275889   5.545   6.030  15.553  0.2415  0.1212  0.2055
18133TIP3    H175890   5.469   6.028  15.611  0.4506 -1.4890  0.4777
18133TIP3    H275891   5.518   5.979  15.477  2.0006 -3.3222  1.6637
18134TIP3   OH275892   0.429   4.280   4.799 -0.5674 -0.0554  0.2018
18134TIP3    H175893   0.467   4.237   4.723 -1.3586  0.7533 -0.6813
18134TIP3    H275894   0.502   4.292   4.859  0.0754 -0.6843 -0.4369
18135TIP3   OH275895   3.290   2.772   3.908  0.0624 -0.0718 -0.0956
18135TIP3    H175896   3.276   2.692   3.858 -0.5726 -0.0416  0.0217
18135TIP3    H275897   3.369   2.755   3.960 -0.2464 -0.7373  0.1650
18136TIP3   OH275898   1.085   0.915  12.347 -0.4456  0.6196  0.4832
18136TIP3    H175899   1.038   0.997  12.360  1.3101  1.8647 -0.6189
18136TIP3    H275900   1.156   0.917  12.412  1.0280  1.1381 -1.0742
18137TIP3   OH275901   4.143   4.919   3.969 -0.0448 -1.1672 -0.6223
18137TIP3    H175902   4.082   4.865   4.020  0.4267 -0.5397  0.6284
18137TIP3    H275903   4.199   4.856   3.924  0.9390 -1.7497  1.3549
18138TIP3   OH275904   1.918   4.901   1.195 -0.0955  0.1023 -0.8622
18138TIP3    H175905   1.885   4.832   1.138 -0.9771  2.1023 -2.9429
18138TIP3    H275906   1.906   4.981   1.144  0.1421  1.8964  1.7390
18139TIP3   OH275907   5.035   6.519   5.712 -0.3968 -1.1245  0.2925
18139TIP3    H175908   5.046   6.610   5.686 -0.1437 -1.1419  0.3372
18139TIP3    H275909   4.974   6.522   5.786  1.0222 -0.8218  1.4791
18140TIP3   OH275910   2.242   0.524   4.161  0.2837  0.4243 -0.0101
18140TIP3    H175911   2.228   0.499   4.069  0.9201 -3.2059  0.7431
18140TIP3    H275912   2.334   0.551   4.164  0.1154  1.0736 -0.5317
18141TIP3   OH275913   1.905   5.785   1.749  0.2625 -0.5252 -0.2692
18141TIP3    H175914   1.950   5.702   1.737 -0.8783 -1.2725  0.3949
18141TIP3    H275915   1.892   5.792   1.843  1.5870  1.1132 -0.1653
18142TIP3   OH275916   4.807   6.718  14.703  0.4101 -0.1587 -0.3256
18142TIP3    H175917   4.720   6.739  14.737  1.6336  0.8028  2.5649
18142TIP3    H275918   4.805   6.748  14.612 -1.3854  2.7512  0.5137
18143TIP3   OH275919   5.623   1.724   1.598  0.0739 -0.0036 -0.3526
18143TIP3    H175920   5.661   1.672   1.527  1.0046  1.2331 -0.7955
18143TIP3    H275921   5.555   1.776   1.556  0.3016  0.3797 -0.2538
18144TIP3   OH275922   0.334   0.490  15.681  0.1646  0.2324 -0.6050
18144TIP3    H175923   0.356   0.402  15.650 -2.3040 -1.4082  1.7527
18144TIP3    H275924   0.249   0.509  15.643 -0.1199  0.8103  0.2688
18145TIP3   OH275925   0.748   3.043  14.937  0.2556 -0.2258  0.3447
18145TIP3    H175926   0.764   2.979  14.867  1.7763 -0.6308  1.0181
18145TIP3    H275927   0.693   3.109  14.896  0.6904 -0.7052 -1.1072
18146TIP3   OH275928   1.992   3.470  15.187  0.5020 -0.2126 -0.7498
18146TIP3    H175929   2.038   3.426  15.259  0.3831 -0.3837 -0.7781
18146TIP3    H275930   2.031   3.557  15.184  1.3567 -0.5956 -1.2539
18147TIP3   OH275931   6.816   4.487   4.434  0.0934  0.0065  0.1574
18147TIP3    H175932   6.751   4.515   4.499  0.9626  0.3949  0.8718
18147TIP3    H275933   6.842   4.400   4.461 -0.7286 -0.5054 -0.6174
18148TIP3   OH275934   5.800   6.505  16.608  0.0258  0.1851 -0.0295
18148TIP3    H175935   5.782   6.594  16.637 -3.9702 -1.4484  3.7111
18148TIP3    H275936   5.835   6.461  16.685 -1.6821 -2.2107 -0.4869
18149TIP3   OH275937   5.593   3.959  13.035  0.3284 -0.1188 -0.4437
18149TIP3    H175938   5.665   3.957  12.973  0.8855 -0.7071  0.2044
18149TIP3    H275939   5.635   3.968  13.121 -0.3235 -0.9449 -0.0146
18150TIP3   OH275940   4.241   1.114   5.051  0.3973  0.1832 -0.0877
18150TIP3    H175941   4.265   1.163   4.973 -0.3243 -0.1758 -0.5415
18150TIP3    H275942   4.180   1.047   5.021  0.8598 -0.5919  0.6289
18151TIP3   OH275943   2.167   0.733  12.839 -0.1490 -0.0387 -0.7162
18151TIP3    H175944   2.106   0.730  12.913  0.9677  0.5150  0.2636
18151TIP3    H275945   2.196   0.825  12.836 -0.6715  0.1008 -2.2687
18152TIP3   OH275946   3.307   0.632   6.432 -0.0538  0.2647 -0.2325
18152TIP3    H175947   3.286   0.724   6.444 -1.0015  0.1548 -0.9073
18152TIP3    H275948   3.225   0.592   6.403  0.4443 -0.7145 -0.3550
18153TIP3   OH275949   6.018   4.657   3.776 -0.3847 -0.7644 -0.8408
18153TIP3    H175950   5.993   4.742   3.812  0.6962 -0.7046 -0.1891
18153TIP3    H275951   5.959   4.644   3.701 -0.1896  0.8360 -1.3108
18154TIP3   OH275952   0.368   3.185   1.902 -0.6665 -0.1345  0.0458
18154TIP3    H175953   0.390   3.099   1.867  0.4241 -0.3806  1.2446
18154TIP3    H275954   0.403   3.247   1.839  0.0739 -0.5672  0.0235
18155TIP3   OH275955   6.540   4.158   1.627 -0.1708  0.1944 -0.3533
18155TIP3    H175956   6.601   4.159   1.553 -1.7949  0.0357 -1.7735
18155TIP3    H275957   6.479   4.087   1.606  2.2147 -3.5648  3.7164
18156TIP3   OH275958   4.176   6.441  16.071  0.1348 -0.3217  0.3437
18156TIP3    H175959   4.122   6.390  16.010 -0.0079 -0.5310  0.6408
18156TIP3    H275960   4.192   6.523  16.026 -0.9432 -0.0162  0.4922
18157TIP3   OH275961   5.048   4.837  13.087 -0.4074  0.0343  0.1624
18157TIP3    H175962   5.031   4.816  12.995  0.3744 -3.5325  0.7140
18157TIP3    H275963   5.112   4.908  13.083 -1.5308  1.0479 -1.9806
18158TIP3   OH275964   1.373   1.447   1.438  0.5792  0.7103  0.1847
18158TIP3    H175965   1.418   1.362   1.432  1.7431  1.3670 -0.9418
18158TIP3    H275966   1.443   1.511   1.450 -0.1816  1.6192 -0.0769
18159TIP3   OH275967   4.746   4.420   5.056  0.5370  0.1358  0.3884
18159TIP3    H175968   4.720   4.445   4.967 -0.6686 -1.1250  0.3469
18159TIP3    H275969   4.664   4.421   5.105  1.2767  1.3446  1.6446
18160TIP3   OH275970   4.070   1.005   1.296 -0.2230 -0.3777 -0.6070
18160TIP3    H175971   4.135   0.936   1.310  1.1265  0.8577 -0.5520
18160TIP3    H275972   4.117   1.086   1.316 -2.5068  0.4379  2.0090
18161TIP3   OH275973   1.098   1.398   2.060 -0.3109  0.2207 -0.1163
18161TIP3    H175974   1.168   1.356   2.110 -1.6875  0.0932  1.7816
18161TIP3    H275975   1.042   1.439   2.125 -2.4669 -0.3665 -1.4873
18162TIP3   OH275976   2.535   0.649  15.526  0.2076  0.5871 -0.3999
18162TIP3    H175977   2.555   0.583  15.460  1.9194  0.2831  0.3660
18162TIP3    H275978   2.539   0.603  15.609 -0.6551  1.2336  0.0200
18163TIP3   OH275979   1.532   2.185   5.120 -0.5311  0.0496 -0.2285
18163TIP3    H175980   1.517   2.278   5.106  0.0163 -0.1072 -1.9953
18163TIP3    H275981   1.623   2.179   5.149 -0.7049  0.0912  0.3402
18164TIP3   OH275982   4.575   4.547   4.005  0.6762  0.1285  0.0953
18164TIP3    H175983   4.534   4.616   4.058 -1.5664 -2.3299  1.8052
18164TIP3    H275984   4.501   4.501   3.965  1.7915 -3.1308  1.4906
18165TIP3   OH275985   5.741   2.831   3.517  0.2474  0.1671  0.2854
18165TIP3    H175986   5.778   2.823   3.605  0.0337 -1.2563  0.2759
18165TIP3    H275987   5.814   2.857   3.462  0.4426  0.8127  0.8435
18166TIP3   OH275988   6.566   2.215   2.275  0.0102 -0.6021 -0.5910
18166TIP3    H175989   6.523   2.296   2.301 -0.1762 -0.4816 -1.2625
18166TIP3    H275990   6.566   2.217   2.179 -0.8137 -1.8205 -0.6392
18167TIP3   OH275991   2.616   3.986  14.467  0.1766  0.3445 -0.3457
18167TIP3    H175992   2.575   4.065  14.504  0.1606  0.8214 -1.3433
18167TIP3    H275993   2.704   4.015  14.441  0.5638 -0.2556  0.2903
18168TIP3   OH275994   6.382   4.139   1.859  0.8413 -0.5169 -0.4534
18168TIP3    H175995   6.448   4.182   1.806  0.6808 -0.0278 -0.2637
18168TIP3    H275996   6.367   4.199   1.932  0.9915 -1.1339  0.0928
18169TIP3   OH275997   3.322   1.343  16.559 -0.0008 -0.3756  0.1028
18169TIP3    H175998   3.387   1.386  16.504 -1.2770 -0.5682 -1.6394
18169TIP3    H275999   3.357   1.350  16.648  1.2216  1.6459 -0.4823
18170TIP3   OH276000   2.544   4.198  10.925  0.3220 -1.0329 -0.5540
18170TIP3    H176001   2.522   4.158  11.009  2.4102  1.4835  1.3652
18170TIP3    H276002   2.462   4.241  10.897  0.0464 -0.2772  1.2526
18171TIP3   OH276003   4.285   0.500   3.041 -0.2558  0.0188  0.3354
18171TIP3    H176004   4.221   0.569   3.060  0.2489  0.0584  2.0909
18171TIP3    H276005   4.365   0.531   3.084 -0.0951 -1.7829  1.4087
18172TIP3   OH276006   1.906   5.032   6.518 -0.3850 -0.0905  0.0335
18172TIP3    H176007   1.877   4.946   6.548 -0.0026  0.1233  1.0628
18172TIP3    H276008   1.927   5.020   6.426 -1.0201 -0.9249 -0.0100
18173TIP3   OH276009   3.263   1.845   3.438 -0.4615  0.1383 -0.1779
18173TIP3    H176010   3.187   1.792   3.415 -0.4170  0.3069 -0.7086
18173TIP3    H276011   3.264   1.917   3.375 -0.2312  0.4964  0.2262
18174TIP3   OH276012   4.495   6.402   1.585 -0.3704  0.3925  0.1528
18174TIP3    H176013   4.514   6.335   1.650  0.2387  1.5158  1.1674
18174TIP3    H276014   4.428   6.457   1.625  0.9654  1.8910  0.4451
18175TIP3   OH276015   2.327   1.569  14.241  0.5055 -0.4636  0.4610
18175TIP3    H176016   2.389   1.633  14.207 -1.5426  0.2393 -2.2666
18175TIP3    H276017   2.241   1.608  14.226 -0.7323 -1.9810  2.8619
18176TIP3   OH276018   5.168   4.652   4.932  0.8081 -0.2857 -0.1622
18176TIP3    H176019   5.104   4.583   4.945  0.7841 -0.3697 -0.7059
18176TIP3    H276020   5.118   4.723   4.891  0.3759  0.8285  2.1377
18177TIP3   OH276021   0.553   1.149  16.492  0.5957  0.4492  0.4045
18177TIP3    H176022   0.548   1.225  16.550 -3.1902 -0.7304  1.9265
18177TIP3    H276023   0.475   1.156  16.437  1.3603 -1.2127 -0.9726
18178TIP3   OH276024   3.779   1.245   1.832  0.3655 -0.3028 -0.0264
18178TIP3    H176025   3.778   1.172   1.771 -0.4746  0.9996 -1.6527
18178TIP3    H276026   3.784   1.204   1.919 -4.2991 -2.5665 -0.5177
18179TIP3   OH276027   0.321   2.622  11.392  0.1359  0.4781  0.3175
18179TIP3    H176028   0.297   2.714  11.404  1.2528  0.6182  1.5591
18179TIP3    H276029   0.382   2.622  11.318 -0.3219  0.6454 -0.0670
18180TIP3   OH276030   6.410   6.442   5.441 -0.1210 -0.1717  0.0239
18180TIP3    H176031   6.451   6.357   5.426 -1.0807 -0.4640 -1.1248
18180TIP3    H276032   6.478   6.506   5.422  0.0289 -0.6567 -1.1681
18181TIP3   OH276033   2.517   5.376  14.769 -0.3353  0.0528  0.3080
18181TIP3    H176034   2.477   5.350  14.852  1.8554  0.0894  1.4494
18181TIP3    H276035   2.508   5.300  14.712  0.2338 -0.8538  1.4054
18182TIP3   OH276036   5.166   0.297   0.896 -0.0381  0.1274  0.3653
18182TIP3    H176037   5.166   0.207   0.929 -1.0974  0.5423  1.6011
18182TIP3    H276038   5.224   0.295   0.820  0.8689 -1.3444  1.0513
18183TIP3   OH276039   4.619   3.850   0.939 -0.2186  0.4336  0.1572
18183TIP3    H176040   4.577   3.865   1.024 -2.2632 -1.4694 -0.4270
18183TIP3    H276041   4.658   3.763   0.946 -1.0096 -0.0374 -1.0520
18184TIP3   OH276042   1.007   2.362  16.755  0.1854  0.3797 -0.2385
18184TIP3    H176043   1.073   2.411  16.804  0.5851  1.1459 -1.5083
18184TIP3    H276044   1.010   2.274  16.792  0.7760  0.8240  0.8133
18185TIP3   OH276045   6.253   3.938   1.182  0.4569  0.6149 -0.1729
18185TIP3    H176046   6.343   3.967   1.170  0.6538  0.3769  0.6862
18185TIP3    H276047   6.260   3.862   1.240 -0.4674  1.8776  1.6728
18186TIP3   OH276048   3.910   3.479  15.356  0.0132  0.3370  0.0174
18186TIP3    H176049   3.819   3.465  15.327 -0.8839  1.1760  2.1708
18186TIP3    H276050   3.923   3.574  15.349  0.4994  0.2976  0.3595
18187TIP3   OH276051   0.061   4.548   4.700  0.6167 -0.3672 -0.3556
18187TIP3    H176052   0.066   4.453   4.708  0.3361 -0.3785 -0.3122
18187TIP3    H276053   0.148   4.579   4.725 -0.0178 -0.4232  2.2374
18188TIP3   OH276054   5.130   0.806  15.521  0.4822  0.4748  0.7468
18188TIP3    H176055   5.210   0.789  15.572  0.4169  1.1043  1.0670
18188TIP3    H276056   5.060   0.765  15.573  0.5751  0.0234  0.5248
18189TIP3   OH276057   6.379   5.383  17.079 -0.5306  0.6400  0.1055
18189TIP3    H176058   6.418   5.420  17.000 -0.5091  0.7283  0.1575
18189TIP3    H276059   6.446   5.324  17.114 -1.1022 -0.5864 -0.7835
18190TIP3   OH276060   1.125   6.226   0.265  0.7308  0.2433 -0.2269
18190TIP3    H176061   1.142   6.237   0.358  2.0344 -1.2930 -0.2209
18190TIP3    H276062   1.181   6.290   0.222 -0.5719  1.6037  0.0316
18191TIP3   OH276063   6.812   2.242  13.163  0.5330 -0.0234  0.4771
18191TIP3    H176064   6.750   2.297  13.211 -0.7835  0.1704 -1.3130
18191TIP3    H276065   6.897   2.263  13.200 -0.0837  2.2719  0.7337
18192TIP3   OH276066   6.614   5.722  16.749  0.4784 -0.2546 -0.3052
18192TIP3    H176067   6.610   5.817  16.757  0.3420 -0.1763 -1.2281
18192TIP3    H276068   6.629   5.706  16.656  0.5256 -1.1390 -0.1574
18193TIP3   OH276069   3.594   1.413   2.301  0.8608  0.0807 -0.3806
18193TIP3    H176070   3.544   1.332   2.307 -1.0929  1.3048  1.0125
18193TIP3    H276071   3.675   1.394   2.348 -0.5949 -0.3983  2.0915
18194TIP3   OH276072   2.864   5.379   4.795  0.5156 -0.3309  0.0441
18194TIP3    H176073   2.834   5.469   4.780 -0.0479 -0.5176  0.0299
18194TIP3    H276074   2.825   5.354   4.879  0.7385 -0.5339  0.0882
18195TIP3   OH276075   5.891   6.433  13.911  0.3333 -0.2558 -0.4599
18195TIP3    H176076   5.940   6.476  13.841 -0.8609  0.0237 -1.1486
18195TIP3    H276077   5.893   6.340  13.887 -2.2713  0.0691 -2.3743
18196TIP3   OH276078   0.136   2.993  14.125  1.1901 -0.1802 -0.2961
18196TIP3    H176079   0.058   3.046  14.109 -0.1161 -1.7327  0.6496
18196TIP3    H276080   0.170   3.024  14.209  1.2213  0.0560 -0.3948
18197TIP3   OH276081   5.329   6.147  14.051  0.0839 -0.3324  0.3066
18197TIP3    H176082   5.423   6.134  14.040  0.0229  0.0824 -0.8270
18197TIP3    H276083   5.322   6.225  14.107  0.4345  0.4905 -0.7586
18198TIP3   OH276084   1.377   1.569  15.323 -0.2543 -0.4175 -0.3367
18198TIP3    H176085   1.297   1.612  15.292 -0.3068 -0.6403 -0.5164
18198TIP3    H276086   1.426   1.639  15.366 -1.3506 -0.6526  1.3771
18199TIP3   OH276087   4.977   1.983  12.129 -0.7321  0.6722  0.1752
18199TIP3    H176088   5.002   2.074  12.141 -2.2762  1.0783  0.6349
18199TIP3    H276089   4.918   1.965  12.203  1.6601 -1.5566  1.6828
18200TIP3   OH276090   5.653   5.548   5.375 -0.4815 -0.4440 -0.3104
18200TIP3    H176091   5.639   5.521   5.284  0.3192 -0.6966 -0.3621
18200TIP3    H276092   5.577   5.513   5.422 -1.0382 -0.0768 -0.9258
18201TIP3   OH276093   2.233   5.170   4.515  0.1390  0.2309  0.4820
18201TIP3    H176094   2.202   5.110   4.447  2.2745 -0.2099 -0.1846
18201TIP3    H276095   2.324   5.187   4.492 -0.2692  3.5626  0.7791
18202TIP3   OH276096   3.508   4.785   6.438  0.3724 -0.0170 -0.1780
18202TIP3    H176097   3.447   4.768   6.367  0.0283 -0.2194  0.1677
18202TIP3    H276098   3.540   4.874   6.421  1.5047 -0.6242 -1.4811
18203TIP3   OH276099   0.136   1.430   4.368 -0.1599  0.2209  0.2573
18203TIP3    H176100   0.066   1.495   4.360  0.1842  0.5627 -0.0370
18203TIP3    H276101   0.132   1.382   4.285  0.4922  0.7949 -0.1159
18204TIP3   OH276102   4.795   1.335   0.268  0.1741 -0.1515 -0.0159
18204TIP3    H176103   4.827   1.276   0.336 -0.0952 -1.1275 -0.7138
18204TIP3    H276104   4.725   1.286   0.225 -0.2643  0.8054 -0.4177
18205TIP3   OH276105   2.053   2.733   0.126  0.5073  0.4359 -0.0306
18205TIP3    H176106   1.977   2.780   0.161  1.9123  0.6090  3.0686
18205TIP3    H276107   2.024   2.642   0.121  0.0310  0.5268  0.8972
18206TIP3   OH276108   0.228   2.197  16.543 -0.3265 -0.2002 -0.2825
18206TIP3    H176109   0.263   2.157  16.463 -1.6873  1.2108 -1.6325
18206TIP3    H276110   0.306   2.228  16.589  0.5754 -2.0888 -0.4250
18207TIP3   OH276111   4.972   3.918   6.523  0.7486  0.1128 -0.3099
18207TIP3    H176112   4.904   3.940   6.586  0.7715 -0.0734 -0.2188
18207TIP3    H276113   4.935   3.846   6.472  0.9007 -0.0329 -0.2166
18208TIP3   OH276114   3.752   1.876  13.171  0.2325  0.5801 -0.2293
18208TIP3    H176115   3.693   1.862  13.245  0.4054 -0.7835 -0.3139
18208TIP3    H276116   3.837   1.897  13.212 -0.3262  2.9072 -0.1108
18209TIP3   OH276117   0.850   5.254   3.433  0.0291  0.0377 -0.2163
18209TIP3    H176118   0.758   5.229   3.442  0.0146  0.1510 -0.0394
18209TIP3    H276119   0.860   5.276   3.340 -0.0277 -0.3434 -0.3125
18210TIP3   OH276120   1.443   5.298   0.956 -0.4323 -0.0305  0.3583
18210TIP3    H176121   1.477   5.221   1.002 -0.9774  0.9228  2.4723
18210TIP3    H276122   1.470   5.372   1.010 -2.0530  1.0814 -0.2779
18211TIP3   OH276123   4.532   5.678   3.080  0.2764  0.1546  0.2291
18211TIP3    H176124   4.502   5.714   2.997  2.0671  1.4227  0.0720
18211TIP3    H276125   4.457   5.686   3.139 -1.1120 -1.0315 -1.3079
18212TIP3   OH276126   1.264   5.643  12.101 -0.4611  0.0765 -0.4025
18212TIP3    H176127   1.312   5.597  12.170  0.2723  0.6074 -0.5446
18212TIP3    H276128   1.199   5.696  12.149 -0.1339  0.2390 -0.1348
18213TIP3   OH276129   6.794   1.330   0.606 -0.1742  0.0701 -0.7992
18213TIP3    H176130   6.815   1.261   0.543 -0.6074 -0.6074 -0.2179
18213TIP3    H276131   6.836   1.302   0.688 -0.0467  0.6821 -0.6496
18214TIP3   OH276132   1.699   3.045  15.548  0.2511 -0.3040  0.2546
18214TIP3    H176133   1.776   3.070  15.497 -1.7383  1.7978 -1.9754
18214TIP3    H276134   1.676   2.958  15.516 -0.0717  0.3673 -1.4345
18215TIP3   OH276135   4.919   0.605  11.525 -0.4033  0.1134  0.1375
18215TIP3    H176136   4.914   0.689  11.479 -1.9637 -0.9720 -1.8625
18215TIP3    H276137   4.875   0.544  11.466 -0.0110 -1.9611  1.8980
18216TIP3   OH276138   3.885   0.833   4.706 -0.3296  0.1453  0.5276
18216TIP3    H176139   3.918   0.863   4.621  0.0933 -0.5017  0.4558
18216TIP3    H276140   3.794   0.863   4.708 -0.0771  0.9529  0.2333
18217TIP3   OH276141   1.555   5.842   2.293 -0.2599 -0.0565 -0.4081
18217TIP3    H176142   1.582   5.932   2.275 -0.8910 -0.0026 -1.1622
18217TIP3    H276143   1.559   5.835   2.388  1.2370  0.2970 -0.4163
18218TIP3   OH276144   2.223   4.812   2.677  0.0900 -0.1345 -0.1663
18218TIP3    H176145   2.237   4.896   2.635 -1.1715 -0.6479 -1.7524
18218TIP3    H276146   2.268   4.749   2.621 -2.0573 -0.8966 -1.1841
18219TIP3   OH276147   4.452   5.717  15.711  0.1660 -0.0259  0.4206
18219TIP3    H176148   4.408   5.791  15.671  0.7959  1.6251  2.6026
18219TIP3    H276149   4.523   5.695  15.651  0.1245  1.3196 -0.1338
18220TIP3   OH276150   5.826   2.024   5.491 -0.4181 -0.0169  0.5048
18220TIP3    H176151   5.745   1.986   5.458 -0.0810 -1.5600  1.3365
18220TIP3    H276152   5.863   2.071   5.416 -1.6458 -0.0103 -0.1197
18221TIP3   OH276153   1.432   4.494   3.133  0.0864 -0.1638  0.4311
18221TIP3    H176154   1.496   4.537   3.189  2.0805 -1.6085 -0.6071
18221TIP3    H276155   1.364   4.463   3.192 -0.2204  2.2900  1.4524
18222TIP3   OH276156   2.070   4.400  11.808  0.0034  0.1160  0.3233
18222TIP3    H176157   2.131   4.401  11.882  3.6574 -1.8961 -2.2926
18222TIP3    H276158   2.055   4.492  11.788  1.9676  0.7313  1.3481
18223TIP3   OH276159   1.634   5.022  10.775 -0.5894 -0.3741  0.5024
18223TIP3    H176160   1.576   4.980  10.711  0.2952  0.2349 -0.7376
18223TIP3    H276161   1.604   5.112  10.780  0.6054  0.1151 -0.6320
18224TIP3   OH276162   1.219   0.112  13.374 -0.3583 -0.2177  0.0405
18224TIP3    H176163   1.168   0.032  13.359 -1.3345  0.4452 -0.2554
18224TIP3    H276164   1.189   0.145  13.458  1.7290 -1.3825  1.3332
18225TIP3   OH276165   6.796   4.110  14.184  0.6316 -0.5632  0.1972
18225TIP3    H176166   6.755   4.035  14.228 -2.0067 -0.9428 -2.5633
18225TIP3    H276167   6.814   4.079  14.095  2.1170  1.2828 -0.2095
18226TIP3   OH276168   6.051   5.284   1.355  0.2918  0.0755 -0.1312
18226TIP3    H176169   6.137   5.325   1.343 -0.2233  0.3505 -4.4385
18226TIP3    H276170   5.989   5.352   1.329 -0.8498 -1.7083 -2.4292
18227TIP3   OH276171   0.856   0.448  13.038  0.2013  0.3862 -0.6235
18227TIP3    H176172   0.914   0.390  13.087 -0.4947 -0.8298 -1.1887
18227TIP3    H276173   0.890   0.535  13.054  0.1462  0.0368  1.8281
18228TIP3   OH276174   2.353   2.540   5.536  0.1205 -0.1962  0.1617
18228TIP3    H176175   2.380   2.529   5.627  2.2058  0.4181 -0.3360
18228TIP3    H276176   2.405   2.477   5.487 -1.4677 -0.9882 -0.5745
18229TIP3   OH276177   2.049   1.516  16.485 -0.2202 -0.0686  0.3706
18229TIP3    H176178   2.090   1.456  16.422  0.5449 -0.6028  1.3545
18229TIP3    H276179   1.965   1.475  16.507 -0.2167 -0.1878  0.1649
18230TIP3   OH276180   5.028   5.565   5.244  0.0619  0.1431  0.5332
18230TIP3    H176181   5.004   5.505   5.174 -1.1855  1.1036  0.0939
18230TIP3    H276182   5.115   5.536   5.273  0.3325 -0.6366 -0.9953
18231TIP3   OH276183   1.165   6.725   1.896  0.6940 -0.2834  0.2845
18231TIP3    H176184   1.126   6.778   1.826 -0.4726 -1.7597 -0.2356
18231TIP3    H276185   1.250   6.766   1.913  1.8166 -0.8258 -3.1793
18232TIP3   OH276186   1.650   5.481   0.958 -0.5521  0.5995 -0.1576
18232TIP3    H176187   1.644   5.495   0.863  0.3898  1.5589 -0.0944
18232TIP3    H276188   1.637   5.568   0.996  0.2274  0.4308  0.5287
18233TIP3   OH276189   1.316   2.109  15.154  0.0557 -0.0807 -0.4090
18233TIP3    H176190   1.366   2.162  15.217  2.2009 -1.1601 -1.1078
18233TIP3    H276191   1.263   2.172  15.106 -1.0998  0.8697  1.9032
18234TIP3   OH276192   2.532   3.890  16.557 -0.2835  0.2981 -0.3511
18234TIP3    H176193   2.497   3.842  16.483 -1.3806  0.5832 -0.0479
18234TIP3    H276194   2.459   3.893  16.620 -0.3559  2.4949 -0.4467
18235TIP3   OH276195   3.056   3.605  13.381  0.0721 -0.8235  0.0712
18235TIP3    H176196   3.029   3.519  13.411 -0.7144  0.0308  2.0171
18235TIP3    H276197   3.066   3.656  13.461  0.2796  0.9612 -1.0301
18236TIP3   OH276198   6.162   4.349   0.019 -0.1418  0.0259  0.7062
18236TIP3    H176199   6.158   4.394   0.104 -1.2795  1.6896 -0.1694
18236TIP3    H276200   6.103   4.399  -0.037  2.3070  0.4541 -1.7342
18237TIP3   OH276201   3.544   3.573   4.036 -0.1541 -0.2537 -0.1630
18237TIP3    H176202   3.563   3.548   3.946 -0.4648 -1.9046  0.1991
18237TIP3    H276203   3.598   3.515   4.089  1.5259  1.9964  0.7496
18238TIP3   OH276204   2.473   4.110   3.481 -0.0036  0.0828  0.0527
18238TIP3    H176205   2.512   4.133   3.397  1.1110 -0.7327  0.3212
18238TIP3    H276206   2.503   4.020   3.497 -0.6641  0.0276  1.0532
18239TIP3   OH276207   1.991   2.563   5.216  0.6449 -0.0984  0.0156
18239TIP3    H176208   2.028   2.474   5.218 -1.7061 -1.1425  0.4907
18239TIP3    H276209   1.925   2.559   5.147  1.1710  1.6096 -0.6293
18240TIP3   OH276210   3.056   3.191   3.710  0.1763 -0.2996  0.3218
18240TIP3    H176211   3.141   3.165   3.745  0.6431 -0.0581 -0.5974
18240TIP3    H276212   2.992   3.147   3.767  0.9023 -0.1643  1.2554
18241TIP3   OH276213   3.370   0.815   5.455 -0.0415 -0.2795 -0.3099
18241TIP3    H176214   3.385   0.889   5.513  0.7347  1.6236 -2.7679
18241TIP3    H276215   3.457   0.792   5.422 -0.4789 -1.1162 -0.9333
18242TIP3   OH276216   2.941   4.731  12.303 -0.2159  0.1542 -0.3753
18242TIP3    H176217   2.852   4.715  12.335  0.4594  0.4974  1.8080
18242TIP3    H276218   2.995   4.665  12.346  0.8936  1.2762  0.0321
18243TIP3   OH276219   2.159   0.798  16.642  0.0504 -0.2994  0.0854
18243TIP3    H176220   2.092   0.866  16.633  2.8791  2.7055 -0.0588
18243TIP3    H276221   2.168   0.762  16.553 -0.5398  0.0974 -0.1428
18244TIP3   OH276222   5.621   0.284   1.581 -0.2559 -0.0794 -0.0811
18244TIP3    H176223   5.676   0.211   1.552 -2.1202 -0.8736 -1.8706
18244TIP3    H276224   5.532   0.255   1.562 -1.4276  0.8541  3.3261
18245TIP3   OH276225   4.862   0.256   1.417  0.1626  0.5799 -0.3356
18245TIP3    H176226   4.780   0.305   1.419 -0.8413 -1.0737  0.5033
18245TIP3    H276227   4.855   0.198   1.341  0.4116  0.2106 -0.0827
18246TIP3   OH276228   4.108   6.322  10.483  0.0938  0.1861 -0.1578
18246TIP3    H176229   4.029   6.374  10.498 -0.5889 -0.6937 -0.5682
18246TIP3    H276230   4.075   6.236  10.457  1.1769 -0.7409  1.3857
18247TIP3   OH276231   1.846   3.727   5.965 -0.2017 -0.3015  0.1703
18247TIP3    H176232   1.826   3.781   6.042  0.0484  1.8723 -1.2061
18247TIP3    H276233   1.923   3.768   5.926  0.2749 -1.9553 -0.7104
18248TIP3   OH276234   5.134   1.837  12.610  0.5627  0.2089  0.4484
18248TIP3    H176235   5.144   1.743  12.590  1.7492  0.5660 -0.7768
18248TIP3    H276236   5.049   1.860  12.573  1.0589 -0.0025 -0.8822
18249TIP3   OH276237   5.210   4.011   1.554 -0.1181 -0.4678  0.8469
18249TIP3    H176238   5.175   3.926   1.527  0.5080  0.0369 -1.7941
18249TIP3    H276239   5.158   4.075   1.505  1.9486  0.4495 -0.2743
18250TIP3   OH276240   0.366   0.209   1.412 -0.7021 -0.2938  0.0954
18250TIP3    H176241   0.298   0.171   1.468  0.6033 -1.9743  0.6165
18250TIP3    H276242   0.446   0.164   1.438  0.6026  1.4714 -0.6531
18251TIP3   OH276243   0.920   5.875   3.208 -0.4868 -0.0894  0.2775
18251TIP3    H176244   0.948   5.966   3.213 -1.3133  0.1309  1.2572
18251TIP3    H276245   0.828   5.879   3.182 -0.0342 -0.7424 -1.5509
18252TIP3   OH276246   3.097   2.015   4.155  0.0429  1.0180 -0.0459
18252TIP3    H176247   3.156   1.994   4.227 -0.9886 -0.2661  0.4646
18252TIP3    H276248   3.144   1.987   4.076  0.5762  1.0453  0.2610
18253TIP3   OH276249   5.982   3.963  14.182 -0.2600 -0.7086 -0.0482
18253TIP3    H176250   5.989   3.872  14.154 -0.1323 -1.1870  1.4713
18253TIP3    H276251   5.962   3.959  14.275 -1.1090  0.8181 -0.1234
18254TIP3   OH276252   4.782   1.563   1.852 -0.7461 -0.3514  0.3611
18254TIP3    H176253   4.856   1.543   1.794 -0.6083  0.1364  0.3700
18254TIP3    H276254   4.738   1.479   1.863 -0.5020 -0.5402 -0.0724
18255TIP3   OH276255   6.767   4.445   6.579  0.4283  0.0392  0.0480
18255TIP3    H176256   6.758   4.535   6.549 -0.2478  0.5355  1.6199
18255TIP3    H276257   6.859   4.424   6.563  0.5821  0.9825 -0.3859
18256TIP3   OH276258   5.141   4.116   1.030 -0.6146 -0.1336  0.1402
18256TIP3    H176259   5.080   4.177   1.072 -0.6840 -1.0749  1.4430
18256TIP3    H276260   5.125   4.128   0.936 -2.6456 -0.1777  0.4254
18257TIP3   OH276261   6.150   3.874   0.486  0.2708 -0.1374  0.1347
18257TIP3    H176262   6.167   3.794   0.534 -0.5339  0.8038  2.0864
18257TIP3    H276263   6.231   3.891   0.438  0.4148 -2.1235 -0.4189
18258TIP3   OH276264   4.459   1.869  14.195  0.0749  0.0634 -0.2544
18258TIP3    H176265   4.386   1.868  14.133 -0.3292  0.0992  0.2123
18258TIP3    H276266   4.427   1.820  14.271  0.2475  0.7576  0.2790
18259TIP3   OH276267   1.311   1.796   4.710 -0.4424 -0.1801  0.0199
18259TIP3    H176268   1.266   1.868   4.665 -1.4444 -0.4154  0.6348
18259TIP3    H276269   1.242   1.746   4.751  0.3877 -0.5291  1.0264
18260TIP3   OH276270   6.634   0.024   0.854  0.1768 -0.3297  0.0764
18260TIP3    H176271   6.610  -0.043   0.790  0.1150  0.0149 -0.2646
18260TIP3    H276272   6.729   0.020   0.859  0.1890 -0.2975 -0.1081
18261TIP3   OH276273   4.883   4.211   4.534  0.3690  0.3464 -0.3916
18261TIP3    H176274   4.892   4.220   4.439  1.3814 -2.4794 -0.6553
18261TIP3    H276275   4.800   4.166   4.547  0.2448  0.6998  0.0626
18262TIP3   OH276276   0.425   0.984   3.649  0.1040 -0.7711 -0.7173
18262TIP3    H176277   0.372   0.988   3.569 -1.1774  0.7097  0.1428
18262TIP3    H276278   0.500   1.041   3.631 -1.2928  1.3554 -0.1662
18263TIP3   OH276279   6.121   3.408   5.399  0.0793 -0.1379 -0.1227
18263TIP3    H176280   6.118   3.389   5.493 -1.8522  0.2177 -0.0831
18263TIP3    H276281   6.048   3.359   5.362 -0.1279  0.9508 -1.2128
18264TIP3   OH276282   1.817   4.222   4.643  0.2221 -0.3748  0.0273
18264TIP3    H176283   1.804   4.208   4.549  1.4478 -2.1913  0.0719
18264TIP3    H276284   1.739   4.185   4.684  0.2713 -0.7434 -0.2111
18265TIP3   OH276285   5.911   2.904   0.175  0.0451  0.7058 -0.4010
18265TIP3    H176286   5.940   2.968   0.110 -0.2352  0.7585 -0.4789
18265TIP3    H276287   5.847   2.851   0.128  0.8993 -0.1783 -0.5884
18266TIP3   OH276288   6.762   4.062   2.207  0.1591 -0.0555 -0.1932
18266TIP3    H176289   6.748   4.126   2.138 -1.8001 -1.3794 -1.1067
18266TIP3    H276290   6.743   4.110   2.288  3.0364  1.6639 -0.4180
18267TIP3   OH276291   2.994   2.661  12.522  0.1950  0.0127 -0.2519
18267TIP3    H176292   2.998   2.571  12.492  1.6027  0.3826 -1.2891
18267TIP3    H276293   2.987   2.713  12.441  1.9429  0.9377  0.1522
18268TIP3   OH276294   0.719   6.423   1.662 -0.0641  0.3299 -0.2553
18268TIP3    H176295   0.655   6.353   1.652  0.3685  0.0784 -1.4476
18268TIP3    H276296   0.695   6.467   1.744  0.3944 -1.9615  1.1846
18269TIP3   OH276297   5.789   3.707   2.971 -0.2658 -0.4536 -0.2880
18269TIP3    H176298   5.775   3.745   2.884  1.1777  0.0343 -0.3252
18269TIP3    H276299   5.723   3.638   2.978  0.2760 -1.2251 -2.1958
18270TIP3   OH276300   0.769   2.131   6.466  0.1652 -0.0748  0.2588
18270TIP3    H176301   0.763   2.216   6.510 -0.9406  1.0189 -1.8816
18270TIP3    H276302   0.680   2.095   6.469  0.2872 -0.4324 -0.2253
18271TIP3   OH276303   1.883   6.021  12.140 -0.6221  0.1077  0.1848
18271TIP3    H176304   1.971   6.040  12.173 -1.0522  0.8075  0.9587
18271TIP3    H276305   1.834   6.101  12.155 -1.2786 -0.1238 -0.6750
18272TIP3   OH276306   1.843   6.162  15.253  0.0911  0.2318  0.4258
18272TIP3    H176307   1.865   6.221  15.325 -1.2108  1.1420  0.1165
18272TIP3    H276308   1.862   6.213  15.174  2.1045 -0.9800  0.0726
18273TIP3   OH276309   1.593   4.159   4.442 -0.6820 -0.4506 -0.6734
18273TIP3    H176310   1.613   4.155   4.348  0.6454  0.2439 -0.4378
18273TIP3    H276311   1.499   4.176   4.445 -0.4237  1.5033 -1.9330
18274TIP3   OH276312   0.935   4.095   3.131 -0.2120  0.7110 -0.5784
18274TIP3    H176313   0.860   4.098   3.190 -0.7206 -0.4334 -1.1249
18274TIP3    H276314   0.914   4.157   3.061 -1.4913 -0.8252 -1.6343
18275TIP3   OH276315   6.709   4.661  14.334  0.7575 -0.2422  0.7090
18275TIP3    H176316   6.684   4.588  14.391  1.6251  0.4093  1.9701
18275TIP3    H276317   6.708   4.738  14.391 -0.9536  0.9105 -0.7801
18276TIP3   OH276318   0.701   5.131  16.526 -0.2261  0.6056  0.0597
18276TIP3    H176319   0.750   5.116  16.445 -1.8479 -1.2946 -0.6429
18276TIP3    H276320   0.637   5.199  16.503  0.9435  1.9239  0.5302
18277TIP3   OH276321   5.413   4.870  12.954  0.5594  0.6791  0.2917
18277TIP3    H176322   5.366   4.852  13.035 -0.6243 -1.2283 -0.7550
18277TIP3    H276323   5.502   4.839  12.971  0.1744 -0.2552  0.7026
18278TIP3   OH276324   0.248   5.907  12.717  0.2491 -0.6924 -0.1114
18278TIP3    H176325   0.198   5.826  12.700  0.8242 -0.5562 -3.0138
18278TIP3    H276326   0.327   5.877  12.762 -0.0546 -1.6015 -0.1495
18279TIP3   OH276327   3.761   2.283  16.038 -0.0943 -0.1644 -0.0473
18279TIP3    H176328   3.820   2.227  16.088 -0.3843 -0.1434  0.3238
18279TIP3    H276329   3.701   2.319  16.104  0.0556  0.5463 -0.2831
18280TIP3   OH276330   5.817   2.348  14.787  0.1925  0.7976  0.1175
18280TIP3    H176331   5.842   2.324  14.876  0.2255  0.0715 -0.0747
18280TIP3    H276332   5.745   2.410  14.798 -0.8635 -0.4821  0.6472
18281TIP3   OH276333   2.301   4.743   5.636  0.1084  0.6355  0.1336
18281TIP3    H176334   2.259   4.688   5.570 -2.2674  1.2091  1.0851
18281TIP3    H276335   2.242   4.817   5.648  2.2811  2.4641  0.2959
18282TIP3   OH276336   4.163   1.779   5.748 -0.4441 -0.2061  0.5305
18282TIP3    H176337   4.151   1.868   5.715 -1.0316 -0.3393  0.3730
18282TIP3    H276338   4.103   1.773   5.823  1.2713  0.2731  1.9908
18283TIP3   OH276339   2.932   0.460  13.838 -0.5308 -0.0677  0.4713
18283TIP3    H176340   2.997   0.510  13.788 -1.0176 -0.1783 -0.2881
18283TIP3    H276341   2.848   0.502  13.817 -0.6825  0.3227  1.7487
18284TIP3   OH276342   5.438   1.082  11.029 -0.2952 -0.0230 -0.7925
18284TIP3    H176343   5.371   1.150  11.019  0.1127  1.0133  2.3936
18284TIP3    H276344   5.510   1.111  10.973  0.5934  3.3249  1.7582
18285TIP3   OH276345   6.310   2.119   3.061 -0.2192  0.1845  0.1228
18285TIP3    H176346   6.225   2.133   3.018 -0.9047 -0.4573  1.2212
18285TIP3    H276347   6.361   2.197   3.039 -0.8636  0.2809 -1.0963
18286TIP3   OH276348   5.997   1.677   0.405 -0.3237  0.2270 -0.6650
18286TIP3    H176349   5.943   1.700   0.481  0.1922 -0.3072 -0.1238
18286TIP3    H276350   5.949   1.711   0.330 -0.4521  1.5069 -0.0418
18287TIP3   OH276351   1.547   4.811  12.233  0.1277  0.0158  0.2775
18287TIP3    H176352   1.627   4.826  12.184  0.7525  2.3012  1.8313
18287TIP3    H276353   1.570   4.746  12.299  1.0378  1.3040  1.2873
18288TIP3   OH276354   0.174   4.987  10.874 -0.4326 -0.5957  0.4512
18288TIP3    H176355   0.096   4.999  10.928 -0.6775  0.1101 -0.0444
18288TIP3    H276356   0.140   4.981  10.785  0.1619  0.9574  0.0953
18289TIP3   OH276357   4.768   3.991   6.715  0.1406  0.2305  0.1880
18289TIP3    H176358   4.809   3.954   6.794  0.9276 -0.1106 -0.3622
18289TIP3    H276359   4.697   3.930   6.695  1.7764 -1.4004 -1.0359
18290TIP3   OH276360   5.011   4.816   1.262  0.0444 -0.7911 -0.1446
18290TIP3    H176361   5.046   4.878   1.325 -0.8831  1.2263 -1.5030
18290TIP3    H276362   4.987   4.739   1.314 -0.6487  0.7591  1.9501
18291TIP3   OH276363   4.836   5.521  13.388 -0.3865 -0.2033 -0.7445
18291TIP3    H176364   4.876   5.523  13.475 -0.2689 -1.6294 -0.7553
18291TIP3    H276365   4.804   5.432  13.378 -1.8579  0.3684 -1.5230
18292TIP3   OH276366   4.073   3.455  15.849  0.2748  0.4335 -0.1573
18292TIP3    H176367   3.990   3.415  15.822  0.0246  0.0771  1.0876
18292TIP3    H276368   4.068   3.459  15.944  2.0948 -0.4593  0.0209
18293TIP3   OH276369   4.095   2.108  15.257  0.0373 -0.4264 -0.0756
18293TIP3    H176370   4.002   2.127  15.271 -0.4098 -1.4087 -1.4511
18293TIP3    H276371   4.101   2.013  15.263  1.0995 -0.3330  0.6535
18294TIP3   OH276372   5.256   5.361  13.057 -0.0331 -0.1038  0.1047
18294TIP3    H176373   5.322   5.308  13.102 -0.3244 -0.4880  0.0863
18294TIP3    H276374   5.296   5.381  12.972 -0.2963 -1.1173 -0.2764
18295TIP3   OH276375   6.043   6.700  12.925 -0.0202  0.0951  0.1320
18295TIP3    H176376   5.961   6.680  12.880  0.3274 -0.1167 -0.4312
18295TIP3    H276377   6.067   6.787  12.892  1.0189 -0.6959 -1.3175
18296TIP3   OH276378   5.543   5.717   4.104 -0.4609  0.2854 -0.4563
18296TIP3    H176379   5.568   5.801   4.065 -0.9228  0.4501 -0.4073
18296TIP3    H276380   5.478   5.681   4.044  0.7610 -0.7302 -1.2465
18297TIP3   OH276381   2.906   6.304   1.508  0.1056  0.2481  0.0677
18297TIP3    H176382   2.812   6.294   1.522  0.0381  0.9636  0.1545
18297TIP3    H276383   2.941   6.215   1.516 -0.3215  0.2018  1.8706
18298TIP3   OH276384   2.543   0.905  15.660 -0.2712  0.1568 -0.5420
18298TIP3    H176385   2.512   0.829  15.610  0.3204 -0.1638 -0.4323
18298TIP3    H276386   2.481   0.912  15.733  0.9638 -1.6728  0.7752
18299TIP3   OH276387   0.467   0.728  13.833 -0.4508 -0.3761  0.1879
18299TIP3    H176388   0.488   0.782  13.908  0.9419 -0.0025 -0.4366
18299TIP3    H276389   0.442   0.643  13.870 -0.4671  0.0112  1.0845
18300TIP3   OH276390   6.480   3.262   6.962  0.0354 -0.3619 -0.0277
18300TIP3    H176391   6.445   3.187   6.914  1.2140 -2.0783  1.6315
18300TIP3    H276392   6.570   3.271   6.932  0.1446 -0.1305  0.3535
18301TIP3   OH276393   5.626   6.222   3.410 -0.0968  0.1480 -0.3988
18301TIP3    H176394   5.667   6.263   3.335  0.4104  0.1542 -0.1218
18301TIP3    H276395   5.557   6.282   3.437  0.2198  0.5083 -0.3931
18302TIP3   OH276396   1.919   4.901  13.218 -0.3147 -0.4508  0.7047
18302TIP3    H176397   1.883   4.978  13.175  1.3144 -0.3611 -0.6087
18302TIP3    H276398   1.848   4.837  13.216 -1.8908  1.1070  2.3028
18303TIP3   OH276399   5.293   1.779   5.100 -0.4062 -0.0640  0.2830
18303TIP3    H176400   5.257   1.852   5.048  1.2372 -0.4379 -1.4879
18303TIP3    H276401   5.355   1.737   5.041 -0.4293 -2.1857  1.6979
18304TIP3   OH276402   4.422   1.612  11.449 -0.0227  0.7059  0.0418
18304TIP3    H176403   4.427   1.683  11.513 -0.9742  0.7220  0.1104
18304TIP3    H276404   4.329   1.588  11.446  0.5305 -2.0722  1.6852
18305TIP3   OH276405   6.567   5.390  12.599  0.3115 -0.0105 -0.2094
18305TIP3    H176406   6.625   5.331  12.648 -1.0148 -2.0960 -1.0030
18305TIP3    H276407   6.502   5.418  12.663  0.2453 -0.4252 -0.0881
18306TIP3   OH276408   1.022   4.565  15.337  0.0727  0.3798  0.2644
18306TIP3    H176409   1.109   4.587  15.303  0.5972 -1.5653  0.2098
18306TIP3    H276410   1.004   4.478  15.303 -0.9483 -0.1574  2.0221
18307TIP3   OH276411   6.323   0.430   5.159 -0.2467  0.4389  0.2548
18307TIP3    H176412   6.400   0.418   5.105 -1.9436 -1.4771 -1.9799
18307TIP3    H276413   6.340   0.509   5.210  2.6271  0.7446 -1.0231
18308TIP3   OH276414   4.786   0.377  15.205 -0.0381  0.5567 -0.0458
18308TIP3    H176415   4.875   0.396  15.177  0.4431  0.6966  1.5184
18308TIP3    H276416   4.771   0.433  15.281  0.2303 -2.6860  2.6531
18309TIP3   OH276417   6.340   3.813  11.876  0.2138  0.3376  0.4657
18309TIP3    H176418   6.256   3.787  11.914 -0.3926  0.8261 -0.4862
18309TIP3    H276419   6.342   3.769  11.790  1.4566 -0.5871  0.9413
18310TIP3   OH276420   6.561   2.417  13.671 -0.4020 -0.3850  0.1135
18310TIP3    H176421   6.588   2.361  13.598 -0.1763 -0.0609 -0.0548
18310TIP3    H276422   6.595   2.373  13.749  2.5121  1.0650 -0.2221
18311TIP3   OH276423   1.194   4.057  11.098 -0.0473 -0.5870  0.6376
18311TIP3    H176424   1.165   3.978  11.143  0.2616 -1.5223 -0.7330
18311TIP3    H276425   1.126   4.074  11.033 -0.6969  0.9787  1.6674
18312TIP3   OH276426   3.492   4.174  16.645 -0.1365 -0.3364  0.4372
18312TIP3    H176427   3.566   4.113  16.648 -0.5425 -0.8136  0.8674
18312TIP3    H276428   3.531   4.256  16.615  0.8708 -0.1624  2.0624
18313TIP3   OH276429   3.332   1.953   1.394  0.3855 -0.4057 -0.3962
18313TIP3    H176430   3.369   1.920   1.312  0.3239 -0.7536 -0.2872
18313TIP3    H276431   3.319   1.874   1.448  1.3807 -0.0783  0.3423
18314TIP3   OH276432   5.493   3.587   5.648 -0.0672  0.2263  0.5388
18314TIP3    H176433   5.460   3.659   5.701  1.8426 -0.1944  2.4009
18314TIP3    H276434   5.414   3.540   5.621 -1.1480  0.4251  3.0973
18315TIP3   OH276435   2.944   5.932  13.759  0.2583  0.3940  0.0283
18315TIP3    H176436   2.913   5.928  13.849 -0.8799 -0.1849 -0.3718
18315TIP3    H276437   2.884   5.875  13.710  1.5177 -0.1843 -0.9062
18316TIP3   OH276438   2.388   5.259  13.819 -0.0823  0.2189 -0.4146
18316TIP3    H176439   2.388   5.334  13.760  0.4635  1.0814  0.6413
18316TIP3    H276440   2.471   5.265  13.866 -0.6317 -0.2378  0.6656
18317TIP3   OH276441   3.892   0.543  15.538 -0.2315  0.4889  0.0317
18317TIP3    H176442   3.980   0.550  15.500 -0.5163 -1.3430 -1.0801
18317TIP3    H276443   3.857   0.463  15.501 -1.0760 -0.7298  3.1884
18318TIP3   OH276444   5.671   6.079  11.773  0.1382 -0.0612  0.0408
18318TIP3    H176445   5.598   6.046  11.720 -0.2522  1.2121 -0.2587
18318TIP3    H276446   5.743   6.090  11.711 -0.0031  0.4550 -0.0392
18319TIP3   OH276447   1.114   6.589   3.101 -0.0826  0.0161  0.0752
18319TIP3    H176448   1.184   6.602   3.164 -0.8612  1.8303  0.6358
18319TIP3    H276449   1.042   6.644   3.133 -0.6305  0.7201 -2.1834
18320TIP3   OH276450   3.926   5.270   1.512  0.7208  0.2106 -0.3791
18320TIP3    H176451   3.881   5.190   1.542  1.6454 -0.9104 -1.8411
18320TIP3    H276452   3.997   5.282   1.576  1.0968 -0.6490 -0.6179
18321TIP3   OH276453   5.174   1.597  13.006  0.6167 -0.6405  0.2281
18321TIP3    H176454   5.185   1.502  13.017 -0.4586 -0.6705  1.2608
18321TIP3    H276455   5.262   1.629  12.987  1.4721 -1.5508  2.2750
18322TIP3   OH276456   0.649   0.284   3.866 -0.0633  0.1119  0.3027
18322TIP3    H176457   0.696   0.292   3.783 -2.4848  1.1301 -1.0792
18322TIP3    H276458   0.649   0.373   3.903 -0.1315 -0.0652  0.7378
18323TIP3   OH276459   6.172   1.699  17.047  0.2039  0.4301  0.1991
18323TIP3    H176460   6.178   1.672  16.956  1.9006 -0.0437  0.4168
18323TIP3    H276461   6.097   1.759  17.050 -1.5143 -1.5357 -0.9748
18324TIP3   OH276462   6.047   4.111  15.796  0.1732 -0.2229 -0.2017
18324TIP3    H176463   6.128   4.149  15.762  0.5150  0.1870  1.0417
18324TIP3    H276464   6.047   4.133  15.889 -1.1076 -0.6825 -0.0766
18325TIP3   OH276465   0.599   5.859   2.310  0.0367 -0.5414  0.3401
18325TIP3    H176466   0.556   5.774   2.319 -0.9026 -0.0617  0.4626
18325TIP3    H276467   0.572   5.909   2.387  0.9558 -0.2842  0.5070
18326TIP3   OH276468   1.889   0.128   5.952  0.1372 -0.0351 -0.1007
18326TIP3    H176469   1.880   0.214   5.993 -0.0171  0.0991 -0.4050
18326TIP3    H276470   1.805   0.114   5.907 -0.2634 -0.8352  0.8517
18327TIP3   OH276471   3.106   4.557  15.189 -0.0228 -0.3299 -0.0243
18327TIP3    H176472   3.185   4.517  15.151 -1.7580 -1.4899 -2.6865
18327TIP3    H276473   3.051   4.577  15.114 -1.3923  2.5511  1.5988
18328TIP3   OH276474   3.544   2.368   4.742 -0.3082  0.3465 -0.0625
18328TIP3    H176475   3.485   2.434   4.706  0.5296  0.5124 -1.1951
18328TIP3    H276476   3.486   2.297   4.771 -1.0600  0.3485 -1.4589
18329TIP3   OH276477   4.795   4.873   1.130  0.1886  0.1972 -0.2324
18329TIP3    H176478   4.734   4.906   1.196  0.6921  1.8632 -0.5513
18329TIP3    H276479   4.876   4.858   1.178  0.2432  0.3831 -0.2652
18330TIP3   OH276480   2.941   1.778   4.276  0.0577  0.5025 -0.1680
18330TIP3    H176481   2.978   1.864   4.259 -0.8260  0.6284 -1.6639
18330TIP3    H276482   2.940   1.735   4.190  0.4463 -0.9970  0.5424
18331TIP3   OH276483   4.658   1.566   0.296 -0.4445 -0.2484 -0.2103
18331TIP3    H176484   4.708   1.619   0.358 -2.6497  0.8845  0.7548
18331TIP3    H276485   4.696   1.479   0.301  0.8888  0.3695  1.0128
18332TIP3   OH276486   1.985   3.114   5.159 -0.2187 -0.2509  0.4565
18332TIP3    H176487   1.957   3.150   5.243 -0.1889 -1.0405  0.8125
18332TIP3    H276488   1.912   3.132   5.100 -0.5812 -0.3905  0.8531
18333TIP3   OH276489   5.962   0.823  11.956 -0.3639  0.0842  0.2772
18333TIP3    H176490   6.050   0.855  11.936 -0.8233  0.8336 -0.5846
18333TIP3    H276491   5.923   0.892  12.009 -0.5729 -0.0682  0.3203
18334TIP3   OH276492   6.756   6.483   0.597 -0.2521  0.2910 -0.3008
18334TIP3    H176493   6.717   6.396   0.608 -1.0678  0.5591 -0.9711
18334TIP3    H276494   6.683   6.540   0.575  0.3341  1.0748 -0.2685
18335TIP3   OH276495   2.498   1.166  14.078  0.4527 -0.2880  0.1004
18335TIP3    H176496   2.481   1.260  14.067  0.7962  0.0250  2.0309
18335TIP3    H276497   2.570   1.161  14.140 -1.2597 -1.8416  2.1191
18336TIP3   OH276498   0.416   5.827   0.545  0.5638 -0.1882  0.9747
18336TIP3    H176499   0.362   5.876   0.483  1.3492 -0.2159  0.2581
18336TIP3    H276500   0.353   5.771   0.591 -0.2678  1.1070  1.4514
18337TIP3   OH276501   2.745   3.635   0.546 -1.0297  0.0470  0.2215
18337TIP3    H176502   2.720   3.569   0.611 -0.9599  0.7894  1.0324
18337TIP3    H276503   2.773   3.585   0.470  1.5778 -0.9542  1.7274
18338TIP3   OH276504   1.355   6.711   4.849  1.0705  0.1949  0.3531
18338TIP3    H176505   1.349   6.799   4.810 -1.8006 -0.6703 -1.4498
18338TIP3    H276506   1.449   6.691   4.847  1.7193  2.8378 -0.0066
18339TIP3   OH276507   2.398   0.802  13.046 -0.2210 -0.1643 -0.5523
18339TIP3    H176508   2.480   0.789  12.999  0.1831  0.6868 -0.1152
18339TIP3    H276509   2.363   0.885  13.011  0.4092  0.8204  1.0523
18340TIP3   OH276510   0.004   3.804   1.462 -0.5835  0.5697 -0.5766
18340TIP3    H176511   0.042   3.891   1.449 -1.1054  0.9185  0.1514
18340TIP3    H276512  -0.020   3.801   1.555 -1.7010  0.1151 -0.8526
18341TIP3   OH276513   0.303   4.500  11.283 -0.4377  0.7497 -0.0369
18341TIP3    H176514   0.369   4.433  11.263 -0.8467 -0.0074  1.0231
18341TIP3    H276515   0.353   4.579  11.300  0.0937  0.5827 -0.7911
18342TIP3   OH276516   6.266   6.116  11.976 -0.0224 -0.0299  0.7322
18342TIP3    H176517   6.271   6.020  11.972 -1.2977 -0.3181  3.3949
18342TIP3    H276518   6.270   6.135  12.070 -2.5585  2.3118  0.4559
18343TIP3   OH276519   6.768   0.348   6.202 -0.5328  1.0567 -0.4536
18343TIP3    H176520   6.853   0.339   6.246 -0.4670  0.7016 -0.6506
18343TIP3    H276521   6.704   0.321   6.269 -0.2944 -2.0246 -1.3058
18344TIP3   OH276522   3.453   1.942   3.018  0.3346  0.8933 -0.3259
18344TIP3    H176523   3.424   1.886   2.946 -0.0634  0.1520  0.3858
18344TIP3    H276524   3.549   1.934   3.018  0.2294 -2.4902  1.7579
18345TIP3   OH276525   1.918   1.868  13.400  0.3256 -0.4236 -0.2542
18345TIP3    H176526   1.824   1.855  13.387  0.7114 -1.1671 -3.0966
18345TIP3    H276527   1.937   1.826  13.484 -1.6470 -1.7023 -0.3818
18346TIP3   OH276528   5.430   1.721  11.014 -0.1584  0.2558  0.0968
18346TIP3    H176529   5.514   1.679  10.997  0.0388  0.2357  1.0496
18346TIP3    H276530   5.374   1.693  10.942  0.2344 -0.9135  0.2236
18347TIP3   OH276531   1.847   6.067   2.747  0.3587 -0.0388 -0.2293
18347TIP3    H176532   1.789   6.143   2.741 -0.0889 -0.4169 -0.7429
18347TIP3    H276533   1.797   6.003   2.799  0.4786 -0.2171 -0.3339
18348TIP3   OH276534   4.218   3.858  16.301 -0.3555 -0.4832 -0.0153
18348TIP3    H176535   4.205   3.773  16.258 -0.8061 -0.7401  0.6171
18348TIP3    H276536   4.297   3.845  16.354 -0.3342 -0.4556 -0.0401
18349TIP3   OH276537   5.229   0.572   5.862  0.0143  0.5435  0.0728
18349TIP3    H176538   5.235   0.478   5.849 -1.1368  0.4182  0.3328
18349TIP3    H276539   5.319   0.603   5.856  0.4099 -0.5773  0.0347
18350TIP3   OH276540   3.698   3.171   2.890  0.3495  0.3183  0.0266
18350TIP3    H176541   3.738   3.110   2.952 -1.8607 -2.3716 -0.9807
18350TIP3    H276542   3.703   3.127   2.805  2.4251  3.4799 -1.6763
18351TIP3   OH276543   3.258   3.937  13.693  0.1738 -0.3365  0.3861
18351TIP3    H176544   3.311   3.970  13.621 -0.0194 -1.4962 -0.3036
18351TIP3    H276545   3.196   4.008  13.712  0.5228  0.1494 -0.2844
18352TIP3   OH276546   4.566   0.322   5.755  0.2474 -0.1151  0.0396
18352TIP3    H176547   4.504   0.248   5.758 -0.3335  0.2697 -1.6555
18352TIP3    H276548   4.532   0.382   5.821 -0.1424 -0.7003  0.3939
18353TIP3   OH276549   1.118   3.851   3.098  0.1551 -0.5741  0.1710
18353TIP3    H176550   1.076   3.935   3.112 -2.6700 -2.1226  1.8286
18353TIP3    H276551   1.155   3.827   3.183  1.4061 -0.8295 -0.4098
18354TIP3   OH276552   3.891   6.599  11.707 -0.2735 -0.2806 -0.2805
18354TIP3    H176553   3.928   6.520  11.669 -0.3257 -0.7420  0.6115
18354TIP3    H276554   3.931   6.671  11.656 -1.6048 -0.8933 -2.3156
18355TIP3   OH276555   0.825   2.998  12.017 -0.0775 -0.0332  0.4262
18355TIP3    H176556   0.862   2.911  12.009 -1.8341 -0.7783 -0.0172
18355TIP3    H276557   0.834   3.036  11.929  0.5622  0.2106  0.5855
18356TIP3   OH276558   0.506   4.126  15.303 -0.3623  0.0231 -0.6167
18356TIP3    H176559   0.532   4.208  15.345 -1.5344  0.4929 -0.7738
18356TIP3    H276560   0.430   4.096  15.353  0.0084 -0.9408 -0.6055
18357TIP3   OH276561   3.895   2.920   0.473 -0.1397 -0.1452  0.5568
18357TIP3    H176562   3.960   2.947   0.409 -1.7709  0.9869 -0.7014
18357TIP3    H276563   3.908   2.826   0.483 -0.0335 -0.4040 -1.6977
18358TIP3   OH276564   1.032   1.349  16.152  0.5001  0.5286  0.0180
18358TIP3    H176565   1.023   1.332  16.058  0.2008 -0.8901  0.2823
18358TIP3    H276566   1.082   1.274  16.185 -2.5179 -0.9707  1.5945
18359TIP3   OH276567   5.680   4.203   5.419  0.5829 -0.5088  0.0981
18359TIP3    H176568   5.701   4.132   5.358 -1.1930  0.4837 -1.7465
18359TIP3    H276569   5.585   4.198   5.430  0.4224  1.5633 -0.0728
18360TIP3   OH276570   4.351   2.563  11.044 -0.3622  0.0100 -0.1232
18360TIP3    H176571   4.354   2.489  10.984  0.0752  1.2486 -1.6790
18360TIP3    H276572   4.371   2.525  11.130  1.5001 -1.4169 -1.1271
18361TIP3   OH276573   1.787   4.240  17.183  0.0333 -0.3287 -0.2360
18361TIP3    H176574   1.766   4.327  17.216  2.4344  0.9207 -1.7188
18361TIP3    H276575   1.850   4.205  17.247  1.3172  0.2854 -1.1244
18362TIP3   OH276576   3.525   0.558  15.759 -0.6347  0.2035 -0.2846
18362TIP3    H176577   3.435   0.585  15.776 -0.5096 -0.3817  1.4978
18362TIP3    H276578   3.520   0.507  15.678 -1.9354 -0.0521 -0.0580
18363TIP3   OH276579   1.354   2.553   2.623  0.2547 -0.4858 -0.2400
18363TIP3    H176580   1.399   2.620   2.571  1.0199 -0.7630  0.0575
18363TIP3    H276581   1.424   2.499   2.658 -0.1831  0.1752  1.7827
18364TIP3   OH276582   2.003   2.467   0.730  0.2438  0.3252 -0.1954
18364TIP3    H176583   1.971   2.378   0.746  1.5512 -0.4180 -1.3875
18364TIP3    H276584   2.077   2.476   0.790  0.5664  0.3220 -0.5892
18365TIP3   OH276585   5.299   6.763   0.390 -0.2913  0.4888  0.2887
18365TIP3    H176586   5.380   6.712   0.390  0.2708  1.3485  1.2077
18365TIP3    H276587   5.326   6.851   0.417 -1.4782  0.8736  0.2734
18366TIP3   OH276588   5.041   5.053   3.273 -0.4225  0.5656  0.5188
18366TIP3    H176589   4.969   5.003   3.235 -0.8589 -0.1669  2.2249
18366TIP3    H276590   5.119   4.999   3.256 -0.4152  0.8262 -0.3426
18367TIP3   OH276591   1.377   1.817  11.777 -0.0686  0.0770 -0.2998
18367TIP3    H176592   1.340   1.731  11.799 -0.6314  0.3537 -0.1345
18367TIP3    H276593   1.411   1.850  11.860 -0.6273  0.3764 -0.1830
18368TIP3   OH276594   5.852   0.372   2.054  0.2513 -0.6606 -0.2861
18368TIP3    H176595   5.759   0.392   2.045  0.5522  1.9844  1.5090
18368TIP3    H276596   5.854   0.282   2.086 -1.7032 -0.6016  0.1254
18369TIP3   OH276597   1.136   5.782   1.622  0.8580  0.2512  0.0189
18369TIP3    H176598   1.175   5.772   1.709  0.7440 -0.7088 -0.0336
18369TIP3    H276599   1.082   5.703   1.611  1.7728 -0.1998 -1.3955
18370TIP3   OH276600   1.427   1.913   5.564 -0.7886 -0.3553  0.3606
18370TIP3    H176601   1.386   1.947   5.484 -1.4081 -3.4785 -0.7977
18370TIP3    H276602   1.377   1.834   5.584  0.1824 -0.3514  3.1587
18371TIP3   OH276603   2.219   4.776  12.734 -0.0262 -0.5552 -0.2544
18371TIP3    H176604   2.249   4.774  12.644  0.4345  2.7660 -0.2919
18371TIP3    H276605   2.125   4.760  12.728 -0.6009  2.5920 -1.8027
18372TIP3   OH276606   1.669   3.859   4.459 -0.3683  0.0667 -0.6788
18372TIP3    H176607   1.658   3.919   4.533  0.8613  1.4864 -1.5884
18372TIP3    H276608   1.622   3.780   4.486 -0.9537  0.9500  1.1137
18373TIP3   OH276609   6.616   1.355  14.351 -0.3074 -0.0766 -0.0974
18373TIP3    H176610   6.573   1.375  14.433  0.1297  1.4021 -0.2148
18373TIP3    H276611   6.699   1.315  14.376 -0.7024 -0.7664  0.1454
18374TIP3   OH276612   6.618   3.047   2.077  0.2658 -0.2335  0.1401
18374TIP3    H176613   6.637   3.023   1.986  0.8862  0.2780  0.1234
18374TIP3    H276614   6.540   3.101   2.071 -1.9217 -3.1534  0.3055
18375TIP3   OH276615   0.613   6.217   5.045 -0.1249  0.0839  1.1375
18375TIP3    H176616   0.573   6.296   5.082 -1.3985 -1.0623  2.3334
18375TIP3    H276617   0.662   6.178   5.117  1.0804  0.1145  0.3689
18376TIP3   OH276618   1.584   4.858  11.891 -0.3206 -0.5606  0.4820
18376TIP3    H176619   1.538   4.924  11.839 -0.5186 -0.8128  0.3319
18376TIP3    H276620   1.607   4.789  11.828 -0.1214 -0.6368  0.6368
18377TIP3   OH276621   2.182   2.572   1.429  0.5098  0.3199  0.0893
18377TIP3    H176622   2.263   2.529   1.403 -0.2147 -0.0478 -1.6797
18377TIP3    H276623   2.137   2.509   1.486  0.1725 -0.6636 -1.2302
18378TIP3   OH276624   1.559   5.812  16.222 -0.3101 -0.2862 -0.2102
18378TIP3    H176625   1.497   5.744  16.249 -0.3663 -0.0799  0.1865
18378TIP3    H276626   1.582   5.789  16.132  1.3113 -2.0373  0.6000
18379TIP3   OH276627   6.506   5.781   1.625  0.1094  0.6141  0.5980
18379TIP3    H176628   6.412   5.787   1.608 -0.0401 -2.1383 -0.1477
18379TIP3    H276629   6.542   5.862   1.590 -1.8245  1.0329 -0.6061
18380TIP3   OH276630   4.104   5.537   4.324  0.6127 -0.0062  0.5734
18380TIP3    H176631   4.190   5.516   4.289 -0.5216 -5.8085  0.2244
18380TIP3    H276632   4.090   5.472   4.394 -3.1364  1.1417  1.1332
18381TIP3   OH276633   2.142   1.072   5.166 -0.5581  0.8523 -0.5723
18381TIP3    H176634   2.141   0.979   5.146 -0.7563  0.8151 -0.3926
18381TIP3    H276635   2.210   1.083   5.232 -0.2462  0.8992 -0.9010
18382TIP3   OH276636   5.099   2.277  15.616  0.4479 -0.0514 -0.0147
18382TIP3    H176637   5.180   2.237  15.585  0.2840  0.2371 -0.8216
18382TIP3    H276638   5.126   2.365  15.645  0.7214 -0.5486  1.3210
18383TIP3   OH276639   5.103   0.501   4.402  0.3133 -0.0924  0.6693
18383TIP3    H176640   5.066   0.432   4.458 -2.0794  0.6205  0.1072
18383TIP3    H276641   5.027   0.555   4.378  1.6093  0.8993 -1.4846
18384TIP3   OH276642   6.748   4.696   0.192  0.2335 -0.4996  0.4798
18384TIP3    H176643   6.706   4.781   0.197 -1.7081 -1.3218 -0.8987
18384TIP3    H276644   6.841   4.716   0.178 -0.2669  1.4025 -0.4230
18385TIP3   OH276645   5.759   1.074   2.090  0.2782  0.1516  0.7019
18385TIP3    H176646   5.844   1.031   2.089  0.3523  0.2841  1.1538
18385TIP3    H276647   5.711   1.032   2.161 -0.3528 -0.5204 -0.1085
18386TIP3   OH276648   2.530   3.223   2.946  0.0370 -0.2605 -0.2489
18386TIP3    H176649   2.456   3.189   2.996  1.3304  0.4665  2.2909
18386TIP3    H276650   2.596   3.153   2.950  1.3085  0.9797  1.8223
18387TIP3   OH276651   2.009   1.795  13.151 -0.0866  0.1783 -0.2741
18387TIP3    H176652   1.987   1.851  13.224 -0.1845  0.8281 -0.7912
18387TIP3    H276653   1.925   1.773  13.110  0.0406  0.7342 -0.8504
18388TIP3   OH276654   0.874   6.393   5.688 -0.2183  0.3511 -0.0314
18388TIP3    H176655   0.953   6.386   5.635  0.7337  1.4144  1.1881
18388TIP3    H276656   0.893   6.341   5.767 -1.4761 -0.9240 -0.5180
18389TIP3   OH276657   5.524   5.252  15.052 -0.2068 -0.4355  0.0795
18389TIP3    H176658   5.525   5.336  15.005  2.8255 -0.9805 -1.0922
18389TIP3    H276659   5.501   5.275  15.142 -0.2255  1.5553 -0.3862
18390TIP3   OH276660   2.538   1.883   2.725 -0.0852  0.1124  0.3101
18390TIP3    H176661   2.448   1.915   2.717 -1.0559 -2.8127 -2.8818
18390TIP3    H276662   2.588   1.934   2.661 -0.3984 -0.8641 -0.7415
18391TIP3   OH276663   5.364   0.979   1.285 -0.4194 -0.2160 -0.5708
18391TIP3    H176664   5.303   1.049   1.303  0.9482  0.7541  0.4929
18391TIP3    H276665   5.344   0.952   1.195 -0.8788  1.6301 -1.0589
18392TIP3   OH276666   0.094   3.412  13.563  1.2390 -0.4015 -0.2312
18392TIP3    H176667   0.011   3.394  13.519  0.9801  0.3906 -0.0855
18392TIP3    H276668   0.094   3.354  13.639  1.6557 -1.7230 -1.2193
18393TIP3   OH276669   4.694   4.425  11.357 -0.1135 -0.6026  0.2804
18393TIP3    H176670   4.615   4.476  11.338 -1.4554 -1.1950  3.6839
18393TIP3    H276671   4.669   4.334  11.338  0.9959 -0.4971 -2.0013
18394TIP3   OH276672   5.171   6.027  15.423 -0.3065  0.1431 -0.6418
18394TIP3    H176673   5.208   5.956  15.371  1.7719 -0.5551  1.6070
18394TIP3    H276674   5.199   6.009  15.513 -1.8037  2.4832  0.4076
18395TIP3   OH276675   1.155   2.500   3.226  0.1485  0.2227 -0.3186
18395TIP3    H176676   1.132   2.512   3.318  0.4138  0.4327 -0.2781
18395TIP3    H276677   1.199   2.582   3.201  1.5176 -0.4380 -0.1894
18396TIP3   OH276678   3.402   1.394  12.027  0.1050 -0.2897  0.2974
18396TIP3    H176679   3.335   1.383  12.094  0.8965 -1.1036  0.9793
18396TIP3    H276680   3.481   1.354  12.064  1.3261  1.7053  0.0262
18397TIP3   OH276681   2.303   1.629  12.036  0.3737  0.2534 -0.2043
18397TIP3    H176682   2.299   1.725  12.037 -1.8210  0.2192 -0.5893
18397TIP3    H276683   2.220   1.601  12.075  1.6383 -1.5261  1.3607
18398TIP3   OH276684   5.311   2.721   3.400 -0.0519 -0.6132 -0.1486
18398TIP3    H176685   5.227   2.709   3.356  0.2204 -0.7851 -0.6271
18398TIP3    H276686   5.331   2.814   3.389  0.8343 -0.9877 -1.8880
18399TIP3   OH276687   5.961   2.036   5.981 -0.0528 -0.3046  0.5549
18399TIP3    H176688   5.913   2.096   5.924  0.9692 -0.0613 -0.0780
18399TIP3    H276689   5.945   1.949   5.945  0.3435 -0.1788  0.0625
18400TIP3   OH276690   1.816   2.073   4.104  0.2489  0.4443 -1.1308
18400TIP3    H176691   1.792   2.112   4.188 -1.4169 -0.1013 -1.3156
18400TIP3    H276692   1.895   2.022   4.123 -0.7335 -0.6005  0.3987
18401TIP3   OH276693   6.698   2.193  13.490 -0.1912 -0.4164  0.0810
18401TIP3    H176694   6.713   2.099  13.502 -0.1588 -0.2735  1.2541
18401TIP3    H276695   6.614   2.199  13.445 -0.3202 -1.0015  0.2411
18402TIP3   OH276696   5.923   6.325  15.789  0.0196 -0.1506 -0.8771
18402TIP3    H176697   5.932   6.408  15.743 -0.9402 -0.5372 -1.7923
18402TIP3    H276698   5.849   6.281  15.747  0.1419 -1.2244 -0.0327
18403TIP3   OH276699   4.324   5.909   5.070 -0.0086 -0.6916 -0.5890
18403TIP3    H176700   4.338   5.839   5.007 -1.4425 -1.9405  0.4069
18403TIP3    H276701   4.251   5.960   5.033  0.3776 -0.3000 -0.8247
18404TIP3   OH276702   2.527   1.916   5.614  0.0173  0.0963 -0.3531
18404TIP3    H176703   2.573   1.996   5.640  0.9116 -0.6316  0.3609
18404TIP3    H276704   2.523   1.920   5.519  1.8460  0.0318 -0.4602
18405TIP3   OH276705   5.612   0.108   4.127  0.2085 -1.1486 -0.2059
18405TIP3    H176706   5.525   0.147   4.139  0.1011 -1.2217 -0.7404
18405TIP3    H276707   5.596   0.014   4.134  0.3670 -1.1335  0.4417
18406TIP3   OH276708   1.200   3.482  11.765 -0.2423 -0.6725  0.4545
18406TIP3    H176709   1.206   3.462  11.671 -1.7226 -0.5655  0.3159
18406TIP3    H276710   1.122   3.536  11.773  1.4856  1.8404  1.3868
18407TIP3   OH276711   5.513   2.329  10.968  0.1502 -0.1167  0.0169
18407TIP3    H176712   5.588   2.388  10.971  0.7982 -0.9537  1.4646
18407TIP3    H276713   5.532   2.270  10.895  2.4515 -2.1823  2.1041
18408TIP3   OH276714   3.624   6.140  14.730  0.3159  0.4080  0.5807
18408TIP3    H176715   3.685   6.201  14.773  0.9857  0.5222 -0.5047
18408TIP3    H276716   3.540   6.158  14.772  0.5719  1.8343  0.5433
18409TIP3   OH276717   3.153   5.671  14.865 -0.1668  0.0038 -0.4031
18409TIP3    H176718   3.203   5.727  14.924  0.3880 -0.4735 -0.4090
18409TIP3    H276719   3.179   5.699  14.777  1.1901 -1.1850 -0.4080
18410TIP3   OH276720   3.052   2.139  11.293 -0.0818 -0.0273 -0.0579
18410TIP3    H176721   2.973   2.185  11.320  0.0250  1.0423 -1.4557
18410TIP3    H276722   3.094   2.199  11.231  1.1748 -1.1112 -0.2826
18411TIP3   OH276723   5.473   3.444  12.219 -0.1098  0.1880  0.0460
18411TIP3    H176724   5.563   3.416  12.203  0.5500  0.9668  2.1136
18411TIP3    H276725   5.465   3.527  12.172 -0.6283 -1.1105 -2.2941
18412TIP3   OH276726   0.862   6.386   4.095 -0.1923  0.1061  0.4503
18412TIP3    H176727   0.803   6.442   4.044 -1.6197  0.0830  1.9789
18412TIP3    H276728   0.914   6.447   4.148  1.0716  0.1165 -0.7504
18413TIP3   OH276729   5.734   0.211   4.346 -0.2167  0.3137 -0.8394
18413TIP3    H176730   5.811   0.155   4.337  0.7783  1.0124  2.0576
18413TIP3    H276731   5.689   0.204   4.262  1.6491 -2.1114 -1.7625
18414TIP3   OH276732   0.337   0.060   1.644  0.0509  0.2972 -0.3099
18414TIP3    H176733   0.355  -0.026   1.606 -1.2758  0.9599 -2.6844
18414TIP3    H276734   0.417   0.083   1.691  0.4417 -2.1993  0.3793
18415TIP3   OH276735   5.522   1.510  11.970  0.6091  0.4239  0.2958
18415TIP3    H176736   5.614   1.534  11.966  0.4727  0.8673 -0.4448
18415TIP3    H276737   5.476   1.594  11.973  0.2625  0.2085  1.8170
18416TIP3   OH276738   5.789   5.467  12.030 -0.2657  0.0355  0.3437
18416TIP3    H176739   5.737   5.543  12.006 -0.4546 -0.5346 -1.1273
18416TIP3    H276740   5.798   5.473  12.126  0.6169  2.4540  0.1801
18417TIP3   OH276741   3.702   2.181   3.754  0.1813 -0.1164 -0.0937
18417TIP3    H176742   3.734   2.155   3.840 -0.6013  0.3566  0.3595
18417TIP3    H276743   3.671   2.100   3.714  0.0118 -0.2582  0.3130
18418TIP3   OH276744   4.308   1.045  13.491 -0.1636 -0.1404  0.0870
18418TIP3    H176745   4.299   1.140  13.491  1.3363  0.0394  1.0263
18418TIP3    H276746   4.257   1.016  13.566  1.2489  0.1905  1.2265
18419TIP3   OH276747   6.745   0.328   3.002  0.2285  0.6333 -0.8186
18419TIP3    H176748   6.808   0.396   3.023 -1.0718  1.9704 -1.0789
18419TIP3    H276749   6.719   0.345   2.912 -0.2455 -0.1147 -0.8393
18420TIP3   OH276750   2.854   3.152   1.074  0.1087 -0.2583  0.3604
18420TIP3    H176751   2.854   3.056   1.064  0.6688 -0.1462 -1.0369
18420TIP3    H276752   2.786   3.182   1.013  0.7438  0.2827 -0.0957
18421TIP3   OH276753   6.484   5.165  15.853 -0.1113  0.2521  0.2782
18421TIP3    H176754   6.457   5.216  15.929 -1.6158  0.4084 -0.3383
18421TIP3    H276755   6.560   5.211  15.819 -2.0114  2.7594 -0.8768
18422TIP3   OH276756   1.560   5.256  12.485 -0.1992  0.0777 -0.0918
18422TIP3    H176757   1.514   5.253  12.401 -0.9391 -0.3585  0.3246
18422TIP3    H276758   1.533   5.176  12.530  0.2403  0.2838  0.5457
18423TIP3   OH276759   3.838   2.166  13.856 -0.2351  0.1627  0.2208
18423TIP3    H176760   3.758   2.217  13.841  0.2865  0.9261  0.0250
18423TIP3    H276761   3.883   2.212  13.926  0.1670 -0.1165  0.1455
18424TIP3   OH276762   4.040   1.348  10.812 -0.2173  0.4097 -0.2908
18424TIP3    H176763   3.983   1.403  10.758  0.8788  2.0369  0.1170
18424TIP3    H276764   4.108   1.408  10.843  0.1435 -0.8548  1.5073
18425TIP3   OH276765   2.543   1.255   0.517  0.2499 -0.2478  0.6398
18425TIP3    H176766   2.594   1.205   0.580  0.5121  0.0130  0.6385
18425TIP3    H276767   2.453   1.227   0.531  0.6110 -2.4595 -0.9289
18426TIP3   OH276768   1.119   1.173  14.792  0.0271 -0.0595 -0.0252
18426TIP3    H176769   1.156   1.096  14.749  0.0528 -0.8458  1.3509
18426TIP3    H276770   1.187   1.202  14.853 -0.7713 -0.1901  0.9443
18427TIP3   OH276771   3.577   5.739  12.014  0.1040 -0.3634  0.0764
18427TIP3    H176772   3.499   5.761  12.064  0.6578  0.8900  0.4484
18427TIP3    H276773   3.633   5.692  12.075  1.7864  3.1641  1.5535
18428TIP3   OH276774   2.462   0.128   2.263 -0.0948 -1.0198 -0.0664
18428TIP3    H176775   2.503   0.214   2.272  0.3545 -1.3688  1.6628
18428TIP3    H276776   2.527   0.075   2.218 -0.0208 -0.6900 -0.3513
18429TIP3   OH276777   4.845   4.750  16.374 -0.0429  0.2662  0.0380
18429TIP3    H176778   4.889   4.787  16.298  2.1375 -2.0696  0.0144
18429TIP3    H276779   4.798   4.823  16.414 -1.0767  1.6318 -3.3501
18430TIP3   OH276780   2.648   0.829   0.384 -0.0223  0.5899  0.5479
18430TIP3    H176781   2.726   0.848   0.333  0.6143  0.7175  1.5421
18430TIP3    H276782   2.646   0.897   0.452 -0.9801  0.5734  0.5529
18431TIP3   OH276783   6.134   4.679   1.631 -0.1507 -0.0559 -0.1105
18431TIP3    H176784   6.070   4.713   1.694  0.0897 -1.1964  0.7967
18431TIP3    H276785   6.105   4.589   1.616  1.9395 -1.0356  1.3265
18432TIP3   OH276786   6.057   0.480   1.427  0.1817 -0.0256  0.1187
18432TIP3    H176787   6.032   0.391   1.453  1.7102 -1.0027 -1.4995
18432TIP3    H276788   5.974   0.526   1.417 -0.6389 -1.1954  1.1936
18433TIP3   OH276789   1.362   5.117   3.959 -0.3590 -0.2384  0.2732
18433TIP3    H176790   1.408   5.135   4.041  0.8431 -2.0268  0.0689
18433TIP3    H276791   1.433   5.098   3.896 -1.3065 -0.4278 -0.7691
18434TIP3   OH276792   3.459   5.182  15.586  0.5331 -0.4067  0.3453
18434TIP3    H176793   3.379   5.182  15.639 -0.3825 -0.1081 -0.9840
18434TIP3    H276794   3.482   5.090  15.577 -0.6041 -0.6117 -0.6125
18435TIP3   OH276795   1.779   2.324   2.782  0.3679 -0.3887  0.2914
18435TIP3    H176796   1.798   2.246   2.731  1.7090 -0.0668  0.2445
18435TIP3    H276797   1.864   2.350   2.818 -0.2339  0.4479  1.1632
18436TIP3   OH276798   2.135   4.873   4.374 -0.0504  0.5078 -0.3275
18436TIP3    H176799   2.047   4.905   4.398 -1.0071 -1.6695 -0.6777
18436TIP3    H276800   2.128   4.778   4.380  2.6875  0.2883  0.8607
18437TIP3   OH276801   4.759   1.499   5.294  0.0013  0.1645 -0.6903
18437TIP3    H176802   4.719   1.428   5.244 -1.4581  1.0977 -0.8933
18437TIP3    H276803   4.744   1.475   5.385  0.6049 -0.3780 -0.7230
18438TIP3   OH276804   2.094   5.623   4.720 -0.3520 -0.0079  0.2146
18438TIP3    H176805   2.134   5.545   4.684 -0.6780  0.3176 -0.9086
18438TIP3    H276806   2.001   5.616   4.695 -1.0178 -0.7003  2.6585
18439TIP3   OH276807   3.332   6.205  12.262  0.6037 -0.3587  0.2926
18439TIP3    H176808   3.276   6.262  12.209  2.0385  0.5444 -0.3146
18439TIP3    H276809   3.290   6.119  12.258 -0.4863  0.1872 -0.4894
18440TIP3   OH276810   4.586   0.262   4.923 -0.0765 -0.0346 -0.3999
18440TIP3    H176811   4.495   0.275   4.952 -0.2093 -0.8152 -0.4471
18440TIP3    H276812   4.618   0.190   4.977  0.9797  1.1511  0.6162
18441TIP3   OH276813   3.755   2.922  10.873  0.2057 -0.3828  0.1934
18441TIP3    H176814   3.696   2.883  10.808 -0.7511  0.3517  0.5946
18441TIP3    H276815   3.780   2.849  10.929 -1.0577 -0.5649  0.5563
18442TIP3   OH276816   2.978   1.809   0.356  0.5086 -0.6325  0.5879
18442TIP3    H176817   2.930   1.726   0.353 -0.5862  0.0058 -1.0680
18442TIP3    H276818   2.910   1.876   0.353  1.3271  0.3882  2.8052
18443TIP3   OH276819   3.836   3.353  11.478 -0.3673  0.4253  0.0116
18443TIP3    H176820   3.823   3.311  11.563 -1.5552  1.9133  0.6097
18443TIP3    H276821   3.895   3.294  11.431 -0.6703 -1.0540  1.3977
18444TIP3   OH276822   1.942   1.740   3.962  0.0298  0.3233  0.0284
18444TIP3    H176823   1.937   1.648   3.936 -0.8065  0.2097  0.5572
18444TIP3    H276824   2.031   1.752   3.994  0.2855 -0.1782 -0.4759
18445TIP3   OH276825   4.690   5.286   0.069  0.2071 -0.6063  0.0735
18445TIP3    H176826   4.704   5.206   0.120  0.9454  0.9735  2.5409
18445TIP3    H276827   4.776   5.309   0.035 -0.1942 -1.3770 -1.5751
18446TIP3   OH276828   0.635   5.494  12.288  0.2390 -0.3811 -0.2493
18446TIP3    H176829   0.729   5.486  12.268  0.1003 -1.2469 -0.6246
18446TIP3    H276830   0.592   5.489  12.202 -0.2667 -2.3619  0.0595
18447TIP3   OH276831   3.783   2.806   3.289 -0.1102  0.3752 -0.6955
18447TIP3    H176832   3.824   2.776   3.207  0.5474 -1.0546  0.1243
18447TIP3    H276833   3.855   2.807   3.352 -0.8489  0.3051  0.1628
18448TIP3   OH276834   4.797   1.882   5.834 -0.3725  0.0466  0.8473
18448TIP3    H176835   4.813   1.946   5.764  1.3759 -0.6473  0.5471
18448TIP3    H276836   4.705   1.894   5.857 -1.2835 -0.2604 -2.1570
18449TIP3   OH276837   4.608   5.258   4.513 -0.2767 -0.2607 -0.0924
18449TIP3    H176838   4.696   5.295   4.515 -0.0161 -0.8357  2.5544
18449TIP3    H276839   4.617   5.176   4.464  0.7480 -0.4848  0.4424
18450TIP3   OH276840   4.828   6.630   5.034  0.1210  0.4151  0.8195
18450TIP3    H176841   4.874   6.709   5.062 -0.1355  0.8710 -0.0267
18450TIP3    H276842   4.896   6.563   5.028  0.5099  0.8417  0.4992
18451TIP3   OH276843   5.319   4.869   4.959 -0.1152  0.4926 -0.3004
18451TIP3    H176844   5.294   4.777   4.954 -0.3569  0.5515 -0.1602
18451TIP3    H276845   5.320   4.889   5.052 -0.5608  0.7674 -0.3529
18452TIP3   OH276846   3.079   6.295  15.048  0.3576 -0.7534  0.0267
18452TIP3    H176847   3.148   6.284  14.983  1.2665 -0.5982  0.9263
18452TIP3    H276848   3.025   6.217  15.041  1.8143 -1.8663  0.6562
18453TIP3   OH276849   6.323   0.026   4.184 -0.4482 -0.4183  0.5993
18453TIP3    H176850   6.333   0.022   4.089 -0.8246 -1.3589  0.5782
18453TIP3    H276851   6.243  -0.024   4.201 -0.7236  0.2603  1.3626
18454TIP3   OH276852   3.459   0.327   4.461 -0.8282 -0.0537 -0.2614
18454TIP3    H176853   3.434   0.235   4.459 -0.1494 -0.4348  3.0127
18454TIP3    H276854   3.395   0.368   4.520 -0.8220  1.5022 -1.2799
18455TIP3   OH276855   1.961   1.947   1.840  0.5444 -0.3395 -0.6136
18455TIP3    H176856   1.973   1.913   1.751 -2.7631 -0.9800 -0.9238
18455TIP3    H276857   2.045   1.931   1.883  1.5906 -1.8889 -3.0288
18456TIP3   OH276858   1.548   3.316  13.981 -0.9894  0.0224  0.1679
18456TIP3    H176859   1.460   3.343  14.005 -1.1541 -1.5966  1.5865
18456TIP3    H276860   1.535   3.241  13.923 -0.5533 -0.5014  0.7400
18457TIP3   OH276861   4.638   5.090   2.983 -0.1701 -1.1012 -0.2118
18457TIP3    H176862   4.633   5.080   2.888  0.6559 -1.8251 -0.1873
18457TIP3    H276863   4.561   5.042   3.016 -1.2441  0.3187 -0.5637
18458TIP3   OH276864   5.669   2.100  15.158  0.5676 -0.2310  0.1510
18458TIP3    H176865   5.711   2.015  15.150  0.2407 -0.3788 -0.0009
18458TIP3    H276866   5.649   2.126  15.069 -1.8905 -1.2888  0.3334
18459TIP3   OH276867   3.160   3.626   4.308  0.5658  0.0414 -0.3704
18459TIP3    H176868   3.138   3.640   4.400  1.2772  1.0520 -0.3318
18459TIP3    H276869   3.134   3.536   4.290  1.3355 -0.5109  1.0975
18460TIP3   OH276870   1.939   5.559   3.456 -0.3579 -0.0560  0.1575
18460TIP3    H176871   1.886   5.538   3.533 -0.8705 -1.8187 -0.6172
18460TIP3    H276872   1.875   5.571   3.386  0.1313  0.9826 -0.1267
18461TIP3   OH276873   4.273   5.212  13.767  0.1824  0.1330  0.1942
18461TIP3    H176874   4.212   5.232  13.838 -1.9251  1.8379 -1.9172
18461TIP3    H276875   4.358   5.201  13.810 -1.1028  0.3719  2.9986
18462TIP3   OH276876   2.089   1.317  14.732  0.6641  0.4392  0.6175
18462TIP3    H176877   2.133   1.402  14.718  0.6034  0.7212  1.9763
18462TIP3    H276878   2.136   1.257  14.675  2.9784  0.7093  2.0883
18463TIP3   OH276879   3.315   5.822  16.619  0.2899  0.1334 -0.5188
18463TIP3    H176880   3.291   5.788  16.706  2.1125  1.5645  0.6256
18463TIP3    H276881   3.371   5.754  16.582 -1.2797 -0.9308 -1.0637
18464TIP3   OH276882   1.690   5.248  12.073  0.1194  0.0794  0.1033
18464TIP3    H176883   1.731   5.165  12.047 -0.2344  0.2709 -1.1186
18464TIP3    H276884   1.750   5.315  12.041 -0.5180  0.3314 -0.5906
18465TIP3   OH276885   6.670   5.136   1.445  0.1267  0.5287  0.7861
18465TIP3    H176886   6.742   5.086   1.484 -0.1404  0.4110  1.1350
18465TIP3    H276887   6.701   5.227   1.446  0.3565  0.4519  0.7361
18466TIP3   OH276888   4.187   6.089  14.638  0.3130  0.0577 -0.8800
18466TIP3    H176889   4.201   6.001  14.672  1.6017  0.3218 -0.7008
18466TIP3    H276890   4.201   6.082  14.544 -2.0874 -0.4245 -1.2657
18467TIP3   OH276891   0.422   3.278  16.528  0.7088  0.6969  0.1654
18467TIP3    H176892   0.479   3.339  16.575 -2.2826  3.0763  1.0451
18467TIP3    H276893   0.433   3.301  16.435 -0.4416  2.8048  0.4855
18468TIP3   OH276894   5.943   4.827   4.335 -0.5553 -0.0898  0.3098
18468TIP3    H176895   5.930   4.773   4.257 -1.0408  0.8007 -0.2392
18468TIP3    H276896   5.986   4.768   4.398  2.1319 -0.1686 -1.4269
18469TIP3   OH276897   4.919   0.021  13.985 -0.3976  0.4859  0.2163
18469TIP3    H176898   4.894   0.096  13.930 -1.6111  0.0303  0.1051
18469TIP3    H276899   4.839   0.000  14.034  0.7656  1.2481  2.6296
18470TIP3   OH276900   5.725   4.444   6.075 -0.2200  0.2815 -0.0202
18470TIP3    H176901   5.722   4.365   6.022 -0.9893 -0.0899  0.5605
18470TIP3    H276902   5.634   4.474   6.079  0.3635  2.8654 -2.6812
18471TIP3   OH276903   3.323   4.064  13.450  0.1690  0.4614  0.3610
18471TIP3    H176904   3.386   4.032  13.386 -0.0955  0.6125  0.0185
18471TIP3    H276905   3.238   4.034  13.417 -0.2628  2.7211 -0.7841
18472TIP3   OH276906   0.862   4.833   4.828 -0.0603  0.3653 -0.4468
18472TIP3    H176907   0.955   4.850   4.844 -0.3699  1.5579  0.1722
18472TIP3    H276908   0.829   4.915   4.790 -1.0324  0.2289  0.0806
18473TIP3   OH276909   4.736   1.413   2.102  0.4479 -0.2345 -0.2722
18473TIP3    H176910   4.689   1.437   2.183 -0.3073 -1.6321 -0.2699
18473TIP3    H276911   4.722   1.488   2.044  2.1544  1.4267  1.3150
18474TIP3   OH276912   3.700   2.066   5.118  0.4963 -0.3379  0.0937
18474TIP3    H176913   3.751   2.145   5.135 -0.0898  0.3072 -1.0513
18474TIP3    H276914   3.612   2.098   5.098  0.2296 -1.2831 -0.2966
18475TIP3   OH276915   3.307   2.861   3.446  0.1537 -0.1676 -0.0305
18475TIP3    H176916   3.388   2.819   3.418  1.1800  1.6819 -0.0036
18475TIP3    H276917   3.281   2.916   3.371 -0.7133 -0.2406  0.2038
18476TIP3   OH276918   3.527   5.873  16.329  0.7611  0.7130 -0.3362
18476TIP3    H176919   3.468   5.846  16.258  1.6951  0.0085 -0.8793
18476TIP3    H276920   3.475   5.931  16.383 -0.7939 -0.7823 -0.1494
18477TIP3   OH276921   4.527   2.009  12.900  0.1673  0.2149  0.4600
18477TIP3    H176922   4.531   1.915  12.916  1.5298 -0.1335 -1.6107
18477TIP3    H276923   4.514   2.017  12.805  0.1430  2.1167  0.5896
18478TIP3   OH276924   0.516   4.238   2.919 -0.3021 -0.3510  0.1014
18478TIP3    H176925   0.520   4.145   2.942 -0.7301 -0.4818 -0.3415
18478TIP3    H276926   0.552   4.242   2.830 -1.7448 -0.3319 -0.5207
18479TIP3   OH276927   2.177   2.989  16.067 -0.4051  0.3148  0.3152
18479TIP3    H176928   2.271   2.973  16.067 -0.6590 -1.4514  1.0709
18479TIP3    H276929   2.141   2.924  16.006 -1.2250  0.1524  0.9391
18480TIP3   OH276930   0.026   3.912  13.991 -0.0698 -0.8133  0.2323
18480TIP3    H176931  -0.050   3.855  13.981 -0.2688 -0.7201  1.1196
18480TIP3    H276932   0.046   3.941  13.902 -1.9873  0.3403  0.1290
18481TIP3   OH276933   4.838   0.875  14.837  0.1674  0.4196  0.5485
18481TIP3    H176934   4.783   0.804  14.801 -0.3086  1.0084  0.0888
18481TIP3    H276935   4.781   0.952  14.834  0.2645  0.5766  2.2055
18482TIP3   OH276936   5.830   5.044  11.047  0.1032 -0.1170  0.1488
18482TIP3    H176937   5.781   4.963  11.058  0.1836 -0.1238  0.4711
18482TIP3    H276938   5.771   5.102  10.999  0.2571 -0.5552 -0.5728
18483TIP3   OH276939   4.618   4.583  14.447 -0.1249 -0.3834  0.3297
18483TIP3    H176940   4.660   4.668  14.433  1.9820 -1.3480  0.3478
18483TIP3    H276941   4.604   4.579  14.541 -2.5369  0.8921  0.1081
18484TIP3   OH276942   6.062   3.389  15.630 -0.1399  0.2389  0.2828
18484TIP3    H176943   5.968   3.368  15.633 -0.2447  0.6687  0.0806
18484TIP3    H276944   6.085   3.406  15.722 -0.1302 -0.4215  0.4039
18485TIP3   OH276945   6.213   6.240   2.182 -0.6673 -0.1182 -0.4014
18485TIP3    H176946   6.212   6.313   2.120 -1.3614  1.1727  1.0619
18485TIP3    H276947   6.266   6.173   2.139  2.0455  2.1220 -0.8498
18486TIP3   OH276948   1.363   4.940  14.830 -0.1443 -0.3560 -0.3814
18486TIP3    H176949   1.286   4.972  14.878  0.1906  1.7083 -1.1022
18486TIP3    H276950   1.408   4.883  14.892  0.4757  2.4733  2.0203
18487TIP3   OH276951   4.411   0.475   0.259 -0.1877 -0.0655  0.2645
18487TIP3    H176952   4.492   0.456   0.213  1.8369 -0.2778  3.5522
18487TIP3    H276953   4.410   0.413   0.332 -2.5059  0.9857  1.2382
18488TIP3   OH276954   5.925   5.031   0.105  0.0693  0.3016 -0.1111
18488TIP3    H176955   5.846   4.985   0.132  1.4689 -2.5755 -0.4694
18488TIP3    H276956   5.973   5.047   0.186 -0.9578  2.4545  0.1594
18489TIP3   OH276957   6.548   5.743  12.172 -0.2925 -0.2699  0.8670
18489TIP3    H176958   6.585   5.801  12.238 -2.2960  1.5788  0.5007
18489TIP3    H276959   6.475   5.700  12.216 -1.0930  0.3103  0.1380
18490TIP3   OH276960   6.421   5.375   5.688 -0.0248 -0.4021  0.4475
18490TIP3    H176961   6.356   5.319   5.645  0.4143 -0.2534 -0.4373
18490TIP3    H276962   6.369   5.438   5.738 -0.6326  0.5283 -1.2775
18491TIP3   OH276963   5.249   3.954  12.189  0.0314 -0.0421 -0.4874
18491TIP3    H176964   5.244   3.998  12.104  0.7136  1.3619  0.1594
18491TIP3    H276965   5.340   3.925  12.196  0.4237  1.3231  0.4314
18492TIP3   OH276966   2.943   4.985  12.389 -0.8916 -0.7550  0.2922
18492TIP3    H176967   2.973   4.896  12.371  0.9861 -0.2266  0.6275
18492TIP3    H276968   2.950   5.031  12.306 -0.4086 -0.5264  0.4585
18493TIP3   OH276969   6.646   1.685  12.887  0.0362 -0.1987 -0.1349
18493TIP3    H176970   6.633   1.650  12.799 -0.9981 -0.0442 -0.0563
18493TIP3    H276971   6.721   1.638  12.921 -0.3538 -1.1932 -0.6256
18494TIP3   OH276972   4.581   5.704   5.539 -0.1630 -0.3947 -0.0458
18494TIP3    H176973   4.634   5.625   5.544  0.8770  0.2965  0.1244
18494TIP3    H276974   4.521   5.688   5.465  0.3635 -1.1307 -0.3224
18495TIP3   OH276975   2.271   6.548  12.662  0.1550 -0.0442 -0.1289
18495TIP3    H176976   2.186   6.592  12.661  0.6672  0.9837 -0.7804
18495TIP3    H276977   2.253   6.460  12.694 -0.9354  0.5825  1.0248
18496TIP3   OH276978   6.200   2.660   5.647 -0.3065  0.3269 -0.3395
18496TIP3    H176979   6.246   2.727   5.697 -0.5007  0.6900 -0.6403
18496TIP3    H276980   6.261   2.586   5.644 -1.3212 -0.7860  2.7697
18497TIP3   OH276981   0.096   0.236  11.334  0.6176 -0.7593  0.3938
18497TIP3    H176982   0.073   0.151  11.373  0.0288 -1.4198 -1.3008
18497TIP3    H276983   0.019   0.291  11.350  0.3785 -1.0281  0.1794
18498TIP3   OH276984   2.370   0.324   3.373  0.5090 -0.0506 -0.0259
18498TIP3    H176985   2.388   0.232   3.351 -0.0516 -0.7016  1.9698
18498TIP3    H276986   2.287   0.344   3.329  1.0887 -0.1767 -1.2220
18499TIP3   OH276987   2.538   1.740   5.233 -0.3748  0.2484  0.2673
18499TIP3    H176988   2.608   1.733   5.298  1.2494  0.3535 -1.3745
18499TIP3    H276989   2.513   1.650   5.214  0.4378  0.1174 -0.2467
18500TIP3   OH276990   2.948   4.260   4.613 -0.3816  1.2652  0.4049
18500TIP3    H176991   2.870   4.239   4.562 -0.5793  1.5914  0.5730
18500TIP3    H276992   2.993   4.327   4.561  1.0708 -0.6077 -0.9348
18501TIP3   OH276993   0.405   0.313  12.961 -0.2803  0.0147 -0.2411
18501TIP3    H176994   0.414   0.229  12.916 -0.1123 -0.3045  0.3900
18501TIP3    H276995   0.451   0.301  13.044 -0.3024  0.7128 -0.1270
18502TIP3   OH276996   1.548   4.308   0.227  0.9078 -0.4385  0.1832
18502TIP3    H176997   1.485   4.321   0.155 -0.8037 -0.3071  1.6389
18502TIP3    H276998   1.589   4.393   0.238  1.1617 -0.4497 -0.6140
18503TIP3   OH276999   2.276   1.618  13.861 -0.4336  0.0357 -0.0287
18503TIP3    H177000   2.241   1.630  13.949 -0.0434  0.9610  0.0170
18503TIP3    H277001   2.328   1.538  13.866  0.2302  0.5010  0.8043
18504TIP3   OH277002   5.403   1.837  16.169  0.1873 -0.2490 -0.2669
18504TIP3    H177003   5.361   1.858  16.253  1.3915  1.3569 -0.0170
18504TIP3    H277004   5.465   1.768  16.191  0.1138 -0.2197  0.0523
18505TIP3   OH277005   0.935   0.964   5.087 -0.2442  0.0013 -0.3226
18505TIP3    H177006   1.028   0.981   5.079 -0.2923  1.2102  1.2520
18505TIP3    H277007   0.901   1.036   5.140 -1.8710 -1.0145  0.1040
18506TIP3   OH277008   4.231   2.766   0.901 -0.3247  0.1780 -0.5654
18506TIP3    H177009   4.313   2.721   0.920 -1.1341 -1.4465 -0.7638
18506TIP3    H277010   4.249   2.819   0.823  0.2271 -1.0684 -1.3073
18507TIP3   OH277011   4.299   5.550  11.149  0.1797  0.1105  0.0328
18507TIP3    H177012   4.311   5.554  11.054  5.2720  0.8845  0.4429
18507TIP3    H277013   4.301   5.456  11.169 -1.2402 -0.0748 -0.5424
18508TIP3   OH277014   0.161   1.809   4.663  0.3253 -0.6101 -0.2433
18508TIP3    H177015   0.187   1.885   4.611 -4.2316  3.1096  2.1434
18508TIP3    H277016   0.216   1.813   4.742  0.0626  0.2998 -0.1013
18509TIP3   OH277017   2.447   6.246   4.162  0.6098  0.3685  0.3359
18509TIP3    H177018   2.457   6.293   4.079 -0.7691 -2.5607 -1.6660
18509TIP3    H277019   2.353   6.234   4.171  0.8238 -0.4025  1.6975
18510TIP3   OH277020   3.987   2.821   1.153 -0.0708  0.1547  0.2886
18510TIP3    H177021   3.973   2.828   1.058 -2.4184  2.0750  0.6884
18510TIP3    H277022   3.925   2.754   1.181  2.5123 -2.4489  0.2314
18511TIP3   OH277023   3.883   4.695   5.206  0.1312 -0.3266 -0.5077
18511TIP3    H177024   3.848   4.762   5.147 -0.1156 -0.6801 -0.7672
18511TIP3    H277025   3.874   4.733   5.293  0.8372  0.3538 -0.7194
18512TIP3   OH277026   5.242   6.099   5.182 -0.3383  0.4650  0.2919
18512TIP3    H177027   5.176   6.033   5.163  0.4814 -1.9039  4.4810
18512TIP3    H277028   5.325   6.057   5.161  0.0974  1.0705  0.7577
18513TIP3   OH277029   4.273   5.806  14.520  0.0507 -0.5083 -0.3647
18513TIP3    H177030   4.183   5.792  14.491  0.3753 -0.6274 -1.3227
18513TIP3    H277031   4.290   5.733  14.580 -0.2861 -0.8161 -0.6398
18514TIP3   OH277032   5.921   6.794  13.524 -0.6425  0.0697 -0.4033
18514TIP3    H177033   5.971   6.820  13.602 -1.0854  0.9435 -0.4014
18514TIP3    H277034   5.851   6.859  13.517 -1.0637 -0.4454 -1.0966
18515TIP3   OH277035   3.854   1.628  12.421  0.7788  0.1686 -0.5358
18515TIP3    H177036   3.890   1.660  12.338  1.7915  0.3960 -0.0233
18515TIP3    H277037   3.782   1.688  12.440  0.9945  0.5522 -0.8972
18516TIP3   OH277038   3.953   6.613   4.548 -0.4785 -0.3261 -0.2764
18516TIP3    H177039   3.975   6.538   4.604 -0.9156 -0.5676 -0.4183
18516TIP3    H277040   4.034   6.663   4.542 -0.5161 -0.1144  0.8435
18517TIP3   OH277041   1.913   3.605  11.783 -0.5299  0.2565  0.0901
18517TIP3    H177042   1.847   3.665  11.748 -2.2431 -1.1932  0.6700
18517TIP3    H277043   1.880   3.583  11.870 -0.3876 -2.0964 -0.4008
18518TIP3   OH277044   1.097   0.378  16.470 -0.5846  0.1887 -0.3145
18518TIP3    H177045   1.061   0.445  16.412 -0.5243  0.0433 -0.5207
18518TIP3    H277046   1.166   0.424  16.520 -0.9325  0.4204 -0.0422
18519TIP3   OH277047   1.076   4.860   3.705  0.2786 -0.3526  0.5131
18519TIP3    H177048   1.108   4.889   3.790 -2.3410 -2.0735  2.2498
18519TIP3    H277049   1.046   4.770   3.720 -2.6548  0.1338 -1.5005
18520TIP3   OH277050   4.723   4.747   2.720  0.0499 -0.5028  0.2430
18520TIP3    H177051   4.795   4.685   2.739  0.9242  0.8146  1.4827
18520TIP3    H277052   4.652   4.719   2.778  0.2953 -0.5913  0.5031
18521TIP3   OH277053   4.884   1.129  12.121  0.4953  0.4494  0.4120
18521TIP3    H177054   4.926   1.112  12.205 -0.4227  1.8922  1.2049
18521TIP3    H277055   4.791   1.136  12.143  0.0951 -0.3708 -0.9315
18522TIP3   OH277056   6.586   4.369   2.992  0.1599 -0.5398 -0.4020
18522TIP3    H177057   6.589   4.365   3.088  4.1914 -1.6028 -0.3688
18522TIP3    H277058   6.589   4.462   2.972 -0.8078 -0.3020  0.5047
18523TIP3   OH277059   0.449   1.269  14.691 -0.5266 -1.0198  0.0476
18523TIP3    H177060   0.448   1.208  14.765 -2.0325 -1.2324 -0.1111
18523TIP3    H277061   0.443   1.212  14.614 -1.5351 -0.7069 -0.1176
18524TIP3   OH277062   1.631   6.680  11.935 -0.1235 -0.2447  0.1354
18524TIP3    H177063   1.723   6.700  11.952 -0.1958  0.9495 -0.7944
18524TIP3    H277064   1.622   6.587  11.959  1.4336 -0.5195 -0.2442
18525TIP3   OH277065   3.764   2.723  13.439  0.0618 -0.2296 -0.1315
18525TIP3    H177066   3.712   2.727  13.520 -0.6375 -1.8243 -0.4449
18525TIP3    H277067   3.821   2.647  13.452 -0.2059 -0.6314 -1.1999
18526TIP3   OH277068   4.069   4.172  14.289  0.4706 -0.7000 -0.6647
18526TIP3    H177069   3.990   4.206  14.331  0.8082 -0.4616 -0.2080
18526TIP3    H277070   4.075   4.081  14.320  1.5130 -0.1156  1.0464
18527TIP3   OH277071   2.010   6.680   1.077 -0.5171  0.1712 -0.1824
18527TIP3    H177072   2.085   6.622   1.065 -0.0287  0.9574 -1.0170
18527TIP3    H277073   1.953   6.660   1.003 -0.3247  0.7791 -0.4975
18528TIP3   OH277074   6.415   5.071   1.549 -0.3005 -0.4173  0.8381
18528TIP3    H177075   6.364   5.041   1.474 -1.0074 -0.2670  1.2475
18528TIP3    H277076   6.502   5.091   1.513 -0.8005  0.2401 -0.0458
18529TIP3   OH277077   0.835   3.131  16.398  0.1480  0.1574  0.0889
18529TIP3    H177078   0.857   3.129  16.491 -0.0333 -0.5184  0.1182
18529TIP3    H277079   0.899   3.191  16.359  0.4424  0.1660  0.5842
18530TIP3   OH277080   0.278   4.825   4.161  0.3586 -0.0699  0.5712
18530TIP3    H177081   0.207   4.816   4.224 -0.8399 -0.4257 -0.7776
18530TIP3    H277082   0.291   4.736   4.127  1.0804  0.0882  0.4095
18531TIP3   OH277083   2.171   6.368   3.281  0.6736  0.0888  0.0223
18531TIP3    H177084   2.141   6.281   3.253  1.7215  0.2877 -1.9271
18531TIP3    H277085   2.104   6.428   3.246 -0.2586  0.0933  1.7012
18532TIP3   OH277086   4.226   3.777  11.782  0.8571  0.5138  0.4430
18532TIP3    H177087   4.307   3.761  11.830  0.9480  0.2149  0.1986
18532TIP3    H277088   4.201   3.866  11.806  0.7038  0.2402  1.3208
18533TIP3   OH277089   3.875   1.636   0.547  0.4109  0.6867  0.2351
18533TIP3    H177090   3.953   1.676   0.510 -0.3705  1.0061 -1.1661
18533TIP3    H277091   3.812   1.708   0.555 -0.1793  0.2045  0.0728
18534TIP3   OH277092   4.796   2.475   4.998  0.5377  0.5065  0.6499
18534TIP3    H177093   4.882   2.438   5.017 -0.2025 -2.0619 -0.5749
18534TIP3    H277094   4.735   2.426   5.053 -0.2862  1.5098  0.6739
18535TIP3   OH277095   1.499   5.108  17.028  0.5418  0.0810 -0.2523
18535TIP3    H177096   1.490   5.194  16.986  1.8039  0.1521 -0.4102
18535TIP3    H277097   1.435   5.110  17.100  0.3056  1.0097 -0.4715
18536TIP3   OH277098   3.111   2.560   3.310 -0.1074  0.2012 -0.0907
18536TIP3    H177099   3.198   2.532   3.280  0.4694  1.3625  0.4044
18536TIP3    H277100   3.051   2.495   3.275  1.0363 -0.9960  0.0838
18537TIP3   OH277101   5.011   2.392  11.087  0.0297  1.3890 -0.0717
18537TIP3    H177102   4.988   2.421  10.998  2.0040  1.7650 -0.4981
18537TIP3    H277103   5.103   2.368  11.081  0.4911  2.4205  2.1405
18538TIP3   OH277104   0.157   2.661  16.827 -0.5021 -0.2990 -0.0219
18538TIP3    H177105   0.246   2.648  16.795 -0.5225 -0.0906 -0.1681
18538TIP3    H277106   0.101   2.640  16.752 -0.5963 -0.8419  0.1940
18539TIP3   OH277107   5.350   5.975   2.770 -0.9623  0.8848 -0.3899
18539TIP3    H177108   5.281   6.035   2.742 -1.0435  0.2081 -1.7255
18539TIP3    H277109   5.406   5.965   2.693  1.2082  2.1374  0.9144
18540TIP3   OH277110   4.011   5.615   2.285 -0.2698 -0.7069 -0.6603
18540TIP3    H177111   4.003   5.533   2.334 -0.1518  0.5271  1.5148
18540TIP3    H277112   3.936   5.667   2.313  2.6181  2.1803  2.5967
18541TIP3   OH277113   0.716   5.201  12.083 -0.6509 -0.5404 -0.0686
18541TIP3    H177114   0.810   5.188  12.069 -0.5731  0.8180 -0.9457
18541TIP3    H277115   0.708   5.214  12.177  0.1371  0.0481 -0.0693
18542TIP3   OH277116   1.063   2.648   0.853  0.0206 -0.2182  0.4746
18542TIP3    H177117   1.043   2.556   0.872  0.2259 -0.3662  0.0047
18542TIP3    H277118   1.034   2.696   0.930  0.0826 -0.7035  0.8022
18543TIP3   OH277119   3.718   0.090  16.363 -0.7232 -0.1521 -0.7333
18543TIP3    H177120   3.632   0.055  16.338 -1.1674 -0.1574  0.7455
18543TIP3    H277121   3.709   0.185  16.352 -0.0719 -0.3026 -3.0503
18544TIP3   OH277122   1.381   4.228  13.965 -0.7044  0.2507 -0.4150
18544TIP3    H177123   1.402   4.136  13.950 -1.2906 -0.1375  0.9713
18544TIP3    H277124   1.324   4.252  13.892 -0.4463 -0.4479 -0.8527
18545TIP3   OH277125   1.714   1.841   0.631  0.3103  0.3568  0.3373
18545TIP3    H177126   1.763   1.913   0.670  1.4095  0.0154 -0.3609
18545TIP3    H277127   1.646   1.820   0.696  1.2587  0.6599  1.4713
18546TIP3   OH277128   2.781   1.513   6.281 -0.1398 -0.2378 -0.1244
18546TIP3    H177129   2.738   1.596   6.302  0.8659  0.8768 -2.1547
18546TIP3    H277130   2.795   1.471   6.366  1.7499  2.9176  1.3099
18547TIP3   OH277131   5.847   6.012   5.282  0.2073 -0.1278 -0.0607
18547TIP3    H177132   5.784   6.029   5.212  0.6452 -2.1247 -1.0285
18547TIP3    H277133   5.806   6.044   5.361 -0.6672  1.4555 -1.1128
18548TIP3   OH277134   5.350   0.987  14.591  0.1469 -0.2852  0.1523
18548TIP3    H177135   5.275   0.940  14.627  0.8108 -0.2772  1.6094
18548TIP3    H277136   5.379   1.045  14.662  0.7235  0.6919 -0.8409
18549TIP3   OH277137   2.387   1.282  11.390 -0.0371  0.3013  0.7493
18549TIP3    H177138   2.300   1.263  11.424 -0.6457 -0.2827 -1.0114
18549TIP3    H277139   2.439   1.205  11.414 -0.6188 -0.3840 -0.1133
18550TIP3   OH277140   1.054   3.537   1.751  0.2012 -0.7710  0.2640
18550TIP3    H177141   1.091   3.589   1.822 -2.1559 -1.2288  1.9365
18550TIP3    H277142   1.120   3.469   1.734  1.3010  0.0197  1.2333
18551TIP3   OH277143   4.124   4.332  13.181 -0.0780 -0.1694  0.3146
18551TIP3    H177144   4.094   4.352  13.092 -0.1396 -0.6836  0.2154
18551TIP3    H277145   4.044   4.329  13.233 -0.0112  0.4768  0.4606
18552TIP3   OH277146   0.290   1.970  14.808  0.0437 -0.4148  0.5677
18552TIP3    H177147   0.224   1.942  14.871  0.4806 -1.0500  0.7649
18552TIP3    H277148   0.269   1.922  14.728 -0.1609 -0.0661  0.4140
18553TIP3   OH277149   6.708   4.292   5.475  0.5806  0.0220  0.0757
18553TIP3    H177150   6.674   4.362   5.530 -0.8962  0.0479 -0.8364
18553TIP3    H277151   6.688   4.318   5.386  0.9664 -1.0615 -0.3487
18554TIP3   OH277152   3.315   5.184   2.897 -0.7922 -0.2439  0.1499
18554TIP3    H177153   3.350   5.254   2.843  0.2069 -1.0370 -0.2570
18554TIP3    H277154   3.220   5.191   2.887 -0.6308 -0.3778 -1.7082
18555TIP3   OH277155   4.062   1.794   4.812 -0.8878  0.7946 -0.2896
18555TIP3    H177156   4.105   1.778   4.896  0.8601  0.9232 -1.1070
18555TIP3    H277157   4.020   1.879   4.822  0.0422  1.2128  0.2013
18556TIP3   OH277158   0.031   1.154  12.594  0.6189  0.0856 -0.0138
18556TIP3    H177159   0.106   1.208  12.571  0.5396  0.5297  0.7166
18556TIP3    H277160   0.065   1.093  12.659  0.5850 -0.3953 -0.4466
18557TIP3   OH277161   2.214   1.441   5.324  0.4377 -0.6383  0.0783
18557TIP3    H177162   2.278   1.484   5.267 -0.3662  1.2719  0.5100
18557TIP3    H277163   2.260   1.367   5.362  2.7043  1.1218  1.0009
18558TIP3   OH277164   5.567   5.985  12.006 -0.2007  0.7704  0.1526
18558TIP3    H177165   5.617   6.018  12.080 -1.6706  3.2389  0.1606
18558TIP3    H277166   5.627   5.993  11.931 -0.4954  3.9143  0.1112
18559TIP3   OH277167   5.581   2.186  14.320 -0.0090  0.7177 -0.0022
18559TIP3    H177168   5.541   2.100  14.309  1.6492  0.1421 -2.4211
18559TIP3    H277169   5.673   2.172  14.300  0.5157  2.8772  0.6391
18560TIP3   OH277170   4.323   1.269  16.325  0.2809 -0.6413 -0.1704
18560TIP3    H177171   4.263   1.316  16.267  0.4607 -2.3366 -1.8096
18560TIP3    H277172   4.379   1.219  16.266  2.8383  0.2512  1.3273
18561TIP3   OH277173   1.031   6.433   1.576 -0.9207 -0.5482 -0.7571
18561TIP3    H177174   1.111   6.391   1.543 -0.3472 -0.7897  0.8383
18561TIP3    H277175   1.035   6.420   1.671 -2.2466  0.5231 -0.5275
18562TIP3   OH277176   2.890   4.480  16.211 -0.5862  0.1828 -0.4649
18562TIP3    H177177   2.882   4.468  16.116 -0.6899 -1.4593 -0.2879
18562TIP3    H277178   2.834   4.411  16.248  0.6528 -0.1953  0.7782
18563TIP3   OH277179   5.143   0.884  17.075 -0.2460  0.2784 -0.0642
18563TIP3    H177180   5.087   0.962  17.068 -0.3886  0.3227  1.3282
18563TIP3    H277181   5.225   0.916  17.114  1.0327  0.3196 -2.5893
18564TIP3   OH277182   6.224   1.803  12.039  0.2212 -0.0115  0.6478
18564TIP3    H177183   6.194   1.880  11.990 -2.8426 -0.8623  0.9974
18564TIP3    H277184   6.228   1.833  12.130  0.1418  0.0251  0.6392
18565TIP3   OH277185   0.277   2.428   5.223  0.1517 -0.8533  0.1920
18565TIP3    H177186   0.217   2.392   5.288 -0.0318  0.8923  1.0513
18565TIP3    H277187   0.285   2.521   5.246  1.3215 -0.5243 -1.3410
18566TIP3   OH277188   4.281   3.694   6.096 -0.0399  0.2974  0.5490
18566TIP3    H177189   4.208   3.682   6.036  1.0112  2.3889 -1.2873
18566TIP3    H277190   4.245   3.747   6.167 -0.0001  3.1336 -1.3599
18567TIP3   OH277191   2.787   0.491  11.541 -0.3072  0.6399 -0.3574
18567TIP3    H177192   2.796   0.572  11.491  0.8950  1.2947  0.8513
18567TIP3    H277193   2.865   0.488  11.597 -0.1041 -1.5644 -0.6519
18568TIP3   OH277194   3.943   6.359  16.456  0.4227  0.3854  0.0013
18568TIP3    H177195   3.847   6.360  16.458  0.4344  0.6508  0.9761
18568TIP3    H277196   3.966   6.271  16.427 -0.1176 -0.5184  2.0936
18569TIP3   OH277197   1.837   5.308   2.286 -0.8435 -0.4249  0.1061
18569TIP3    H177198   1.786   5.255   2.224  1.0306 -1.1585 -0.9031
18569TIP3    H277199   1.885   5.243   2.338 -0.5562  0.2487  0.6882
18570TIP3   OH277200   2.519   2.588   4.493  0.6970  0.1045  0.1655
18570TIP3    H177201   2.543   2.496   4.502  2.2212  0.4980  0.2654
18570TIP3    H277202   2.495   2.615   4.582  0.2708 -0.1751  0.1403
18571TIP3   OH277203   2.737   6.674  12.553 -0.1294  0.0565 -0.2588
18571TIP3    H177204   2.710   6.607  12.490 -2.9549 -0.2447  1.1227
18571TIP3    H277205   2.717   6.757  12.510 -1.7395 -0.1434  0.0454
18572TIP3   OH277206   0.919   4.273   3.410 -0.2479 -0.2338 -0.7427
18572TIP3    H177207   0.919   4.283   3.315  0.8966 -0.5597 -0.7936
18572TIP3    H277208   0.964   4.190   3.425  0.0467  0.0685  0.1061
18573TIP3   OH277209   2.302   2.385   4.074  0.1424  0.3652 -0.0850
18573TIP3    H177210   2.392   2.356   4.081  0.0068 -0.0697 -0.1345
18573TIP3    H277211   2.285   2.432   4.156 -0.6428 -2.5148  1.5297
18574TIP3   OH277212   0.455   3.120  16.916 -0.0565 -0.0840 -0.2147
18574TIP3    H177213   0.440   3.076  17.000 -1.8954 -1.3132 -1.1286
18574TIP3    H277214   0.419   3.207  16.928 -3.1006 -1.1757 -0.5518
18575TIP3   OH277215   1.252   3.671   2.934 -0.7208  0.0047 -0.0660
18575TIP3    H177216   1.317   3.641   2.998  0.0722  0.2694 -0.7281
18575TIP3    H277217   1.208   3.744   2.976  0.9459  1.2727 -0.4293
18576TIP3   OH277218   5.896   3.700  12.768 -0.1547  0.5933  0.1531
18576TIP3    H177219   5.825   3.653  12.811 -0.7107  1.3492  0.0875
18576TIP3    H277220   5.976   3.654  12.795 -0.6305  0.0424  0.6351
18577TIP3   OH277221   3.324   5.959   4.114 -0.0606  0.3415 -0.3017
18577TIP3    H177222   3.343   6.032   4.055 -1.0392 -0.3710 -1.5406
18577TIP3    H277223   3.244   5.986   4.159  1.7031  1.7523  2.2521
18578TIP3   OH277224   6.600   0.434  15.532 -0.1293 -0.1205 -0.0647
18578TIP3    H177225   6.525   0.424  15.473 -0.4977  0.0789  0.3696
18578TIP3    H277226   6.625   0.344  15.554 -2.1313 -0.2446  2.1737
18579TIP3   OH277227   5.716   2.246  12.703  0.1386 -0.2468 -0.4583
18579TIP3    H177228   5.719   2.192  12.625 -0.8640  0.2785 -0.8848
18579TIP3    H277229   5.625   2.275  12.708 -0.0131 -0.9114  1.3432
18580TIP3   OH277230   4.558   2.965   2.080 -0.1347  0.1325 -0.2215
18580TIP3    H177231   4.614   2.935   2.009 -0.9927 -2.1098 -0.0627
18580TIP3    H277232   4.495   3.023   2.038  1.4705  1.6703 -0.6151
18581TIP3   OH277233   2.614   4.293   1.230 -0.1469 -0.1548 -0.8652
18581TIP3    H177234   2.654   4.308   1.144  1.0904 -0.2756 -0.3264
18581TIP3    H277235   2.659   4.215   1.264  0.3172  0.6670  0.4455
18582TIP3   OH277236   5.366   2.590   0.202 -0.0984  0.7689  0.7224
18582TIP3    H177237   5.334   2.678   0.222  1.9231  1.4271  1.2860
18582TIP3    H277238   5.431   2.603   0.133  0.6746 -0.2047  1.2424
18583TIP3   OH277239   3.904   0.748  12.860 -0.5991 -0.4039 -0.4628
18583TIP3    H177240   3.960   0.706  12.795  1.4822 -0.3295  1.1783
18583TIP3    H277241   3.832   0.786  12.809  1.0962 -0.0437 -2.7559
18584TIP3   OH277242   2.331   2.718  14.033  0.3959 -0.4329  0.0852
18584TIP3    H177243   2.340   2.626  14.008 -0.4987 -0.2953 -0.7527
18584TIP3    H277244   2.347   2.767  13.953 -0.2094  0.1018  0.2853
18585TIP3   OH277245   0.441   5.021   1.950 -0.1194  0.0265  0.1905
18585TIP3    H177246   0.517   4.965   1.935 -0.7707 -1.2373  1.3342
18585TIP3    H277247   0.430   5.020   2.045 -2.0774 -0.5459 -0.0056
18586TIP3   OH277248   0.068   1.598  12.246  0.4561  0.3234 -0.4661
18586TIP3    H177249   0.035   1.681  12.213 -0.2595  0.2457  0.0328
18586TIP3    H277250  -0.002   1.535  12.230  1.6672 -0.6065 -2.4809
18587TIP3   OH277251   1.000   6.471  13.188 -0.5192  0.1934 -0.0409
18587TIP3    H177252   1.089   6.480  13.221 -0.7083  0.6257  0.3566
18587TIP3    H277253   1.008   6.409  13.115 -0.1180 -0.9059  0.8987
18588TIP3   OH277254   6.554   0.368   1.359 -0.0419 -0.5335  0.1224
18588TIP3    H177255   6.533   0.460   1.342  0.4267 -0.6671 -1.3116
18588TIP3    H277256   6.475   0.321   1.334  0.3697 -0.6598 -1.0193
18589TIP3   OH277257   5.380   3.834  16.723  0.3533  0.3083  0.1239
18589TIP3    H177258   5.395   3.766  16.658 -0.4010  0.5591 -0.3215
18589TIP3    H277259   5.333   3.791  16.794 -0.2899  0.4080 -0.2420
18590TIP3   OH277260   0.923   2.769  16.896  0.0466 -0.2351  0.7450
18590TIP3    H177261   0.988   2.756  16.827  0.0534  1.0165  0.4874
18590TIP3    H277262   0.973   2.801  16.971 -0.2318  0.5692  0.5985
18591TIP3   OH277263   1.637   0.490  13.922 -0.6308  0.0152  0.1414
18591TIP3    H177264   1.648   0.520  13.832  1.0158  2.2690  1.0115
18591TIP3    H277265   1.723   0.457  13.947 -0.3428  1.8118  1.6749
18592TIP3   OH277266   1.185   0.855  16.104 -0.3679 -0.7155 -0.3170
18592TIP3    H177267   1.164   0.778  16.051  0.6567 -0.3086 -1.3527
18592TIP3    H277268   1.254   0.826  16.163 -1.3921 -1.1211  0.7372
18593TIP3   OH277269   0.379   2.118   5.318 -0.0381 -0.2898  0.2514
18593TIP3    H177270   0.467   2.111   5.281  0.2937  0.4426  0.8967
18593TIP3    H277271   0.367   2.211   5.335 -0.3946 -0.5436  1.4805
18594TIP3   OH277272   4.246   2.954  16.602  0.1092  0.1279  0.0120
18594TIP3    H177273   4.178   3.020  16.586  1.0259  0.9356 -0.6449
18594TIP3    H277274   4.239   2.935  16.696 -0.7663  0.4758  0.0311
18595TIP3   OH277275   2.801   3.422  14.185 -0.6106  0.4443  0.5350
18595TIP3    H177276   2.716   3.419  14.230 -0.9983  1.9111 -0.0124
18595TIP3    H277277   2.832   3.512  14.199 -0.0325  0.4840 -0.8037
18596TIP3   OH277278   0.138   3.526   6.424 -0.0516  0.1009  0.2132
18596TIP3    H177279   0.107   3.610   6.390 -0.5972 -0.7678 -1.5076
18596TIP3    H277280   0.065   3.465   6.410 -0.0239 -0.4985  2.2915
18597TIP3   OH277281   3.642   4.329  11.867 -0.0473 -0.3854 -0.3042
18597TIP3    H177282   3.584   4.260  11.899 -1.4889  1.0698  0.3604
18597TIP3    H277283   3.596   4.366  11.791 -0.7074  1.6445  1.0019
18598TIP3   OH277284   5.879   1.285  15.431 -0.3688  0.3840  0.3788
18598TIP3    H177285   5.885   1.192  15.408 -0.2547  0.5862 -0.4504
18598TIP3    H277286   5.799   1.292  15.483 -0.2864 -0.2072  0.5908
18599TIP3   OH277287   5.834   4.079   0.579  0.3152 -0.4204 -0.2129
18599TIP3    H177288   5.766   4.134   0.540 -0.7452 -1.3480  0.2678
18599TIP3    H277289   5.911   4.135   0.582 -0.3181  0.5394 -1.1297
18600TIP3   OH277290   0.117   5.821  14.463  0.0105  0.2458  0.3129
18600TIP3    H177291   0.078   5.735  14.478  0.4036 -0.1415 -0.7953
18600TIP3    H277292   0.209   5.803  14.442 -0.0564  0.8755 -0.5826
18601TIP3   OH277293   1.715   6.682   3.694 -0.0209  0.2406  0.3859
18601TIP3    H177294   1.637   6.643   3.732 -0.2286  1.2595  1.0360
18601TIP3    H277295   1.770   6.706   3.769 -0.1076  1.5944  0.0430
18602TIP3   OH277296   2.695   3.020   1.582  0.2429 -0.4336 -0.1303
18602TIP3    H177297   2.717   3.038   1.491 -0.1352 -3.8173 -1.0058
18602TIP3    H277298   2.773   3.046   1.632  1.3036 -0.5945 -1.6648
18603TIP3   OH277299   1.736   2.016  11.764 -0.3445  0.1996 -0.2192
18603TIP3    H177300   1.801   2.083  11.739 -0.6817  1.3796  1.8596
18603TIP3    H277301   1.669   2.022  11.696  0.1507  1.2276 -0.6419
18604TIP3   OH277302   5.535   2.939   1.212  0.5205  0.2364 -0.0770
18604TIP3    H177303   5.621   2.939   1.170  1.2717 -1.2942  1.3219
18604TIP3    H277304   5.472   2.935   1.140  1.6012  1.2228 -1.1162
18605TIP3   OH277305   6.640   2.841   4.457  0.0050  0.6635 -0.1313
18605TIP3    H177306   6.684   2.843   4.372  0.7656 -0.9852  0.1647
18605TIP3    H277307   6.582   2.765   4.451 -1.6165  1.8451  0.0728
18606TIP3   OH277308   6.336   2.084   2.426 -0.0094 -0.2214  0.4940
18606TIP3    H177309   6.334   2.166   2.476  0.5651  2.1317 -3.0157
18606TIP3    H277310   6.400   2.100   2.357 -0.7075 -3.2892 -1.0197
18607TIP3   OH277311   1.917   2.201  11.639  0.0727  0.9777  0.3927
18607TIP3    H177312   1.998   2.151  11.629  0.3310  1.6292 -1.1996
18607TIP3    H277313   1.937   2.286  11.600 -1.5516  0.9221 -0.6791
18608TIP3   OH277314   2.712   2.490   3.622  0.4130  0.3586  0.6228
18608TIP3    H177315   2.734   2.583   3.617  0.1078  0.4402  0.7109
18608TIP3    H277316   2.738   2.464   3.710  1.5445  0.0740  0.2127
18609TIP3   OH277317   5.385   1.038  11.800  1.0061 -0.1107 -0.5084
18609TIP3    H177318   5.304   1.059  11.754  0.6156 -1.6488 -0.6017
18609TIP3    H277319   5.449   1.021  11.731  1.0759 -0.0627 -0.4549
18610TIP3   OH277320   0.572   6.447  11.619  0.1099  0.0895  0.0513
18610TIP3    H177321   0.506   6.384  11.590  1.9814 -1.1673 -1.7797
18610TIP3    H277322   0.559   6.523  11.562 -1.1349  0.7866  1.2071
18611TIP3   OH277323   6.187   5.313  11.741 -0.4220 -0.0885  0.2603
18611TIP3    H177324   6.153   5.397  11.708 -1.4215 -1.4166 -2.4245
18611TIP3    H277325   6.177   5.253  11.668 -0.8256 -2.8885  2.4397
18612TIP3   OH277326   4.207   2.781   5.848  0.1859  0.8447 -0.4297
18612TIP3    H177327   4.119   2.804   5.878  0.4653  2.2357 -0.6071
18612TIP3    H277328   4.196   2.759   5.756 -0.0469  0.5999 -0.3421
18613TIP3   OH277329   4.114   0.181   5.893  0.1876 -0.0298 -0.4358
18613TIP3    H177330   4.074   0.141   5.816 -1.3683 -0.1573  0.3953
18613TIP3    H277331   4.204   0.200   5.866 -0.2584 -0.2230 -2.2179
18614TIP3   OH277332   2.722   3.494  13.283  0.3283  0.7840  0.1488
18614TIP3    H177333   2.757   3.571  13.239 -0.4993  0.3277 -1.3649
18614TIP3    H277334   2.798   3.441  13.305  0.7422  0.8289 -1.1266
18615TIP3   OH277335   5.264   4.688   2.589  0.5782  0.0096 -0.2098
18615TIP3    H177336   5.176   4.721   2.570  0.1750 -0.0663  1.4277
18615TIP3    H277337   5.271   4.691   2.684  0.6945 -4.0428  0.0906
18616TIP3   OH277338   0.046   1.479  14.115  0.5142  0.2500 -0.4654
18616TIP3    H177339  -0.040   1.443  14.137  1.3160 -0.7870  1.1894
18616TIP3    H277340   0.090   1.490  14.200  1.3834  2.4838 -1.1267
18617TIP3   OH277341   3.922   3.505  12.859 -0.2740 -0.0627 -0.3311
18617TIP3    H177342   3.905   3.587  12.814 -1.2836  1.4302  2.5336
18617TIP3    H277343   3.859   3.443  12.822 -2.1453  1.5163  0.0870
18618TIP3   OH277344   4.998   4.900  11.894 -0.4032  0.1995 -0.2125
18618TIP3    H177345   5.049   4.819  11.899 -0.4307  0.2449  0.8189
18618TIP3    H277346   4.980   4.910  11.800 -2.2251 -2.1045 -0.1869
18619TIP3   OH277347   0.611   4.838  11.699  0.2291 -0.4049 -0.7080
18619TIP3    H177348   0.668   4.855  11.624  0.6747 -1.1332 -0.5452
18619TIP3    H277349   0.530   4.886  11.679  0.2553 -0.7656 -1.7628
18620TIP3   OH277350   3.359   5.129  11.130 -0.1650 -0.5834 -0.1192
18620TIP3    H177351   3.406   5.046  11.125  1.3593  0.1516  1.0408
18620TIP3    H277352   3.324   5.143  11.042 -1.9881 -3.2660  0.0857
18621TIP3   OH277353   1.250   3.675   5.860 -0.1543 -0.3213 -0.7670
18621TIP3    H177354   1.218   3.754   5.904 -1.2618 -0.9663 -0.3667
18621TIP3    H277355   1.340   3.664   5.892  0.0031  0.7520 -0.8125
18622TIP3   OH277356   3.445   1.696   0.944  0.4283  0.0556  0.2211
18622TIP3    H177357   3.472   1.623   0.888 -0.2109  1.2772 -1.7969
18622TIP3    H277358   3.378   1.660   1.001 -1.1848 -0.6182 -1.9538
18623TIP3   OH277359   5.047   2.479  16.479  0.2437  0.4407  0.2376
18623TIP3    H177360   5.091   2.553  16.519 -1.1551  3.1320 -2.7542
18623TIP3    H277361   4.989   2.518  16.413 -2.5523 -3.1767  0.2192
18624TIP3   OH277362   5.027   2.244   1.155 -0.4088 -0.4189  0.3427
18624TIP3    H177363   4.956   2.235   1.091 -0.6998 -2.6947  0.8883
18624TIP3    H277364   5.079   2.318   1.123 -2.4204  0.6581 -0.6459
18625TIP3   OH277365   2.016   2.840  15.611  0.6309  0.2200  0.1769
18625TIP3    H177366   1.954   2.812  15.679  1.4137  0.7707  1.1439
18625TIP3    H277367   1.967   2.905  15.560  0.2218  0.2547  0.6044
18626TIP3   OH277368   5.347   6.460   2.446 -0.1495  0.2638 -0.1672
18626TIP3    H177369   5.317   6.380   2.403 -0.1398  0.0390  0.2415
18626TIP3    H277370   5.271   6.489   2.498 -0.5293  1.1254 -1.1745
18627TIP3   OH277371   1.745   3.505  12.228 -0.2089 -0.3021 -0.6072
18627TIP3    H177372   1.790   3.421  12.236 -0.5268 -0.5101 -0.9466
18627TIP3    H277373   1.721   3.511  12.135 -0.4921  0.0026 -0.5176
18628TIP3   OH277374   0.809   6.212   3.547 -0.4958 -0.2844 -0.2578
18628TIP3    H177375   0.813   6.290   3.603 -3.3017  1.3354 -2.0495
18628TIP3    H277376   0.732   6.165   3.576 -0.0299 -1.2751 -0.5740
18629TIP3   OH277377   0.988   2.563  11.458 -0.0766  0.0884  0.1059
18629TIP3    H177378   0.979   2.631  11.391  3.6641 -0.3838 -1.1293
18629TIP3    H277379   0.948   2.485  11.418  2.1819 -0.2076 -1.7739
18630TIP3   OH277380   6.730   5.055  15.501 -0.3083 -0.0221  0.3588
18630TIP3    H177381   6.638   5.072  15.521  0.0016 -0.5413  2.5119
18630TIP3    H277382   6.729   4.972  15.454 -0.9306 -0.2132  0.6966
18631TIP3   OH277383   0.673   0.255   5.083 -0.2556  0.5452  0.3373
18631TIP3    H177384   0.619   0.325   5.046 -1.2491  0.9722  2.4480
18631TIP3    H277385   0.612   0.181   5.091  0.0854  0.2945  0.6134
18632TIP3   OH277386   0.371   4.373   1.466  0.1580  0.2947 -0.3093
18632TIP3    H177387   0.427   4.439   1.426 -0.0776  1.5908  1.4014
18632TIP3    H277388   0.283   4.394   1.436 -0.1323  1.7627  1.4004
18633TIP3   OH277389   5.963   4.856  16.917 -0.0893  0.0044  0.1734
18633TIP3    H177390   5.886   4.912  16.920  0.0120  0.1008  2.8892
18633TIP3    H277391   6.007   4.881  16.836 -2.1822  0.8865 -0.7643
18634TIP3   OH277392   1.871   6.159   3.348  0.2675 -0.1602  0.1404
18634TIP3    H177393   1.929   6.112   3.407  0.8986 -1.3493 -1.3650
18634TIP3    H277394   1.886   6.251   3.367  2.8514 -0.4182 -0.3411
18635TIP3   OH277395   2.232   2.473  11.896 -0.3454 -0.2192 -0.8902
18635TIP3    H177396   2.284   2.477  11.977  0.7742  0.2546 -1.6101
18635TIP3    H277397   2.141   2.475  11.926 -0.0044 -2.2118  0.4892
18636TIP3   OH277398   2.905   1.853   0.004 -0.3618  0.0817 -0.1151
18636TIP3    H177399   2.845   1.809   0.064  1.0107 -0.5792  0.8411
18636TIP3    H277400   2.945   1.922   0.057 -0.1627  0.4065 -0.6809
18637TIP3   OH277401   4.268   5.523  12.572  0.2577  0.1413 -0.2651
18637TIP3    H177402   4.233   5.447  12.525 -0.1059 -0.1239  0.4199
18637TIP3    H277403   4.193   5.555  12.623  0.1899  1.4320 -1.1347
18638TIP3   OH277404   2.969   4.483   4.437 -0.0247  0.7585 -0.2098
18638TIP3    H177405   2.955   4.411   4.376 -0.6647  0.8749 -0.2041
18638TIP3    H277406   2.978   4.560   4.382 -2.7056  1.2158 -0.1287
18639TIP3   OH277407   0.163   5.908  12.060 -0.1335 -0.0056  0.3206
18639TIP3    H177408   0.194   5.848  12.128 -0.0996 -0.3571 -0.0014
18639TIP3    H277409   0.080   5.941  12.094 -0.5260 -0.8118  0.1739
18640TIP3   OH277410   0.423   6.249   3.720 -0.1598  0.6818 -0.1760
18640TIP3    H177411   0.496   6.187   3.724  0.4500  1.4244  0.6853
18640TIP3    H277412   0.412   6.279   3.810  0.0968  2.4180 -0.6793
18641TIP3   OH277413   4.685   3.557  14.756 -0.1647 -0.4921 -0.4347
18641TIP3    H177414   4.722   3.624  14.814  1.5849 -0.4716 -1.4996
18641TIP3    H277415   4.647   3.493  14.815 -1.2223  1.0422  0.6402
18642TIP3   OH277416   0.100   1.633   2.220  0.0326  0.1707  0.1604
18642TIP3    H177417   0.010   1.612   2.246 -1.1462  2.5729 -1.5807
18642TIP3    H277418   0.099   1.629   2.124  1.9103 -0.1043  0.1140
18643TIP3   OH277419   4.766   3.642  10.486  0.2164 -1.0158 -0.5728
18643TIP3    H177420   4.795   3.723  10.444 -1.0151 -0.4071 -0.2960
18643TIP3    H277421   4.821   3.634  10.563  4.1371 -3.3386 -3.2555
18644TIP3   OH277422   3.227   0.444   5.438  0.4131  0.5662 -0.0424
18644TIP3    H177423   3.299   0.409   5.491  0.6135  0.8956 -0.0913
18644TIP3    H277424   3.213   0.533   5.471 -0.5776  0.1964  0.5633
18645TIP3   OH277425   5.650   0.714   0.283 -0.2786 -0.6214  0.1197
18645TIP3    H177426   5.690   0.699   0.368  1.7452  0.5044 -0.5650
18645TIP3    H277427   5.588   0.785   0.298 -0.1591 -0.6394  0.7096
18646TIP3   OH277428   1.281   6.395  15.212 -0.4183  0.1423 -0.3140
18646TIP3    H177429   1.312   6.458  15.147 -2.9507  1.3306 -0.4930
18646TIP3    H277430   1.293   6.439  15.296  3.0904 -1.4873  0.2684
18647TIP3   OH277431   0.354   5.548  17.232  0.3214  0.3921  0.5548
18647TIP3    H177432   0.314   5.526  17.316 -0.3275  1.6466  0.5986
18647TIP3    H277433   0.282   5.584  17.180  0.6305 -0.7380 -0.6993
18648TIP3   OH277434   0.081   5.068   1.552  0.3062 -0.3376 -0.2354
18648TIP3    H177435   0.086   5.068   1.648  0.2783  0.4619 -0.2303
18648TIP3    H277436   0.170   5.086   1.524  0.3298 -0.6522 -0.3665
18649TIP3   OH277437   4.989   1.404   6.315  0.2189  0.1521 -0.0286
18649TIP3    H177438   5.083   1.422   6.314  0.3173 -0.2282 -2.2186
18649TIP3    H277439   4.956   1.450   6.392  2.1703  0.4151  0.6909
18650TIP3   OH277440   4.425   5.442   2.444  0.7835  0.0428  0.0835
18650TIP3    H177441   4.507   5.433   2.394  0.0305  2.0348 -1.6362
18650TIP3    H277442   4.362   5.388   2.396  0.4965  0.4576 -0.0016
18651TIP3   OH277443   2.178   5.787  10.964 -0.2963  0.0555 -0.6903
18651TIP3    H177444   2.169   5.834  10.881  0.7074  0.2802 -0.6862
18651TIP3    H277445   2.206   5.699  10.940 -1.2888 -0.2757 -0.6515
18652TIP3   OH277446   3.002   4.740  16.179  0.6596  0.4973  0.1982
18652TIP3    H177447   2.990   4.647  16.197  1.4462  0.4701  0.6305
18652TIP3    H277448   2.919   4.768  16.139  0.7772 -0.6102 -0.8850
18653TIP3   OH277449   6.053   5.707   2.417 -0.4116  0.0076 -0.3428
18653TIP3    H177450   6.052   5.795   2.453 -1.4519 -0.3405  0.5409
18653TIP3    H277451   5.975   5.703   2.362  1.1393  0.5214 -2.6981
18654TIP3   OH277452   3.162   2.494   5.242  0.8859  0.1956 -0.0039
18654TIP3    H177453   3.067   2.484   5.230  0.9802 -0.2149 -0.4475
18654TIP3    H277454   3.180   2.583   5.213  0.8871 -0.3070 -1.6432
18655TIP3   OH277455   1.395   1.303   2.459  0.2707 -0.1233 -0.3894
18655TIP3    H177456   1.441   1.376   2.500 -0.1984 -0.6212  1.1010
18655TIP3    H277457   1.441   1.225   2.490 -0.7392 -0.5656  0.0491
18656TIP3   OH277458   1.538   1.718   1.348 -0.5923 -0.1218 -0.0886
18656TIP3    H177459   1.460   1.773   1.349 -1.5854 -1.4124 -2.0205
18656TIP3    H277460   1.563   1.713   1.256  1.5253 -0.1427  0.4186
18657TIP3   OH277461   2.390   1.878  13.221 -0.0397  0.2410  0.7269
18657TIP3    H177462   2.371   1.870  13.128  0.1441 -0.3207  0.7373
18657TIP3    H277463   2.327   1.820  13.264 -0.0261  0.3841  0.9436
18658TIP3   OH277464   1.407   5.919  14.160 -0.3749 -0.1062  0.2576
18658TIP3    H177465   1.428   5.836  14.204 -0.5248 -0.4470 -0.2991
18658TIP3    H277466   1.317   5.939  14.186 -1.3711 -1.5820 -1.7842
18659TIP3   OH277467   2.259   2.974   3.793  0.5881 -0.0516 -0.1284
18659TIP3    H177468   2.335   2.920   3.815 -0.1336 -1.1868 -0.3363
18659TIP3    H277469   2.240   3.022   3.873  1.6408  0.4084 -0.1354
18660TIP3   OH277470   0.398   2.693  12.268 -0.2149 -0.0564  0.3076
18660TIP3    H177471   0.418   2.622  12.207 -0.8736  2.3918 -3.0302
18660TIP3    H277472   0.305   2.683  12.288 -0.7644  0.7884 -1.6151
18661TIP3   OH277473   5.564   4.424  14.530  0.0446 -0.8162 -0.9182
18661TIP3    H177474   5.526   4.483  14.594 -1.7582 -1.4067 -1.3802
18661TIP3    H277475   5.632   4.475  14.487  1.6465 -0.5305  1.7038
18662TIP3   OH277476   5.509   1.812  10.633  0.0274  0.4827 -0.0443
18662TIP3    H177477   5.592   1.858  10.618  0.1116  0.6958  0.9757
18662TIP3    H277478   5.519   1.729  10.587  1.6258 -0.3603  1.7027
18663TIP3   OH277479   3.819   1.785   5.572 -0.2345 -0.6162  0.4657
18663TIP3    H177480   3.863   1.739   5.501 -1.8191 -2.9161  0.8624
18663TIP3    H277481   3.758   1.845   5.528 -1.6568 -2.4645 -0.2058
18664TIP3   OH277482   3.176   4.244   5.794  0.0684 -0.8935 -0.4036
18664TIP3    H177483   3.200   4.327   5.753 -1.2061 -0.9118 -1.2210
18664TIP3    H277484   3.210   4.251   5.884  1.4282 -0.1798 -0.9482
18665TIP3   OH277485   1.268   0.774  13.813 -0.0589  0.2055  0.1199
18665TIP3    H177486   1.340   0.712  13.801  0.9530  1.4447 -0.3704
18665TIP3    H277487   1.305   0.845  13.866 -1.1207  0.5354  0.4590
18666TIP3   OH277488   3.952   4.384   1.312  0.1090 -0.6683 -0.6648
18666TIP3    H177489   4.044   4.356   1.307  1.3177  2.9008 -1.0273
18666TIP3    H277490   3.939   4.407   1.404  0.5137  1.4051 -1.0804
18667TIP3   OH277491   0.765   4.807   4.527  0.2359  0.1086  0.5526
18667TIP3    H177492   0.712   4.887   4.523 -1.8150 -1.2280 -1.8444
18667TIP3    H277493   0.735   4.763   4.607 -0.7335  0.4069  0.3773
18668TIP3   OH277494   1.876   1.073   0.255  0.2963 -0.1056  0.7607
18668TIP3    H177495   1.943   1.061   0.187  1.2006  1.6684  1.2948
18668TIP3    H277496   1.887   0.996   0.311 -0.4739 -1.6172 -1.0362
18669TIP3   OH277497   6.709   0.787   1.394  0.1913  0.2810 -0.0650
18669TIP3    H177498   6.784   0.769   1.336 -0.0166  1.2026 -0.6444
18669TIP3    H277499   6.740   0.764   1.481  1.2515  0.8976 -0.2595
18670TIP3   OH277500   3.803   6.041   1.306 -0.1333 -0.0571 -0.1874
18670TIP3    H177501   3.788   5.958   1.260  0.1457 -0.4520  0.4073
18670TIP3    H277502   3.716   6.071   1.331 -0.1549 -1.0501  1.0554
18671TIP3   OH277503   4.237   3.608   5.782 -0.5768 -0.2191 -0.2975
18671TIP3    H177504   4.217   3.521   5.817  0.7949 -0.4520 -0.0588
18671TIP3    H277505   4.252   3.593   5.689 -2.0341  0.0574 -0.6064
18672TIP3   OH277506   1.259   0.863   1.630 -0.3039  0.9924  0.0920
18672TIP3    H177507   1.214   0.825   1.554  0.3014  0.0236  0.1959
18672TIP3    H277508   1.281   0.788   1.685 -0.1895  1.6270  0.9318
18673TIP3   OH277509   0.328   6.092  10.608 -0.7213  0.0927  0.0714
18673TIP3    H177510   0.384   6.166  10.583 -0.1305  0.7156  2.9730
18673TIP3    H277511   0.331   6.090  10.703 -2.7694 -2.1479  0.1799
18674TIP3   OH277512   6.148   2.232  16.194 -0.5212  0.3969  0.3067
18674TIP3    H177513   6.104   2.248  16.111 -1.4060 -1.4785  0.3511
18674TIP3    H277514   6.079   2.236  16.259  0.3660  3.1778  1.2170
18675TIP3   OH277515   2.459   3.207  16.792  0.0349  0.1107 -0.6909
18675TIP3    H177516   2.468   3.210  16.696  0.7364  0.3778 -0.6267
18675TIP3    H277517   2.393   3.273  16.812 -0.2459 -0.0724 -1.0070
18676TIP3   OH277518   0.793   2.760   0.288  0.0502 -0.0956  0.3563
18676TIP3    H177519   0.819   2.841   0.333 -0.6408  1.4690 -1.8677
18676TIP3    H277520   0.708   2.738   0.326  0.4346 -0.0212  1.2799
18677TIP3   OH277521   1.776   2.981   5.580 -0.5926 -0.3070 -0.0147
18677TIP3    H177522   1.828   2.959   5.657 -1.2054  0.7433  0.7280
18677TIP3    H277523   1.788   3.076   5.569  0.3656 -0.5954 -1.8968
18678TIP3   OH277524   2.645   5.330  12.169 -0.7234 -0.1003 -0.0006
18678TIP3    H177525   2.733   5.336  12.206 -0.5161  1.8047 -0.7099
18678TIP3    H277526   2.632   5.237  12.153  0.6243 -0.5648  1.3472
18679TIP3   OH277527   2.966   3.719   2.669  0.1811  0.3244  0.7012
18679TIP3    H177528   3.050   3.721   2.623  0.0099  1.1190  0.4221
18679TIP3    H277529   2.908   3.670   2.611  0.3348  0.1230  0.7129
18680TIP3   OH277530   2.603   0.720   4.565 -0.2699  0.1225  0.1014
18680TIP3    H177531   2.520   0.762   4.583 -1.0691 -1.1157 -0.5342
18680TIP3    H277532   2.660   0.746   4.637 -1.8081 -0.6084  1.6467
18681TIP3   OH277533   5.074   0.045   1.547 -0.5702  0.5553  0.3170
18681TIP3    H177534   5.021   0.125   1.538  0.3332  0.9480 -2.3770
18681TIP3    H277535   5.072   0.005   1.460  2.4556 -0.1069  0.4496
18682TIP3   OH277536   5.271   2.678  14.462 -0.2494  0.6866 -0.2757
18682TIP3    H177537   5.195   2.621  14.458 -1.2318  1.7977  1.2123
18682TIP3    H277538   5.249   2.752  14.405  0.0676  0.6287 -0.4755
18683TIP3   OH277539   1.575   3.235   6.268  0.8083 -0.1823  0.8908
18683TIP3    H177540   1.610   3.146   6.258  1.0758 -0.1112  1.2087
18683TIP3    H277541   1.592   3.257   6.359  0.5653  0.1221  0.8610
18684TIP3   OH277542   5.419   2.711   4.957 -0.2183  0.0065 -0.1585
18684TIP3    H177543   5.343   2.658   4.934 -0.5389 -0.0041  0.8744
18684TIP3    H277544   5.447   2.751   4.875 -0.1073 -1.5773 -0.9197
18685TIP3   OH277545   3.239   5.298  12.935  0.3380 -0.1528 -0.7315
18685TIP3    H177546   3.328   5.263  12.936 -0.0895 -1.7143 -4.2156
18685TIP3    H277547   3.247   5.381  12.889  0.4707  1.9472  2.6887
18686TIP3   OH277548   4.800   3.355   0.616  0.3128 -0.4048  0.7047
18686TIP3    H177549   4.803   3.316   0.704  0.5546  0.7673  1.2395
18686TIP3    H277550   4.810   3.281   0.557 -1.8625 -1.4958  1.5881
18687TIP3   OH277551   2.752   0.424   1.087  0.6212 -0.0976 -0.2403
18687TIP3    H177552   2.765   0.396   0.996 -2.1342 -2.0803 -0.1686
18687TIP3    H277553   2.734   0.343   1.134 -1.3820  1.1827  1.3668
18688TIP3   OH277554   6.581   0.968   1.256 -0.0570  1.0848 -0.1281
18688TIP3    H177555   6.503   0.926   1.221  1.5919 -0.7018 -1.9541
18688TIP3    H277556   6.617   0.905   1.319  2.0428 -0.1194 -2.3525
18689TIP3   OH277557   5.629   1.431   6.675 -0.2797 -0.3824  0.5034
18689TIP3    H177558   5.716   1.472   6.682 -0.7590  0.6079  0.8677
18689TIP3    H277559   5.586   1.478   6.604 -1.6699  1.4024  2.3829
18690TIP3   OH277560   4.930   5.821   1.529  0.0362 -0.0348  0.3805
18690TIP3    H177561   4.853   5.767   1.547  0.7718 -0.8307  1.2293
18690TIP3    H277562   5.002   5.759   1.523  0.7101  0.7537  0.1431
18691TIP3   OH277563   5.368   1.590  12.469  0.1380 -0.4854 -1.2055
18691TIP3    H177564   5.450   1.563  12.426  0.7526  0.1536 -0.4504
18691TIP3    H277565   5.348   1.675  12.430 -0.2259 -0.6776 -1.4487
18692TIP3   OH277566   2.093   2.976  17.165  0.0739 -0.5921 -0.6131
18692TIP3    H177567   2.044   3.029  17.227  0.1435 -0.4225 -0.7022
18692TIP3    H277568   2.090   3.025  17.083 -1.9453 -1.8801 -1.3861
18693TIP3   OH277569   1.347   1.614   2.723 -0.0071 -0.0435  0.8732
18693TIP3    H177570   1.291   1.618   2.645  0.3776 -0.0392  0.5926
18693TIP3    H277571   1.288   1.631   2.796 -1.2294 -3.9460  1.0179
18694TIP3   OH277572   5.841   1.192   2.726  0.0369 -0.1927 -0.4178
18694TIP3    H177573   5.853   1.183   2.631 -0.2289  1.3635 -0.6297
18694TIP3    H277574   5.869   1.282   2.745 -1.7532  0.1941  0.6497
18695TIP3   OH277575   5.038   1.271  13.206 -0.3269  0.3975 -0.4406
18695TIP3    H177576   4.979   1.341  13.177 -0.1202  0.7518 -0.0161
18695TIP3    H277577   5.094   1.254  13.130  0.0012  1.1001 -0.3686
18696TIP3   OH277578   0.877   6.187   3.047  0.0302  0.7150  0.6538
18696TIP3    H177579   0.805   6.128   3.069  1.7602 -1.2172  1.4482
18696TIP3    H277580   0.896   6.234   3.128 -0.5378  1.4945  0.3481
18697TIP3   OH277581   1.600   4.205   4.159 -0.5842  0.4312  0.4616
18697TIP3    H177582   1.692   4.211   4.130 -0.5685 -1.4188 -0.0324
18697TIP3    H277583   1.572   4.296   4.170  0.9898  1.0621 -0.4078
18698TIP3   OH277584   3.392   4.163  15.840  0.2189 -0.1232 -0.1993
18698TIP3    H177585   3.379   4.221  15.915  1.1379 -0.1954  0.0281
18698TIP3    H277586   3.468   4.111  15.863 -0.3973 -1.2109 -0.5452
18699TIP3   OH277587   2.383   0.515  15.139  0.1004 -0.0343 -0.1782
18699TIP3    H177588   2.356   0.593  15.187 -0.1162 -0.4402  0.3579
18699TIP3    H277589   2.474   0.533  15.114 -0.4932  1.1485 -1.6232
18700TIP3   OH277590   0.294   1.137  12.408 -0.2041  0.0914  0.7263
18700TIP3    H177591   0.268   1.161  12.498  0.0233  0.3967  0.7094
18700TIP3    H277592   0.272   1.044  12.402 -1.1600  0.3024  0.7688
18701TIP3   OH277593   2.693   0.360  14.610 -0.9155  0.0666  0.2642
18701TIP3    H177594   2.678   0.277  14.656  0.0891  0.2645  1.0020
18701TIP3    H277595   2.788   0.361  14.594 -1.0297  0.7294 -0.4227
18702TIP3   OH277596   4.725   6.774   0.194  0.4295  0.0853  0.4011
18702TIP3    H177597   4.709   6.863   0.226  1.1141  0.0084  0.9690
18702TIP3    H277598   4.646   6.753   0.144  1.5492  2.2882 -2.6507
18703TIP3   OH277599   0.024   3.953  12.990  0.1467 -0.2336  0.1299
18703TIP3    H177600   0.079   3.941  12.912 -1.1298  0.3570 -0.8904
18703TIP3    H277601  -0.061   3.981  12.956 -0.3249  0.4456  1.7715
18704TIP3   OH277602   0.033   0.801   3.136 -0.1001  0.0610 -0.3318
18704TIP3    H177603   0.015   0.870   3.073  3.3591  1.1002 -0.4031
18704TIP3    H277604   0.103   0.836   3.191  0.4022 -2.6483  0.9499
18705TIP3   OH277605   5.110   1.203   3.748 -0.7931  0.4496  0.0242
18705TIP3    H177606   5.094   1.296   3.764 -2.1071  0.1103  0.8334
18705TIP3    H277607   5.205   1.196   3.738 -0.8138  2.1604 -2.0245
18706TIP3   OH277608   1.001   3.797   0.155  0.0689 -0.6616  0.3625
18706TIP3    H177609   1.071   3.781   0.219  0.4740 -0.1161  0.0635
18706TIP3    H277610   1.032   3.755   0.075  0.5261  0.4349 -0.0534
18707TIP3   OH277611   2.438   6.706   1.200 -0.1336 -0.2494 -0.0204
18707TIP3    H177612   2.464   6.635   1.142  0.9018  0.7509 -0.8308
18707TIP3    H277613   2.501   6.702   1.273 -0.4234 -0.5108  0.2148
18708TIP3   OH277614   4.520   3.380   2.057  0.2213  0.1902 -0.3504
18708TIP3    H177615   4.562   3.355   1.975  0.8878  0.9106 -0.2392
18708TIP3    H277616   4.436   3.416   2.030  1.3216  2.5044 -0.9526
18709TIP3   OH277617   4.676   4.243   1.529  0.2182  0.4593 -0.7762
18709TIP3    H177618   4.733   4.240   1.453  2.7980  1.8131  0.9739
18709TIP3    H277619   4.684   4.156   1.569 -1.5520 -0.4414 -2.1884
18710TIP3   OH277620   4.282   0.179   4.724 -0.1551 -0.1639  0.1797
18710TIP3    H177621   4.206   0.209   4.674  0.3471 -0.2409 -0.6462
18710TIP3    H277622   4.344   0.252   4.720  0.7276 -0.9260 -1.1065
18711TIP3   OH277623   3.535   4.408  11.598 -0.5648  0.0042  0.3104
18711TIP3    H177624   3.465   4.440  11.542 -0.3902 -0.5834 -0.2559
18711TIP3    H277625   3.599   4.479  11.600  0.1010 -0.4979 -1.4211
18712TIP3   OH277626   4.810   0.034   6.082 -0.1413  0.2298 -0.2069
18712TIP3    H177627   4.905   0.030   6.070 -0.1911 -0.1149 -0.4932
18712TIP3    H277628   4.785  -0.053   6.112 -0.1150  0.8820  1.8071
18713TIP3   OH277629   2.611   2.443  15.151  0.1993 -0.1074  0.9198
18713TIP3    H177630   2.603   2.349  15.138 -0.5077  0.1548 -0.7435
18713TIP3    H277631   2.679   2.471  15.090 -1.6464  0.8367 -0.8377
18714TIP3   OH277632   5.006   0.280  11.408 -0.1017 -0.7031  0.2474
18714TIP3    H177633   4.921   0.323  11.406 -0.3967 -1.2222  1.1649
18714TIP3    H277634   5.018   0.254  11.499  1.2729 -0.1876  0.2374
18715TIP3   OH277635   4.964   4.387  16.539  0.3801  0.0036  0.1743
18715TIP3    H177636   4.896   4.390  16.472  0.7292  0.1229 -0.1837
18715TIP3    H277637   5.023   4.317  16.509  0.1518 -0.4321  0.7365
18716TIP3   OH277638   5.059   2.637  13.042 -0.2110 -0.0206 -0.2967
18716TIP3    H177639   4.964   2.636  13.058 -0.5311  0.6364 -1.9746
18716TIP3    H277640   5.095   2.684  13.118 -1.3235  0.5119 -0.0735
18717TIP3   OH277641   5.971   2.977  12.378 -0.0431  0.4590  0.3019
18717TIP3    H177642   5.939   2.906  12.322  1.0934 -0.0806  0.3079
18717TIP3    H277643   5.981   3.051  12.319 -0.1876  0.2899  0.0638
18718TIP3   OH277644   1.709   3.717  15.328 -0.6017  0.0752 -0.0574
18718TIP3    H177645   1.750   3.731  15.414  0.5534 -1.5259 -0.3070
18718TIP3    H277646   1.753   3.780  15.270 -0.0068 -0.1617  0.1308
18719TIP3   OH277647   6.346   6.623  16.486 -0.0787  0.0622 -0.1771
18719TIP3    H177648   6.437   6.600  16.469 -0.5729 -2.1085 -0.2249
18719TIP3    H277649   6.346   6.655  16.576  0.7256  0.0824 -0.1746
18720TIP3   OH277650   5.821   6.146  13.422 -0.0434 -0.2945  0.0934
18720TIP3    H177651   5.738   6.193  13.436 -0.7133 -1.4032 -0.0372
18720TIP3    H277652   5.815   6.069  13.479  0.5897 -0.7637 -0.4603
18721TIP3   OH277653   0.802   4.105  15.531  0.7378 -0.2854 -0.2543
18721TIP3    H177654   0.708   4.087  15.530  0.7431 -0.3120 -0.3017
18721TIP3    H277655   0.808   4.200  15.540  0.7244 -0.3869  0.9243
18722TIP3   OH277656   4.077   6.324  17.183 -0.6298 -0.2954 -0.1380
18722TIP3    H177657   4.019   6.400  17.179 -1.9014 -1.2281 -0.0083
18722TIP3    H277658   4.069   6.292  17.272 -1.6073 -1.6842 -0.6933
18723TIP3   OH277659   3.228   1.253  13.748 -0.1851  0.2700 -0.2991
18723TIP3    H177660   3.242   1.158  13.757 -3.5816 -0.2276  1.1220
18723TIP3    H277661   3.259   1.289  13.831  3.0717  0.8661 -1.5910
18724TIP3   OH277662   4.728   3.842   0.345  0.0287  0.0549 -0.2077
18724TIP3    H177663   4.813   3.879   0.371 -0.8968  2.2384 -0.0808
18724TIP3    H277664   4.750   3.761   0.299  2.1192  0.0806  0.6372
18725TIP3   OH277665   6.090   4.321  16.922  0.1947 -0.5775 -0.0347
18725TIP3    H177666   6.044   4.395  16.881  0.0363 -1.8202 -2.2439
18725TIP3    H277667   6.042   4.306  17.004  0.0865  1.5619  0.3646
18726TIP3   OH277668   4.814   5.639  11.254  0.4378 -0.3915  0.0679
18726TIP3    H177669   4.736   5.653  11.202 -0.5074  1.5374  1.8424
18726TIP3    H277670   4.795   5.560  11.305 -0.5366  0.2472  0.7295
18727TIP3   OH277671   4.645   2.759  11.623 -0.2327 -0.0725 -0.0934
18727TIP3    H177672   4.637   2.851  11.595  3.2971  0.1166 -0.9755
18727TIP3    H277673   4.673   2.764  11.714  0.8387 -0.1818 -0.3982
18728TIP3   OH277674   3.879   3.781   4.518 -0.1295  0.1291  0.6022
18728TIP3    H177675   3.853   3.842   4.587  0.6518  0.6908  0.4115
18728TIP3    H277676   3.796   3.750   4.482 -0.5635 -0.8180  2.3251
18729TIP3   OH277677   2.702   0.583   1.369  0.3182  0.1938 -0.1603
18729TIP3    H177678   2.687   0.522   1.297 -0.6081 -0.0339  0.2067
18729TIP3    H277679   2.648   0.549   1.441  0.5120  0.9252  0.3457
18730TIP3   OH277680   4.925   0.079   0.581 -0.4698 -0.1231  0.0692
18730TIP3    H177681   4.846   0.041   0.619 -0.3187 -1.0598 -0.5003
18730TIP3    H277682   4.898   0.165   0.549 -1.2375 -0.3940 -0.0275
18731TIP3   OH277683   6.727   3.884   5.147  0.5340  0.1302  0.0253
18731TIP3    H177684   6.676   3.858   5.224  0.6851 -0.0471  0.0654
18731TIP3    H277685   6.705   3.819   5.081 -0.0775  0.6373 -0.2841
18732TIP3   OH277686   3.546   2.313   1.969  0.5450 -0.4390  0.1104
18732TIP3    H177687   3.567   2.257   1.893 -0.5932 -0.6326 -0.0768
18732TIP3    H277688   3.623   2.368   1.979  0.5628 -0.1063 -1.4743
18733TIP3   OH277689   0.850   0.872   3.583  0.4387  0.1517  0.1517
18733TIP3    H177690   0.777   0.810   3.587  1.1582 -0.8179 -0.9204
18733TIP3    H277691   0.900   0.855   3.663 -0.1379  0.3509  0.5591
18734TIP3   OH277692   4.780   3.976   3.564 -0.3649  0.1449 -0.1455
18734TIP3    H177693   4.733   4.053   3.597 -0.0829  0.6395 -0.8631
18734TIP3    H277694   4.747   3.903   3.617 -1.5165  0.5723 -0.2453
18735TIP3   OH277695   4.554   5.129  12.027  0.0206 -0.1934 -0.3313
18735TIP3    H177696   4.555   5.221  12.052 -1.1236 -0.6901  1.8487
18735TIP3    H277697   4.646   5.106  12.014  0.4898  0.8364  0.9165
18736TIP3   OH277698   6.248   1.310  12.145  0.1033 -0.0531 -0.2201
18736TIP3    H177699   6.300   1.349  12.216  1.8127  0.2706 -1.5848
18736TIP3    H277700   6.252   1.375  12.075  0.0898 -1.2239 -1.3157
18737TIP3   OH277701   0.355   3.650  10.899 -0.6318  0.0272  0.1653
18737TIP3    H177702   0.268   3.613  10.910 -1.1084  1.4397  1.3669
18737TIP3    H277703   0.398   3.591  10.837 -2.2751 -0.9395 -0.1089
18738TIP3   OH277704   0.939   4.774   5.925  0.1810  0.3286 -0.2385
18738TIP3    H177705   0.910   4.863   5.908 -0.8467  0.0715  0.0890
18738TIP3    H277706   0.881   4.743   5.996  0.4858 -0.6080 -0.3842
18739TIP3   OH277707   2.754   5.702   1.335 -0.0733 -0.1664 -0.3586
18739TIP3    H177708   2.794   5.615   1.338 -0.2138 -0.1909  1.3952
18739TIP3    H277709   2.811   5.753   1.277 -0.6256 -1.6962 -2.3716
18740TIP3   OH277710   6.750   3.637   0.762  0.5217  0.5500  0.5332
18740TIP3    H177711   6.757   3.668   0.672 -2.6681 -1.3522 -0.5373
18740TIP3    H277712   6.747   3.717   0.815 -1.6121  1.9299 -1.5018
18741TIP3   OH277713   0.581   1.452   3.182  0.3304  0.3969 -0.7706
18741TIP3    H177714   0.634   1.372   3.181  1.2128  0.9164  0.5689
18741TIP3    H277715   0.491   1.422   3.172  0.7900 -0.5789 -2.3191
18742TIP3   OH277716   2.735   6.696   5.667  0.5455 -0.1917  0.0341
18742TIP3    H177717   2.714   6.790   5.667  1.2490 -0.0147  0.8791
18742TIP3    H277718   2.746   6.674   5.760  2.3477 -0.6293 -0.2348
18743TIP3   OH277719   2.732   1.845   0.825  0.0029  0.2076 -0.5129
18743TIP3    H177720   2.805   1.882   0.875 -0.0234 -0.3991 -0.0118
18743TIP3    H277721   2.679   1.920   0.800 -0.3426  0.4777  0.9452
18744TIP3   OH277722   4.125   4.091  14.736 -0.9728 -0.1303 -0.2420
18744TIP3    H177723   4.112   4.181  14.707 -2.6389 -0.2266  0.1053
18744TIP3    H277724   4.054   4.042  14.695  0.3582 -1.4536 -1.0478
18745TIP3   OH277725   6.330   3.025   1.865  0.3773  0.6913  0.0919
18745TIP3    H177726   6.276   3.091   1.821 -0.2920 -0.2128 -0.4802
18745TIP3    H277727   6.322   2.947   1.810  0.8166  0.0042  0.9792
18746TIP3   OH277728   1.515   1.749   1.086 -0.2970  0.3175 -0.2150
18746TIP3    H177729   1.568   1.675   1.056 -0.9534 -0.0311 -0.5563
18746TIP3    H277730   1.470   1.780   1.008 -0.9571  0.2952  0.1431
18747TIP3   OH277731   2.310   1.029  15.564 -0.7621 -0.3738 -0.2831
18747TIP3    H177732   2.392   1.052  15.608 -2.0473 -0.4500  2.4224
18747TIP3    H277733   2.285   1.108  15.517  1.0326 -0.4926 -1.4978
18748TIP3   OH277734   2.295   0.766   4.803  0.7123  0.1763 -0.0040
18748TIP3    H177735   2.322   0.798   4.717  0.9638 -4.4664 -1.9256
18748TIP3    H277736   2.376   0.754   4.852  0.9798 -0.9187 -0.6827
18749TIP3   OH277737   2.717   3.645  17.061  0.4219 -0.0845  0.1677
18749TIP3    H177738   2.769   3.585  17.114  0.5068 -0.1943 -0.0440
18749TIP3    H277739   2.663   3.692  17.125  0.9196  0.1706  0.4124
18750TIP3   OH277740   4.010   4.677  16.395  0.0722 -0.0398  0.7984
18750TIP3    H177741   4.066   4.646  16.467  0.5444 -1.4457 -0.1178
18750TIP3    H277742   4.060   4.748  16.355 -0.1725  0.7220  1.7982
18751TIP3   OH277743   4.169   1.007  15.847  0.2541 -0.1917  0.0548
18751TIP3    H177744   4.159   0.947  15.922  0.5814  0.8157  0.9310
18751TIP3    H277745   4.101   0.979  15.785 -2.0525  0.7419  1.9648
18752TIP3   OH277746   1.493   4.567  11.999  0.3860  0.2396  0.2842
18752TIP3    H177747   1.437   4.591  12.074 -1.9655 -0.9691 -0.9652
18752TIP3    H277748   1.447   4.602  11.923  2.0927  0.3543 -0.7408
18753TIP3   OH277749   1.426   0.178  15.900 -0.1405  0.4280 -0.1619
18753TIP3    H177750   1.505   0.179  15.954  1.4881 -2.0381 -2.2815
18753TIP3    H277751   1.355   0.159  15.961  1.0585  1.3678  1.6081
18754TIP3   OH277752   4.316   4.179  13.463  0.2879  0.6961 -0.0558
18754TIP3    H177753   4.385   4.183  13.396 -1.0501  0.0630 -1.5532
18754TIP3    H277754   4.269   4.262  13.453  0.3277  0.7701  0.3820
18755TIP3   OH277755   5.533   2.393   0.325  0.2281  0.0191  0.2666
18755TIP3    H177756   5.528   2.410   0.419 -2.3974 -1.8745  0.5862
18755TIP3    H277757   5.464   2.448   0.287  1.6754  1.2509 -0.7094
18756TIP3   OH277758   3.994   2.418   5.999 -0.0680  0.4835  0.4126
18756TIP3    H177759   3.942   2.466   5.935 -0.1308 -0.7372 -0.4843
18756TIP3    H277760   4.085   2.431   5.971  0.1209  2.1228  1.6356
18757TIP3   OH277761   6.205   2.219  14.906  0.5840 -0.2168  0.0850
18757TIP3    H177762   6.240   2.222  14.817 -2.0814  2.4088 -1.0370
18757TIP3    H277763   6.143   2.146  14.905  1.1971 -0.7508  0.1066
18758TIP3   OH277764   0.764   3.597  15.312  0.1461 -0.3173 -0.5768
18758TIP3    H177765   0.683   3.645  15.327  1.2031  1.3330  0.1558
18758TIP3    H277766   0.816   3.653  15.255  1.4493 -0.5055  0.3494
18759TIP3   OH277767   6.576   5.524   4.751  0.1799  0.5432  0.2208
18759TIP3    H177768   6.507   5.562   4.806 -0.8901 -0.6352 -0.2628
18759TIP3    H277769   6.624   5.467   4.811  1.4087  2.0947  0.7994
18760TIP3   OH277770   2.302   0.646   5.291 -0.2013  0.1220 -0.2308
18760TIP3    H177771   2.300   0.551   5.289  0.7339  0.1023 -1.1401
18760TIP3    H277772   2.316   0.668   5.383  2.7958 -0.7325 -0.3998
18761TIP3   OH277773   1.117   6.400  12.172 -0.6778 -0.0886  0.2220
18761TIP3    H177774   1.031   6.397  12.130  0.2053 -0.4382 -1.6192
18761TIP3    H277775   1.116   6.483  12.221 -2.3717 -0.5098  0.9982
18762TIP3   OH277776   3.475   5.557   1.913  0.5160  0.4160  0.5711
18762TIP3    H177777   3.569   5.542   1.915  0.6983  1.0191 -1.1692
18762TIP3    H277778   3.450   5.539   1.822 -0.8546  1.3096  0.7379
18763TIP3   OH277779   2.415   1.392  14.441  0.0719 -0.1596 -0.1086
18763TIP3    H177780   2.364   1.416  14.364 -1.5322  1.0830  1.2674
18763TIP3    H277781   2.363   1.324  14.484  0.1918  0.2229  0.6598
18764TIP3   OH277782   5.029   5.588   0.027  0.1475  0.4798  0.7600
18764TIP3    H177783   5.017   5.670  -0.019  1.7621  1.9211  2.7343
18764TIP3    H277784   4.950   5.578   0.081 -0.6502  0.0028 -0.4571
18765TIP3   OH277785   6.302   6.579  13.302 -0.2432  0.0885  0.2340
18765TIP3    H177786   6.261   6.492  13.301  2.2905 -1.2036 -0.0939
18765TIP3    H277787   6.361   6.578  13.226 -0.1426  2.1196  0.2354
18766TIP3   OH277788   4.310   0.762  16.651  0.1534 -0.1326  0.0507
18766TIP3    H177789   4.261   0.839  16.681  0.9579  0.5857 -0.4321
18766TIP3    H277790   4.242   0.698  16.627 -0.5614  0.8935 -0.7392
18767TIP3   OH277791   4.953   4.830  12.823 -0.0179  0.3252 -0.6508
18767TIP3    H177792   5.020   4.878  12.776  0.4798 -0.1298 -0.4093
18767TIP3    H277793   4.919   4.767  12.759  2.4989 -2.1600  0.2451
18768TIP3   OH277794   0.012   4.628   3.903  0.1129  0.3817 -0.4154
18768TIP3    H177795   0.049   4.560   3.846 -0.0277  0.5848 -0.7542
18768TIP3    H277796  -0.013   4.698   3.843 -0.4681  0.4024 -0.1533
18769TIP3   OH277797   1.150   3.500  12.097 -0.1001  0.4632  0.3322
18769TIP3    H177798   1.137   3.587  12.135  3.5300  1.6754 -0.7953
18769TIP3    H277799   1.120   3.509  12.006  1.6655  1.1513 -0.2473
18770TIP3   OH277800   3.127   4.923  16.918 -0.1608  0.2439  0.2732
18770TIP3    H177801   3.049   4.968  16.950 -1.1061  0.3286 -1.9797
18770TIP3    H277802   3.128   4.840  16.966 -0.8258  0.8337  1.3434
18771TIP3   OH277803   4.022   5.350  10.973  0.4629 -0.0077 -0.3334
18771TIP3    H177804   3.973   5.387  11.046  0.3786 -0.1587 -0.3137
18771TIP3    H277805   4.013   5.415  10.903 -2.2572 -1.3310 -1.3332
18772TIP3   OH277806   3.105   4.690  15.451 -0.3931 -0.0227  0.0297
18772TIP3    H177807   3.187   4.674  15.497 -0.4307 -0.6526 -0.1113
18772TIP3    H277808   3.118   4.654  15.364 -1.0680 -0.8243  0.2386
18773TIP3   OH277809   5.580   6.497  13.974 -0.3376 -0.1940 -0.1831
18773TIP3    H177810   5.529   6.432  13.926 -0.7828 -1.2366  1.6536
18773TIP3    H277811   5.653   6.518  13.915 -1.6712 -0.2770 -1.9401
18774TIP3   OH277812   1.840   3.019  12.425  0.0174  0.1063 -0.6103
18774TIP3    H177813   1.920   2.976  12.393  0.4737  1.6027 -1.5887
18774TIP3    H277814   1.839   3.103  12.380 -0.8627  1.1222  1.1970
18775TIP3   OH277815   6.193   6.604   3.462  0.2367  0.1519 -0.0864
18775TIP3    H177816   6.280   6.575   3.433 -0.0989  0.4917 -1.4942
18775TIP3    H277817   6.204   6.698   3.477  1.1152 -0.3839  3.6969
18776TIP3   OH277818   4.960   4.518   1.118  0.2384 -0.3908  0.2966
18776TIP3    H177819   5.048   4.525   1.154  0.0575  0.7828  0.5496
18776TIP3    H277820   4.971   4.541   1.025  0.1214  0.2909  0.4479
18777TIP3   OH277821   5.714   6.393   1.543  0.0229  0.3362  0.4402
18777TIP3    H177822   5.667   6.311   1.563 -2.8240  1.7951  0.2282
18777TIP3    H277823   5.753   6.419   1.627  1.1855 -1.2902  0.4593
18778TIP3   OH277824   2.152   0.905   5.897  0.6230 -0.3939 -0.6392
18778TIP3    H177825   2.244   0.926   5.881  1.3214 -2.0841  0.9070
18778TIP3    H277826   2.136   0.934   5.987 -0.3203 -0.2626 -0.8403
18779TIP3   OH277827   3.238   3.813  14.425  0.2695 -0.1770 -0.4416
18779TIP3    H177828   3.325   3.845  14.449  0.3199 -1.5020  1.2326
18779TIP3    H277829   3.246   3.718  14.422 -1.1265 -0.3249 -0.2823
18780TIP3   OH277830   4.471   6.654   2.700 -0.2198  0.1846  0.1159
18780TIP3    H177831   4.455   6.662   2.606  2.4876  1.0305 -0.3754
18780TIP3    H277832   4.468   6.745   2.732  2.9996  0.4825 -0.0648
18781TIP3   OH277833   4.451   5.098  16.283 -0.1563 -0.0289  0.0831
18781TIP3    H177834   4.465   5.154  16.359 -1.9807 -0.1817  0.5773
18781TIP3    H277835   4.366   5.124  16.249 -0.7085 -1.9352 -0.1525
18782TIP3   OH277836   5.324   5.419   6.511  0.5058 -0.1709  0.0865
18782TIP3    H177837   5.350   5.488   6.572 -1.8510  0.3385  0.6214
18782TIP3    H277838   5.293   5.348   6.567  1.5695 -1.1324 -0.4997
18783TIP3   OH277839   4.019   4.174  15.618 -0.5779  0.7814 -0.0724
18783TIP3    H177840   4.105   4.144  15.649 -0.6584 -0.1783 -0.7115
18783TIP3    H277841   3.958   4.148  15.687 -0.4951  0.4896 -0.1085
18784TIP3   OH277842   1.190   0.296   3.954 -0.0881  0.3156  0.9581
18784TIP3    H177843   1.245   0.332   3.884 -0.1372  1.2935  1.4006
18784TIP3    H277844   1.102   0.294   3.916 -0.1888  1.2467  1.1182
18785TIP3   OH277845   5.939   4.548  10.912  0.3275  0.6954  0.0150
18785TIP3    H177846   5.878   4.476  10.895  2.0287 -1.0046  0.6345
18785TIP3    H277847   5.990   4.556  10.831  0.2433  1.1142  0.0004
18786TIP3   OH277848   2.975   5.831  15.117  0.2476  0.1171  0.1713
18786TIP3    H177849   2.902   5.864  15.169 -0.4619 -1.8252  0.4814
18786TIP3    H277850   3.003   5.906  15.064 -0.1314  1.6887  2.0494
18787TIP3   OH277851   6.302   5.534   0.453  0.4556 -0.3558  0.7407
18787TIP3    H177852   6.320   5.443   0.479  3.0599 -0.4753 -1.0876
18787TIP3    H277853   6.212   5.550   0.482  0.2354 -3.1858  1.9666
18788TIP3   OH277854   5.511   4.156   4.558  0.7293 -0.4910 -0.0003
18788TIP3    H177855   5.536   4.191   4.644 -0.0691  1.8531 -0.6519
18788TIP3    H277856   5.458   4.078   4.578 -0.3341  0.6064  1.7070
18789TIP3   OH277857   0.483   1.057  15.149 -0.0529 -0.2220  0.0131
18789TIP3    H177858   0.508   1.075  15.240  1.7710 -1.4366 -0.1837
18789TIP3    H277859   0.414   0.991  15.155 -0.3756  0.1583  0.5226
18790TIP3   OH277860   5.267   2.424   4.967 -0.4250  0.1593 -0.1890
18790TIP3    H177861   5.265   2.404   4.874 -3.3530  1.0590 -0.4357
18790TIP3    H277862   5.360   2.427   4.990  0.3331 -2.5651 -2.4614
18791TIP3   OH277863   3.203   0.004  16.402  0.2204  0.3809  0.0497
18791TIP3    H177864   3.137  -0.032  16.462  0.6321 -0.6020 -0.0700
18791TIP3    H277865   3.158   0.010  16.318 -0.2503  1.4288  0.3443
18792TIP3   OH277866   3.628   4.394  12.405 -0.2712 -0.1010 -0.2137
18792TIP3    H177867   3.586   4.379  12.489 -0.4122  2.7151  0.3166
18792TIP3    H277868   3.689   4.321  12.395  0.2397 -0.1781  2.6771
18793TIP3   OH277869   1.837   4.611  14.737  0.0929 -0.1708 -0.1261
18793TIP3    H177870   1.831   4.515  14.730 -1.0337 -0.2686  1.4867
18793TIP3    H277871   1.750   4.638  14.768  1.0000  1.1206  1.4692
18794TIP3   OH277872   0.690   1.930  12.900  0.2968  0.0012  0.0185
18794TIP3    H177873   0.603   1.937  12.939 -0.9922 -0.3398 -2.5746
18794TIP3    H277874   0.702   1.836  12.887  1.0010  0.0605  0.1989
18795TIP3   OH277875   5.305   0.180   2.243 -0.1517  0.3039  0.0115
18795TIP3    H177876   5.328   0.104   2.189 -1.2798  0.2367 -0.4081
18795TIP3    H277877   5.370   0.247   2.220 -1.6410  0.9255 -2.8732
18796TIP3   OH277878   5.334   0.521   3.549 -0.0249 -0.1618  0.0337
18796TIP3    H177879   5.254   0.545   3.596 -0.2021  0.2303 -0.4652
18796TIP3    H277880   5.338   0.582   3.476  1.0573  0.2301  0.3974
18797TIP3   OH277881   1.839   2.549   2.599  0.6453  0.0005 -0.4475
18797TIP3    H177882   1.901   2.592   2.657 -1.4106  0.0119  1.8949
18797TIP3    H277883   1.815   2.468   2.644 -1.1577  0.0812 -1.1603
18798TIP3   OH277884   6.822   6.817   2.939  0.2111 -0.1805 -0.2862
18798TIP3    H177885   6.854   6.880   3.005  0.1122  0.0215 -0.4322
18798TIP3    H277886   6.792   6.742   2.991  0.1586 -0.0327 -0.1020
18799TIP3   OH277887   1.382   3.647  10.606  0.0842  0.1298  0.1051
18799TIP3    H177888   1.372   3.727  10.658  0.4279  0.2532 -0.0175
18799TIP3    H277889   1.421   3.584  10.667 -2.2956 -0.7001  0.9273
18800TIP3   OH277890   4.502   4.674   2.869  0.2424  0.6615  0.2370
18800TIP3    H177891   4.444   4.597   2.873  1.2658 -0.1123  0.4798
18800TIP3    H277892   4.465   4.727   2.798 -0.4003 -0.1146 -0.0271
18801TIP3   OH277893   5.726   0.427  10.593 -0.3964  0.1047 -0.2994
18801TIP3    H177894   5.680   0.503  10.558  0.2379  1.0466  0.8630
18801TIP3    H277895   5.687   0.352  10.546 -1.3369  1.0845 -1.1357
18802TIP3   OH277896   5.005   4.230   6.131  0.2141  0.0492  0.0864
18802TIP3    H177897   5.083   4.282   6.114  0.9550 -1.3808 -1.1426
18802TIP3    H277898   5.003   4.218   6.226  0.8677  0.9835  0.2292
18803TIP3   OH277899   1.575   6.043  12.045 -0.3531 -0.3321  0.3724
18803TIP3    H177900   1.657   6.092  12.047 -0.5791  0.3571 -2.4802
18803TIP3    H277901   1.555   6.025  12.137  2.1823  0.7873  1.2314
18804TIP3   OH277902   3.493   6.413   6.179  0.6888 -0.0469 -0.1037
18804TIP3    H177903   3.496   6.318   6.187  1.0735 -0.3512 -2.8748
18804TIP3    H277904   3.436   6.442   6.250 -0.0780 -2.4205  0.3162
18805TIP3   OH277905   3.125   5.359  13.477 -0.2842 -0.0980 -0.3341
18805TIP3    H177906   3.180   5.298  13.427 -1.3238 -1.2536 -0.1185
18805TIP3    H277907   3.047   5.372  13.422  0.2313  1.6523 -0.7147
18806TIP3   OH277908   3.966   1.900   4.026 -0.2111  0.1917 -0.3458
18806TIP3    H177909   3.923   1.816   4.010 -0.3459  0.2994 -0.5484
18806TIP3    H277910   4.057   1.877   4.047 -0.6100 -0.1050  1.1343
18807TIP3   OH277911   1.755   5.550   2.100 -0.0351  0.4274 -0.7966
18807TIP3    H177912   1.815   5.621   2.076  1.1097 -0.3908 -0.4692
18807TIP3    H277913   1.813   5.477   2.122 -1.1174  0.0039  0.8418
18808TIP3   OH277914   3.242   2.623  13.200 -0.3945  0.1554 -0.4970
18808TIP3    H177915   3.264   2.530  13.197 -0.7874  0.0648 -0.5283
18808TIP3    H277916   3.252   2.648  13.292  0.1395  0.1889 -0.5558
18809TIP3   OH277917   4.070   0.059   6.635  0.4697  0.2421 -0.1659
18809TIP3    H177918   4.038   0.018   6.716  2.8751 -0.6447  0.4185
18809TIP3    H277919   4.004   0.125   6.614 -1.7401 -1.4836  0.8626
18810TIP3   OH277920   2.917   4.840  15.205 -0.4715  0.1476  0.1077
18810TIP3    H177921   3.006   4.874  15.216 -0.7598  0.8200  0.4400
18810TIP3    H277922   2.927   4.766  15.145  0.4370 -0.3312  0.8161
18811TIP3   OH277923   0.872   3.263  14.727  0.7662  0.1967 -0.3648
18811TIP3    H177924   0.906   3.322  14.795  0.7376 -0.4612  0.2349
18811TIP3    H277925   0.783   3.244  14.755  1.0830 -0.8767 -0.0236
18812TIP3   OH277926   5.908   1.219  14.913 -0.0402  0.0112 -0.0056
18812TIP3    H177927   5.960   1.256  14.984 -0.5984 -1.5676  1.3071
18812TIP3    H277928   5.961   1.232  14.835  1.5042  0.0461  1.0036
18813TIP3   OH277929   4.717   6.138   3.713 -0.2383  0.7924  0.0288
18813TIP3    H177930   4.711   6.108   3.623 -0.7000  0.6607  0.1018
18813TIP3    H277931   4.705   6.059   3.766  0.9622  0.7032  0.2108
18814TIP3   OH277932   6.790   5.547   5.823 -0.1900  0.2561  0.2476
18814TIP3    H177933   6.824   5.482   5.884 -1.7743  0.7258  1.7069
18814TIP3    H277934   6.763   5.497   5.747  0.2166 -0.5739  0.6356
18815TIP3   OH277935   1.657   1.213  16.731 -1.1532  0.3445  0.0526
18815TIP3    H177936   1.562   1.203  16.721 -1.0428 -1.4227  0.4060
18815TIP3    H277937   1.673   1.196  16.823 -0.5786  1.7852  0.2441
18816TIP3   OH277938   2.108   0.307   2.850  0.2221  0.8475 -0.2256
18816TIP3    H177939   2.086   0.222   2.813 -1.2984  0.5587  1.1794
18816TIP3    H277940   2.156   0.352   2.781 -1.1304 -0.2101 -1.9375
18817TIP3   OH277941   2.932   3.261  15.403 -0.2693  0.1245 -0.2769
18817TIP3    H177942   3.014   3.309  15.412 -1.1739  1.6422  0.2563
18817TIP3    H277943   2.865   3.322  15.436 -1.5702 -1.1801 -0.4276
18818TIP3   OH277944   6.169   5.258  15.398  0.0966  0.5636  0.6145
18818TIP3    H177945   6.149   5.174  15.357  3.7647 -0.7226  1.1446
18818TIP3    H277946   6.213   5.236  15.480 -1.4181  3.0835  2.2664
18819TIP3   OH277947   4.979   4.615  11.272 -0.4563 -0.1099 -0.4395
18819TIP3    H177948   4.957   4.704  11.299  1.3071 -0.0134  0.7907
18819TIP3    H277949   5.049   4.625  11.208 -0.3061 -0.6050 -0.3599
18820TIP3   OH277950   6.296   6.201  12.508  0.1013  0.0651  0.0574
18820TIP3    H177951   6.319   6.120  12.553 -1.0496 -0.7122 -0.6900
18820TIP3    H277952   6.347   6.269  12.552  0.9004 -1.0261  0.8593
18821TIP3   OH277953   1.405   0.793  15.699 -0.2246  1.3858 -0.5825
18821TIP3    H177954   1.358   0.815  15.618 -0.1482 -0.1087 -1.0691
18821TIP3    H277955   1.497   0.808  15.678 -0.2263  1.2399 -0.6974
18822TIP3   OH277956   3.443   4.229  13.052 -0.1791 -1.0811 -0.1052
18822TIP3    H177957   3.440   4.133  13.049 -1.7222 -1.1724  1.9674
18822TIP3    H277958   3.478   4.255  12.967  1.6957 -3.5201 -0.1773
18823TIP3   OH277959   3.015   5.224   5.978 -0.1602  0.5839  0.4524
18823TIP3    H177960   3.000   5.191   5.889 -2.7518  0.4775  0.8712
18823TIP3    H277961   3.082   5.291   5.967  0.0710  0.1020 -1.4701
18824TIP3   OH277962   6.046   6.054   1.453  0.1651 -0.0891  0.0533
18824TIP3    H177963   6.115   6.057   1.519  1.2025  2.2445 -1.0414
18824TIP3    H277964   5.990   5.981   1.480  2.2338 -1.1267  1.7843
18825TIP3   OH277965   1.392   2.013   2.885 -0.6187 -0.4652 -0.3125
18825TIP3    H177966   1.474   2.061   2.890 -0.2398 -1.2049  1.9583
18825TIP3    H277967   1.325   2.077   2.912 -0.5036 -0.4363 -0.0962
18826TIP3   OH277968   3.849   0.498  13.087  0.1102 -0.3394 -0.1549
18826TIP3    H177969   3.803   0.426  13.130 -1.3577  1.0020  0.6111
18826TIP3    H277970   3.812   0.502  12.999  1.6243 -1.7430 -0.9123
18827TIP3   OH277971   1.599   5.016  14.125 -0.3970 -0.5076  0.3099
18827TIP3    H177972   1.605   5.089  14.187 -1.1040 -0.0433 -0.1416
18827TIP3    H277973   1.650   5.045  14.049 -2.5400  0.5760 -0.8264
18828TIP3   OH277974   4.878   0.587   2.239 -0.4818 -0.6373 -0.0575
18828TIP3    H177975   4.952   0.613   2.294 -1.0667 -0.5215  0.6950
18828TIP3    H277976   4.822   0.665   2.236 -2.2386 -1.6854  2.1976
18829TIP3   OH277977   1.808   0.342  14.244  0.5742  0.7533 -0.5141
18829TIP3    H177978   1.755   0.293  14.309 -0.2131  1.3030 -0.7289
18829TIP3    H277979   1.815   0.282  14.170  0.9187  0.3761 -0.1846
18830TIP3   OH277980   5.800   0.724  14.752 -0.1523  0.0487  0.4419
18830TIP3    H177981   5.828   0.800  14.803 -0.6939  0.7351 -0.2661
18830TIP3    H277982   5.803   0.753  14.661  0.8576 -1.1850  0.0522
18831TIP3   OH277983   3.865   2.082   1.369  0.2547 -0.0291  0.5263
18831TIP3    H177984   3.867   2.007   1.308  1.6741  1.4259 -1.3567
18831TIP3    H277985   3.778   2.119   1.358  1.0381  1.3257 -2.2442
18832TIP3   OH277986   3.680   4.617   6.272  0.0092 -0.3914  0.8033
18832TIP3    H177987   3.624   4.653   6.342  0.1510 -0.4514  0.9478
18832TIP3    H277988   3.727   4.546   6.314  0.9757  0.3237  0.9569
18833TIP3   OH277989   2.006   0.887   1.414 -1.3162  0.1306  0.2422
18833TIP3    H177990   1.981   0.914   1.502 -1.5180 -0.3043  0.3201
18833TIP3    H277991   2.055   0.961   1.379 -0.3836 -0.0677  1.0806
18834TIP3   OH277992   0.696   6.053   6.091  0.0906 -0.0869 -0.2276
18834TIP3    H177993   0.681   6.044   6.185  0.2288  0.1412 -0.1832
18834TIP3    H277994   0.608   6.055   6.053 -0.1652  3.2484  0.2060
18835TIP3   OH277995   3.018   1.607  11.335  0.6526 -0.6985  0.0912
18835TIP3    H177996   3.054   1.521  11.317  2.4785  0.0496 -0.0055
18835TIP3    H277997   3.090   1.668  11.319 -0.7587  0.9267 -0.5175
18836TIP3   OH277998   0.745   2.282   2.252  0.0577  0.2747  0.2896
18836TIP3    H177999   0.806   2.302   2.180 -0.6739 -0.9900 -0.7343
18836TIP3    H278000   0.698   2.364   2.267  1.5706  1.1009  0.6819
18837TIP3   OH278001   2.829   0.814  13.078 -0.3261 -0.5486 -0.6310
18837TIP3    H178002   2.751   0.807  13.023 -0.0636  1.7135 -1.4109
18837TIP3    H278003   2.797   0.848  13.162 -0.1317  1.8556 -1.4289
18838TIP3   OH278004   6.429   2.552  14.591 -0.0022  0.4077  0.2526
18838TIP3    H178005   6.500   2.529  14.650 -1.0254 -0.5363  1.1666
18838TIP3    H278006   6.392   2.633  14.628  0.1246  0.4941  0.1919
18839TIP3   OH278007   5.901   6.674  16.990 -0.3250  0.3785  0.1693
18839TIP3    H178008   5.854   6.714  16.918  1.2358  0.2870 -0.9570
18839TIP3    H278009   5.865   6.715  17.069  0.4316  3.1946 -0.8546
18840TIP3   OH278010   2.391   5.726  15.228  0.5463  0.6148  0.1338
18840TIP3    H178011   2.311   5.678  15.250  1.3219 -0.0827  1.5423
18840TIP3    H278012   2.362   5.816  15.214 -0.6992  0.0716 -0.9468
18841TIP3   OH278013   5.726   4.729  10.955  0.1655 -0.0803  0.4356
18841TIP3    H178014   5.805   4.685  10.924 -0.9581 -2.8410  1.2010
18841TIP3    H278015   5.728   4.718  11.050 -0.6945  0.6014  0.5496
18842TIP3   OH278016   4.123   0.975  12.397  0.2697  0.0775 -0.4787
18842TIP3    H178017   4.103   1.057  12.351 -0.8313  0.2003  0.1850
18842TIP3    H278018   4.054   0.967  12.463  0.6487 -1.1410 -0.2062
18843TIP3   OH278019   3.063   6.648   5.802 -0.1243 -0.1869 -0.3076
18843TIP3    H178020   3.065   6.742   5.786 -2.0355 -0.2694 -1.3210
18843TIP3    H278021   3.128   6.634   5.870  1.5551  1.5790 -1.4587
18844TIP3   OH278022   3.881   0.964   2.230 -0.3923  0.0012 -0.2799
18844TIP3    H178023   3.955   0.920   2.273 -0.2128  0.3712 -0.2113
18844TIP3    H278024   3.804   0.931   2.277 -0.0969  1.7042  1.5092
18845TIP3   OH278025   0.413   4.791  10.722 -0.4981  0.1705 -0.1704
18845TIP3    H178026   0.362   4.759  10.647  2.2175 -0.0217 -2.0503
18845TIP3    H278027   0.428   4.712  10.775  0.0133 -0.2858 -0.9710
18846TIP3   OH278028   4.304   5.007   6.721 -0.1983 -0.2749  0.0324
18846TIP3    H178029   4.321   4.921   6.683 -0.7602 -0.0682 -0.7197
18846TIP3    H278030   4.210   5.008   6.738 -0.2929  0.3855 -0.4788
18847TIP3   OH278031   0.904   2.244   2.592 -0.0483 -0.0389  0.2379
18847TIP3    H178032   0.914   2.190   2.513  1.9179 -1.9207  1.6495
18847TIP3    H278033   0.955   2.198   2.659 -0.7323  2.0690  2.3408
18848TIP3   OH278034   3.718   0.568  11.930  0.4687 -0.0756  0.2065
18848TIP3    H178035   3.641   0.590  11.878  0.0563 -0.9888  0.4143
18848TIP3    H278036   3.762   0.500  11.880  2.3713  1.9387 -1.0121
18849TIP3   OH278037   3.207   4.497  14.686  0.4878  0.5137 -0.0308
18849TIP3    H178038   3.174   4.525  14.601  1.6440  0.3683 -0.5416
18849TIP3    H278039   3.288   4.547  14.699  0.0850  0.8972  1.2082
18850TIP3   OH278040   0.747   2.004   3.865  0.5492 -0.1224  0.5502
18850TIP3    H178041   0.698   2.084   3.882 -0.5640 -0.2163 -1.8527
18850TIP3    H278042   0.839   2.028   3.879  0.2098  1.4842  0.1964
18851TIP3   OH278043   2.370   3.881  16.798  0.0167 -0.3239 -0.1194
18851TIP3    H178044   2.300   3.864  16.736 -0.6658 -1.8649  1.0055
18851TIP3    H278045   2.326   3.891  16.883  1.0024  0.7138  0.3057
18852TIP3   OH278046   3.370   4.841  14.979  0.0988 -0.2741 -0.1198
18852TIP3    H178047   3.297   4.815  15.035  0.5598  0.5577  0.9195
18852TIP3    H278048   3.443   4.855  15.040  0.2870  1.9073 -0.7350
18853TIP3   OH278049   4.174   3.315  10.874 -0.2122  0.4703  0.4182
18853TIP3    H178050   4.093   3.274  10.844 -0.5359  0.3340  1.4686
18853TIP3    H278051   4.189   3.386  10.811  0.4062 -1.2639 -1.4994
18854TIP3   OH278052   6.065   2.107  11.186  0.0504 -0.4224  0.0090
18854TIP3    H178053   6.099   2.173  11.246 -1.1345 -1.6722  2.2169
18854TIP3    H278054   6.066   2.149  11.100  1.5649  1.5682  0.9229
18855TIP3   OH278055   0.347   6.351  12.666 -0.2831  0.1796  0.0371
18855TIP3    H178056   0.393   6.410  12.606 -0.2197  0.8002  0.6853
18855TIP3    H278057   0.367   6.263  12.633  0.6726  0.4720 -0.1850
18856TIP3   OH278058   0.171   3.977   1.706 -0.2428  0.1806 -0.2475
18856TIP3    H178059   0.187   4.040   1.636  1.2014  0.7389  0.5457
18856TIP3    H278060   0.093   4.009   1.750 -0.1481  0.8032 -0.5245
18857TIP3   OH278061   4.586   6.175  12.294 -0.3901  0.6535  0.4023
18857TIP3    H178062   4.567   6.180  12.200  0.0768 -1.0125  0.1722
18857TIP3    H278063   4.502   6.194  12.336 -0.6536  1.2408 -0.3615
18858TIP3   OH278064   4.846   2.812  14.411 -0.1101  0.1062 -0.2899
18858TIP3    H178065   4.892   2.825  14.328 -0.4212  0.8531 -0.3566
18858TIP3    H278066   4.842   2.899  14.450  2.2530 -0.5888  1.7393
18859TIP3   OH278067   5.860   6.492   4.830 -0.1792 -0.1159  0.5773
18859TIP3    H178068   5.875   6.521   4.920  0.7041 -2.5364  1.2706
18859TIP3    H278069   5.873   6.397   4.832 -3.2039 -0.7138 -1.4753
18860TIP3   OH278070   1.292   5.927   2.066  0.3315 -0.2175  0.3048
18860TIP3    H178071   1.282   5.997   2.130  1.0925  1.0893 -0.9495
18860TIP3    H278072   1.202   5.907   2.039  0.1217  0.5489  0.3967
18861TIP3   OH278073   4.268   3.092  15.799 -0.1917  0.1113 -0.3216
18861TIP3    H178074   4.346   3.059  15.754 -0.4846  1.9357 -2.2971
18861TIP3    H278075   4.212   3.015  15.810  1.0133 -0.8492 -0.6746
18862TIP3   OH278076   6.788   4.155   0.816  0.2115 -0.0624 -0.3721
18862TIP3    H178077   6.704   4.194   0.842  0.7601  0.8351  0.1198
18862TIP3    H278078   6.776   4.132   0.724 -0.1696  1.2552 -0.6794
18863TIP3   OH278079   4.212   3.482  10.266 -0.1285 -0.3732 -0.3568
18863TIP3    H178080   4.287   3.460  10.212  0.4537 -0.7428  0.5759
18863TIP3    H278081   4.201   3.576  10.255  0.0106 -0.4325 -1.0642
18864TIP3   OH278082   0.502   3.613   0.110 -0.2148 -0.6351  0.5542
18864TIP3    H178083   0.476   3.544   0.048  0.4202 -1.3461  1.0540
18864TIP3    H278084   0.442   3.685   0.092 -0.6377 -1.1692 -0.2622
18865TIP3   OH278085   0.455   6.113  12.575 -0.6850  0.3019  0.6429
18865TIP3    H178086   0.419   6.133  12.489 -0.6224  1.2074  0.8202
18865TIP3    H278087   0.409   6.034  12.603  2.3609 -2.8096 -2.0959
18866TIP3   OH278088   2.848   4.159  12.837 -0.4209  0.2189  0.4872
18866TIP3    H178089   2.918   4.219  12.865  1.6529 -0.6104 -2.4164
18866TIP3    H278090   2.845   4.092  12.905  1.2016  0.6323  1.0141
18867TIP3   OH278091   6.341   1.958  11.348  0.0850  0.5629  0.1239
18867TIP3    H178092   6.250   1.975  11.373 -0.1541 -0.0753 -0.2863
18867TIP3    H278093   6.336   1.935  11.255  0.4038 -1.4309  0.5456
18868TIP3   OH278094   4.366   0.910   0.103 -0.1571 -1.0375 -0.2158
18868TIP3    H178095   4.333   0.998   0.088  0.5341 -0.0042  3.4490
18868TIP3    H278096   4.460   0.916   0.084 -0.0172 -0.8188  0.5189
18869TIP3   OH278097   1.211   3.946  13.098  0.5299  0.3846  0.6173
18869TIP3    H178098   1.208   3.929  13.192 -0.5885 -0.3925  0.4605
18869TIP3    H278099   1.195   3.860  13.057 -2.5167  1.2562 -0.2331
18870TIP3   OH278100   3.255   1.981   4.365 -0.2728  0.3295 -0.3229
18870TIP3    H178101   3.201   1.932   4.428  0.2879  0.4665  0.2701
18870TIP3    H278102   3.343   1.978   4.402  0.5988 -1.6930 -2.3123
18871TIP3   OH278103   0.798   3.813   6.055  0.3127 -0.2446  0.4865
18871TIP3    H178104   0.752   3.772   6.128  1.1856 -0.2331  1.0480
18871TIP3    H278105   0.841   3.889   6.092  1.6655 -0.8392  0.2156
18872TIP3   OH278106   0.708   3.416  10.757  0.1556  0.1919  0.5956
18872TIP3    H178107   0.700   3.474  10.834 -0.1163  1.2075 -0.1736
18872TIP3    H278108   0.735   3.332  10.793  0.2618  0.7162  1.7866
18873TIP3   OH278109   3.728   4.460   4.729 -0.0651 -0.9319 -0.2097
18873TIP3    H178110   3.822   4.448   4.746 -0.2504 -1.9065  0.1935
18873TIP3    H278111   3.698   4.515   4.801  0.1499 -0.7814 -0.2315
18874TIP3   OH278112   6.573   6.612  13.457 -0.1312 -0.3376 -0.3222
18874TIP3    H178113   6.553   6.632  13.549  0.2251  0.7598 -0.4731
18874TIP3    H278114   6.490   6.624  13.411 -0.2045 -0.4431 -0.2201
18875TIP3   OH278115   6.077   0.523   4.497 -0.0823 -0.2694  0.6554
18875TIP3    H178116   6.009   0.486   4.552 -0.4432  0.4610  0.7085
18875TIP3    H278117   6.153   0.530   4.555 -0.5067  0.6473  1.1138
18876TIP3   OH278118   0.861   0.234  13.747 -0.0860  0.3900  0.2667
18876TIP3    H178119   0.864   0.213  13.841  1.3631 -2.2636 -0.2692
18876TIP3    H278120   0.789   0.180  13.714  1.5458 -1.3113 -0.6397
18877TIP3   OH278121   6.470   4.844  13.535  0.0363  0.2736  0.3447
18877TIP3    H178122   6.527   4.852  13.611 -1.7297  0.4676  1.7256
18877TIP3    H278123   6.436   4.755  13.539 -0.8626  0.5996  0.4148
18878TIP3   OH278124   2.694   3.550  14.448 -0.0132 -0.3210 -0.1434
18878TIP3    H178125   2.712   3.590  14.533 -1.0229 -1.2550  0.5293
18878TIP3    H278126   2.640   3.614  14.402 -1.2547 -0.7058  0.7553
18879TIP3   OH278127   4.695   5.292  14.852 -0.0506  0.4035  0.1594
18879TIP3    H178128   4.632   5.283  14.923 -0.4985 -0.9633 -0.3881
18879TIP3    H278129   4.680   5.216  14.796  2.7751 -0.5278  0.5413
18880TIP3   OH278130   3.179   6.112   2.511  0.0080  1.1341  0.1073
18880TIP3    H178131   3.239   6.055   2.560 -0.7997  1.0998  1.1034
18880TIP3    H278132   3.220   6.198   2.516  0.7350  0.8440 -0.5507
18881TIP3   OH278133   2.408   4.258  11.728  0.3494  0.0857 -0.5674
18881TIP3    H178134   2.503   4.265  11.740  0.3428 -2.0393  1.5380
18881TIP3    H278135   2.371   4.296  11.808 -0.5078 -0.2547 -0.7838
18882TIP3   OH278136   1.997   1.180  14.987 -0.8887  0.2678 -0.0276
18882TIP3    H178137   2.028   1.223  14.908  1.0034 -0.2400  0.3780
18882TIP3    H278138   2.047   1.098  14.992 -0.6946  0.4435  1.8507
18883TIP3   OH278139   1.223   0.412  11.105  0.2150 -0.3366  0.0012
18883TIP3    H178140   1.174   0.384  11.028  1.6712  0.0910 -1.1218
18883TIP3    H278141   1.172   0.484  11.142  0.0786  0.2324 -1.2578
18884TIP3   OH278142   1.582   1.436  13.975 -0.0232 -0.1257  0.0880
18884TIP3    H178143   1.498   1.417  13.934 -1.0032  1.2041  1.3820
18884TIP3    H278144   1.611   1.352  14.010 -0.8942 -0.5702 -0.2275
18885TIP3   OH278145   4.321   4.933  12.179 -0.1704 -0.3186  0.4375
18885TIP3    H178146   4.278   4.874  12.117  0.9178 -1.0450  0.3559
18885TIP3    H278147   4.328   5.016  12.131  1.0576 -0.9919 -0.6077
18886TIP3   OH278148   0.502   4.881  15.246 -0.0620  0.1557  0.5641
18886TIP3    H178149   0.421   4.891  15.196  1.2159  0.9833 -1.4456
18886TIP3    H278150   0.519   4.969  15.281 -0.5383 -0.2486  1.8926
18887TIP3   OH278151   5.528   4.691  16.704 -0.0943  0.2484 -0.1101
18887TIP3    H178152   5.566   4.605  16.684 -0.3057  0.0611  0.2791
18887TIP3    H278153   5.503   4.727  16.619 -0.5904 -0.3543 -0.2268
18888TIP3   OH278154   1.538   5.995  14.631  0.2633  0.2708  0.2302
18888TIP3    H178155   1.565   5.982  14.540  2.4909 -0.4450  0.9180
18888TIP3    H278156   1.491   5.915  14.654 -0.8465  0.7160 -0.4562
18889TIP3   OH278157   5.126   1.601   4.729 -0.0444  0.8191  0.4903
18889TIP3    H178158   5.211   1.558   4.736  1.4622  3.0491 -2.0443
18889TIP3    H278159   5.096   1.581   4.640 -0.3696  2.9788  0.0603
18890TIP3   OH278160   4.127   0.964   3.403 -0.1407 -0.2832 -0.3145
18890TIP3    H178161   4.209   1.008   3.383 -0.0363 -0.4408 -0.2335
18890TIP3    H278162   4.143   0.917   3.485 -0.6042  0.4594  0.2135
18891TIP3   OH278163   1.189   5.345   2.438  0.5898  0.0784 -0.3740
18891TIP3    H178164   1.229   5.260   2.457 -0.5014 -0.7275 -1.5762
18891TIP3    H278165   1.105   5.325   2.398  0.9710  1.6912 -2.1714
18892TIP3   OH278166   3.446   2.270   3.419  0.1676  0.1632  0.2336
18892TIP3    H178167   3.445   2.291   3.513 -0.9224  1.7591 -0.1024
18892TIP3    H278168   3.370   2.213   3.407 -0.7900  1.4390  0.0388
18893TIP3   OH278169   1.963   0.652  11.886  0.1320  0.1092  0.3714
18893TIP3    H178170   1.972   0.659  11.791 -1.2996  2.5191  0.3122
18893TIP3    H278171   2.039   0.698  11.921 -1.5501  3.2525  0.2205
18894TIP3   OH278172   3.720   0.206  13.755 -0.1060 -0.4296  0.5237
18894TIP3    H178173   3.701   0.254  13.674  1.7575 -0.3999  0.0541
18894TIP3    H278174   3.700   0.268  13.825 -0.0464  0.1797  0.0124
18895TIP3   OH278175   0.771   2.856   3.713 -0.2234  0.2969  0.4694
18895TIP3    H178176   0.758   2.764   3.690  0.8621  0.2468  0.0218
18895TIP3    H278177   0.849   2.883   3.665 -0.9600  1.6797 -0.0216
18896TIP3   OH278178   1.527   1.583  12.206 -0.4482 -0.2884  0.5854
18896TIP3    H178179   1.471   1.533  12.265 -1.6201  0.9195  0.5514
18896TIP3    H278180   1.616   1.556  12.229 -0.9985 -1.6040  1.2455
18897TIP3   OH278181   6.033   1.245  12.329  0.6248 -0.2761  0.2506
18897TIP3    H178182   6.102   1.280  12.272  2.0963 -0.8854  1.5596
18897TIP3    H278183   6.081   1.202  12.400 -1.1001 -2.1068  0.4088
18898TIP3   OH278184   5.710   0.572   2.499  0.0387 -0.0498 -0.3136
18898TIP3    H178185   5.621   0.543   2.482 -0.2208  0.0833  0.7336
18898TIP3    H278186   5.701   0.638   2.568  1.2344 -3.1591  3.1556
18899TIP3   OH278187   6.368   3.985  11.378  0.1491  0.6819 -0.1827
18899TIP3    H178188   6.327   4.064  11.344 -2.1799  0.2510  1.3841
18899TIP3    H278189   6.349   3.987  11.472  1.0323 -1.1665  0.0784
18900TIP3   OH278190   0.607   1.906   2.309  0.3754 -0.0774 -0.3380
18900TIP3    H178191   0.570   1.819   2.298 -1.7470  0.7180 -0.0909
18900TIP3    H278192   0.599   1.923   2.403 -0.3195  0.8048 -0.5445
18901TIP3   OH278193   2.758   3.963  16.402 -0.0943 -0.3561  0.1635
18901TIP3    H178194   2.670   3.942  16.434 -0.1794 -0.2551 -0.0017
18901TIP3    H278195   2.809   3.979  16.481 -0.1317 -0.7764  0.2733
18902TIP3   OH278196   5.160   2.968   3.133 -0.1583  0.2685  0.1154
18902TIP3    H178197   5.159   2.920   3.051 -2.0312  1.7549 -0.8346
18902TIP3    H278198   5.120   2.909   3.197 -3.0775  0.6817 -1.1824
18903TIP3   OH278199   0.884   5.830   2.198  0.2185  0.4502  0.8674
18903TIP3    H178200   0.809   5.789   2.240 -0.1618  1.4011  1.1327
18903TIP3    H278201   0.848   5.906   2.152  0.6174 -0.5427 -1.1956
18904TIP3   OH278202   6.507   2.910  12.833 -0.4598  0.1125  0.3581
18904TIP3    H178203   6.540   2.820  12.834  0.0308  0.2616 -0.6256
18904TIP3    H278204   6.433   2.907  12.771 -0.5530  0.3482  0.4580
18905TIP3   OH278205   2.891   1.433  16.198  0.2921  0.6647  0.0876
18905TIP3    H178206   2.951   1.444  16.124  0.8519  0.2137  0.4672
18905TIP3    H278207   2.808   1.470  16.167  0.1082 -0.7923 -1.2945
18906TIP3   OH278208   2.891   0.326  12.111  0.6416 -0.6306 -0.2135
18906TIP3    H178209   2.954   0.392  12.141 -0.6723  0.3900  0.4548
18906TIP3    H278210   2.883   0.266  12.185  1.0261 -0.9149 -0.4015
18907TIP3   OH278211   4.999   3.712   2.262 -0.1991 -0.3449 -0.1360
18907TIP3    H178212   4.974   3.778   2.198 -0.3520 -0.4988 -0.2340
18907TIP3    H278213   4.916   3.676   2.294 -0.1162 -0.5039 -0.0976
18908TIP3   OH278214   0.850   3.171  12.657  0.0855 -0.2764  0.0813
18908TIP3    H178215   0.915   3.199  12.722  0.1434  1.0673 -0.5351
18908TIP3    H278216   0.847   3.242  12.593 -1.7152 -0.4969 -0.1301
18909TIP3   OH278217   6.312   4.790   6.466 -0.3619  0.0841  0.3200
18909TIP3    H178218   6.227   4.753   6.441  0.7286 -0.8538 -2.4231
18909TIP3    H278219   6.294   4.881   6.486 -2.0839 -0.1844  0.1530
18910TIP3   OH278220   0.007   0.788  15.369  0.2289 -0.3302 -0.4985
18910TIP3    H178221  -0.025   0.800  15.279 -1.6025  0.5730  0.2483
18910TIP3    H278222   0.046   0.873  15.392  0.9492 -0.6472 -0.5047
18911TIP3   OH278223   1.110   1.875  16.924  0.0983  0.3745  0.2893
18911TIP3    H178224   1.193   1.923  16.930  0.4982 -0.1403 -0.8599
18911TIP3    H278225   1.102   1.853  16.831 -0.3640 -1.2553  0.6825
18912TIP3   OH278226   5.735   0.844   0.049 -0.3128 -0.2925  0.1768
18912TIP3    H178227   5.781   0.786  -0.011  0.5140 -2.0825  2.3669
18912TIP3    H278228   5.731   0.795   0.131 -1.1174  2.1038  1.6919
18913TIP3   OH278229   2.407   6.737  14.799  0.1730 -0.5810 -0.4042
18913TIP3    H178230   2.445   6.716  14.884 -1.4751  0.6073  0.6814
18913TIP3    H278231   2.419   6.657  14.747  0.9239 -1.4477  1.0350
18914TIP3   OH278232   2.203   4.872   2.990 -0.5898 -0.0381 -0.1871
18914TIP3    H178233   2.269   4.941   2.994 -1.6926  1.0116  0.2158
18914TIP3    H278234   2.211   4.837   2.901 -0.3104  0.8982 -0.5456
18915TIP3   OH278235   3.101   1.462   0.043 -0.1134  0.5123 -0.1528
18915TIP3    H178236   3.030   1.522   0.019 -0.3373  0.1604 -0.3628
18915TIP3    H278237   3.069   1.417   0.121 -1.6032 -2.1587 -2.1669
18916TIP3   OH278238   3.051   5.710   4.529 -0.0240  0.2838 -0.1465
18916TIP3    H178239   3.123   5.679   4.585 -2.4158 -0.4862  2.7842
18916TIP3    H278240   3.084   5.700   4.440  4.5011  2.5652  0.9333
18917TIP3   OH278241   4.266   3.549   2.250 -0.1025 -0.1500  0.3045
18917TIP3    H178242   4.198   3.607   2.286 -1.7013 -1.5690 -0.2773
18917TIP3    H278243   4.218   3.488   2.194  1.7214 -1.0419 -0.3667
18918TIP3   OH278244   2.443   6.133  17.192 -0.6382  0.0568  0.3546
18918TIP3    H178245   2.455   6.158  17.100  2.3875 -1.2074  0.2681
18918TIP3    H278246   2.440   6.037  17.189 -1.6182  0.0393  1.5035
18919TIP3   OH278247   0.245   6.724   3.152  0.1234 -0.1492  0.2278
18919TIP3    H178248   0.225   6.814   3.127  1.4949 -0.2872 -1.5908
18919TIP3    H278249   0.275   6.730   3.243  2.0721  1.5757 -0.4429
18920TIP3   OH278250   2.146   0.710  13.910 -0.3720 -0.4426 -0.0602
18920TIP3    H178251   2.142   0.803  13.928 -1.2943 -0.6462  0.9408
18920TIP3    H278252   2.110   0.701  13.822 -2.4646 -0.0313  0.6821
18921TIP3   OH278253   3.300   5.837  13.975  0.0601 -0.3660 -0.5612
18921TIP3    H178254   3.278   5.745  13.963 -0.4271 -0.3132 -0.0783
18921TIP3    H278255   3.382   5.836  14.025 -0.9700 -0.5367  1.1919
18922TIP3   OH278256   1.952   6.512  13.347 -0.0247 -0.7180  0.0658
18922TIP3    H178257   1.872   6.553  13.314  1.3207  0.0422 -2.5456
18922TIP3    H278258   1.928   6.478  13.433 -2.3820  1.8672  0.5786
18923TIP3   OH278259   2.137   3.976  14.548 -0.2186 -0.0202 -0.0010
18923TIP3    H178260   2.103   4.053  14.594  2.3978  0.8280  0.6865
18923TIP3    H278261   2.059   3.926  14.524 -2.1064  3.1536 -1.0971
18924TIP3   OH278262   3.739   3.415  11.082 -0.0818 -0.1365 -0.0730
18924TIP3    H178263   3.679   3.413  11.008 -1.1365  1.7266  0.6687
18924TIP3    H278264   3.685   3.396  11.158  0.3182  1.1474  0.5646
18925TIP3   OH278265   4.752   0.496   4.621 -0.6906 -0.8263  0.4672
18925TIP3    H178266   4.687   0.535   4.563  0.4391  0.4506  0.0384
18925TIP3    H278267   4.717   0.511   4.709 -0.8782  0.0355  0.2508
18926TIP3   OH278268   6.006   6.168   4.078 -0.5435  0.3735 -0.0338
18926TIP3    H178269   6.002   6.227   4.003 -0.6824 -0.1915 -0.4795
18926TIP3    H278270   5.932   6.108   4.066  1.2982 -1.7973 -1.2284
18927TIP3   OH278271   6.484   2.433  16.640 -0.7717  0.3234 -0.1686
18927TIP3    H178272   6.505   2.373  16.711 -1.1923  0.3554 -0.0160
18927TIP3    H278273   6.546   2.410  16.570 -0.9335 -0.2933 -0.1174
18928TIP3   OH278274   3.618   0.129  13.410 -0.0229 -0.6586 -0.3735
18928TIP3    H178275   3.676   0.062  13.446  0.2333 -0.0989  0.2757
18928TIP3    H278276   3.676   0.186  13.359 -0.1679 -0.6995 -0.5820
18929TIP3   OH278277   3.070   4.079   0.151 -0.4359 -0.6072  0.8686
18929TIP3    H178278   3.101   4.030   0.227 -1.6931  0.9066  2.4503
18929TIP3    H278279   3.084   4.171   0.174  0.0237 -0.1336 -1.1535
18930TIP3   OH278280   5.856   5.732  16.799  0.2015 -0.0571  0.2704
18930TIP3    H178281   5.836   5.766  16.886 -0.2405  0.4606 -0.0206
18930TIP3    H278282   5.942   5.692  16.807  0.9588  1.5635  0.5344
18931TIP3   OH278283   6.181   1.539  13.048  0.2368 -0.1296  0.0678
18931TIP3    H178284   6.244   1.604  13.017 -0.7290  1.7280  1.7643
18931TIP3    H278285   6.125   1.522  12.972 -0.0878  1.7884 -0.1657
18932TIP3   OH278286   4.330   4.957  12.458 -0.1042 -0.4075 -0.6216
18932TIP3    H178287   4.372   5.042  12.467 -0.5189 -0.2827  0.2482
18932TIP3    H278288   4.334   4.937  12.364  0.0591  0.5347 -0.8184
18933TIP3   OH278289   1.687   3.273  13.034 -0.1214 -0.2673 -0.0138
18933TIP3    H178290   1.725   3.287  12.948 -0.9717  1.7564 -0.1294
18933TIP3    H278291   1.762   3.260  13.092  0.5267 -0.2854 -0.8446
18934TIP3   OH278292   3.064   0.477   2.580  0.5542 -0.0698  0.2431
18934TIP3    H178293   3.087   0.494   2.672 -1.7357  0.1384  0.8448
18934TIP3    H278294   3.113   0.543   2.531  2.7281 -0.9144  1.1546
18935TIP3   OH278295   4.455   3.676  11.887  0.2958 -0.3572  0.2270
18935TIP3    H178296   4.510   3.601  11.865  0.0521 -0.7435  0.8830
18935TIP3    H278297   4.461   3.683  11.982 -0.8452 -0.4665  0.3259
18936TIP3   OH278298   5.327   2.126  15.504 -0.1382  0.1687 -0.2721
18936TIP3    H178299   5.344   2.111  15.411  1.2798  0.0523 -0.0033
18936TIP3    H278300   5.311   2.038  15.540  0.8357  0.0458 -0.1211
18937TIP3   OH278301   5.477   2.075   2.782  0.0068 -0.3028 -0.0920
18937TIP3    H178302   5.518   2.157   2.810  0.7360 -0.7300  0.1111
18937TIP3    H278303   5.384   2.087   2.802 -0.1409  1.0595 -1.4517
18938TIP3   OH278304   6.044   4.912   0.338 -0.1674 -0.1773 -0.3557
18938TIP3    H178305   6.090   4.887   0.257 -2.7650 -0.8346 -1.7143
18938TIP3    H278306   6.064   4.842   0.399  2.7477  0.8642  0.0712
18939TIP3   OH278307   2.100   6.673   5.526 -0.2548  0.3730  0.2071
18939TIP3    H178308   2.113   6.767   5.512  0.2887  0.5187  1.6253
18939TIP3    H278309   2.084   6.664   5.620 -1.5718 -0.8289 -0.0914
18940TIP3   OH278310   0.725   6.657   4.332  0.1728  0.0702  0.5080
18940TIP3    H178311   0.715   6.750   4.351  0.4381  0.0839  0.5850
18940TIP3    H278312   0.663   6.614   4.391 -0.7781  0.2640 -0.3344
18941TIP3   OH278313   1.377   0.315   2.559 -0.2803  0.3105 -0.1178
18941TIP3    H178314   1.421   0.395   2.532 -0.8543 -0.0431 -2.2590
18941TIP3    H278315   1.296   0.313   2.508  0.2024 -2.1371 -0.9116
18942TIP3   OH278316   1.227   2.851   3.476  0.4108  0.2970 -0.8043
18942TIP3    H178317   1.322   2.833   3.476  0.2163 -0.7949 -1.0102
18942TIP3    H278318   1.187   2.765   3.465 -0.6523  0.5039  1.1037
18943TIP3   OH278319   1.696   5.433  16.766 -0.3971 -0.0294  0.5091
18943TIP3    H178320   1.689   5.488  16.688 -1.8594 -0.4158  0.3302
18943TIP3    H278321   1.754   5.362  16.740 -0.8691 -0.1511 -0.2396
18944TIP3   OH278322   4.874   3.012   1.751 -0.2525 -0.1426  0.4009
18944TIP3    H178323   4.950   3.068   1.737 -0.3134  0.6580  2.7977
18944TIP3    H278324   4.802   3.059   1.710  0.2044  0.0443 -0.2040
18945TIP3   OH278325   2.632   6.049  16.149  0.4481 -0.0674  0.1161
18945TIP3    H178326   2.709   6.039  16.093  0.9415  0.9118  0.5784
18945TIP3    H278327   2.611   6.142  16.144  0.0644 -0.0969  0.9689
18946TIP3   OH278328   2.005   5.162  11.836 -0.0605  0.3093  0.8349
18946TIP3    H178329   2.035   5.143  11.925  0.4288  2.3020  1.1502
18946TIP3    H278330   2.059   5.106  11.780  1.0301  0.4556  1.6972
18947TIP3   OH278331   1.556   1.150  16.003  0.1078  0.2094 -0.2244
18947TIP3    H178332   1.502   1.124  15.928  0.1001  2.0489 -0.8993
18947TIP3    H278333   1.625   1.084  16.006 -0.3286 -0.3424 -1.3628
18948TIP3   OH278334   5.747   3.705   1.588 -0.1855 -0.1550  0.2926
18948TIP3    H178335   5.842   3.697   1.592 -0.2442 -0.7340  0.7601
18948TIP3    H278336   5.715   3.638   1.650 -0.8366  1.2604  1.5401
18949TIP3   OH278337   2.618   2.944  13.809  0.0205  1.1131  0.0459
18949TIP3    H178338   2.626   2.971  13.718  0.4829  1.1847  0.1068
18949TIP3    H278339   2.528   2.912  13.817  0.1459  0.6090 -0.5648
18950TIP3   OH278340   3.811   4.137   2.200  0.2665  0.4396  0.0833
18950TIP3    H178341   3.765   4.151   2.283  0.9934 -1.5794  0.8989
18950TIP3    H278342   3.746   4.156   2.132 -0.8302  0.5757  1.1457
18951TIP3   OH278343   0.475   0.441   2.526  0.0017 -0.3460  0.0819
18951TIP3    H178344   0.394   0.397   2.552 -0.4437  0.6519  0.4392
18951TIP3    H278345   0.491   0.411   2.437 -1.7038  0.7383 -0.6313
18952TIP3   OH278346   6.803   3.948   0.534 -0.3706  0.8483  0.2070
18952TIP3    H178347   6.865   3.892   0.489 -0.2370 -0.7899  2.2596
18952TIP3    H278348   6.755   3.993   0.464 -0.7455 -2.0990 -1.5824
18953TIP3   OH278349   2.342   5.811   2.341 -0.2133 -0.2432 -0.1289
18953TIP3    H178350   2.417   5.826   2.284  0.4295 -0.1219  0.7311
18953TIP3    H278351   2.291   5.743   2.297  0.2942 -0.1827 -0.8154
18954TIP3   OH278352   0.220   0.762  16.566 -0.1503  0.5895 -0.3272
18954TIP3    H178353   0.289   0.824  16.546  0.3028  0.3852  0.5374
18954TIP3    H278354   0.143   0.816  16.586  0.7335  0.9969  2.2929
18955TIP3   OH278355   1.795   3.992  11.163  0.1596 -0.1221 -0.3943
18955TIP3    H178356   1.876   3.948  11.140  1.1474  1.6036 -0.3590
18955TIP3    H278357   1.747   3.928  11.216  0.9422 -1.5867 -1.3900
18956TIP3   OH278358   0.527   4.537  13.548  0.1725  0.8718  0.4754
18956TIP3    H178359   0.504   4.613  13.602 -0.2756  2.3193 -1.6402
18956TIP3    H278360   0.468   4.542  13.473  0.7794 -1.0734 -0.2007
18957TIP3   OH278361   0.646   4.446   4.893 -0.0187 -0.4828 -0.0625
18957TIP3    H178362   0.612   4.464   4.981  0.1757 -0.3139 -0.0194
18957TIP3    H278363   0.728   4.496   4.889 -0.6829  0.5912 -0.8226
18958TIP3   OH278364   0.280   1.475  13.174  0.0383 -0.6491  0.3690
18958TIP3    H178365   0.191   1.446  13.196  0.2143 -1.6159 -0.1244
18958TIP3    H278366   0.302   1.538  13.242 -0.7004 -1.0454  0.9987
18959TIP3   OH278367   2.573   4.170  15.624  0.3166  0.4937 -0.0786
18959TIP3    H178368   2.659   4.137  15.598  0.1654  0.6255 -0.7964
18959TIP3    H278369   2.566   4.255  15.580  0.2460  0.9754  0.8370
18960TIP3   OH278370   2.962   1.680   2.894  0.2751 -1.2171  0.3778
18960TIP3    H178371   3.051   1.714   2.904  0.5799 -1.7402 -0.4188
18960TIP3    H278372   2.957   1.607   2.956  1.2017 -2.6628 -1.1811
18961TIP3   OH278373   6.664   6.788   0.275  0.0289 -0.9269  0.4750
18961TIP3    H178374   6.656   6.728   0.200  1.1809 -0.5655  0.0409
18961TIP3    H278375   6.676   6.874   0.235 -1.1232 -0.4501  1.0982
18962TIP3   OH278376   1.426   6.045  16.125 -0.1598 -0.2348  0.1177
18962TIP3    H178377   1.427   5.981  16.196  0.3426  0.2162  0.5286
18962TIP3    H278378   1.511   6.035  16.082  0.9390  1.7187  1.6499
18963TIP3   OH278379   1.706   6.313  14.607  0.0675  0.5135 -0.0534
18963TIP3    H178380   1.741   6.224  14.613 -0.3983  0.4072  1.9227
18963TIP3    H278381   1.776   6.369  14.640  0.0388  0.7813 -0.4459
18964TIP3   OH278382   0.726   5.227   4.189 -0.7281 -0.0728 -0.3562
18964TIP3    H178383   0.788   5.275   4.134 -1.6623  1.6490  0.0513
18964TIP3    H278384   0.647   5.220   4.136 -1.3744  0.9149  0.4698
18965TIP3   OH278385   4.050   5.743  15.804  0.5102  0.2844 -0.7229
18965TIP3    H178386   4.119   5.792  15.850 -1.5330  1.8589  0.8938
18965TIP3    H278387   4.082   5.653  15.802  2.5626  0.9350  0.0423
18966TIP3   OH278388   6.230   4.415  14.190 -0.2944 -0.2483 -0.4175
18966TIP3    H178389   6.295   4.404  14.121 -0.9197 -0.3928 -0.9916
18966TIP3    H278390   6.192   4.328  14.202 -1.0235  0.0199 -0.7314
18967TIP3   OH278391   1.116   3.760  11.617  0.2767  0.5484 -0.3063
18967TIP3    H178392   1.096   3.703  11.543  0.5173  1.3122 -0.9844
18967TIP3    H278393   1.130   3.846  11.577  0.6464  0.9245  0.6051
18968TIP3   OH278394   1.344   3.351   4.764  0.6189 -0.1462 -0.1153
18968TIP3    H178395   1.408   3.285   4.737  0.2894  0.3327 -2.2183
18968TIP3    H278396   1.263   3.302   4.780  0.9896 -0.5135  0.7185
18969TIP3   OH278397   4.121   0.967  13.675  0.3110 -0.2897 -0.1910
18969TIP3    H178398   4.029   0.950  13.659  0.2955 -1.3829  0.9487
18969TIP3    H278399   4.144   0.911  13.749  2.0126 -0.4170 -0.7654
18970TIP3   OH278400   0.285   5.597   2.303 -0.3945 -0.6271 -0.3246
18970TIP3    H178401   0.362   5.597   2.360  0.1057 -2.3923 -0.9474
18970TIP3    H278402   0.240   5.515   2.322 -2.2684  0.4472  0.1620
18971TIP3   OH278403   2.888   6.048  15.963 -0.2153  0.0038  0.2078
18971TIP3    H178404   2.963   6.082  16.012  0.3746 -0.6126 -0.2495
18971TIP3    H278405   2.892   5.953  15.976 -0.3934 -0.1153 -0.5539
18972TIP3   OH278406   6.100   0.632  14.057 -0.4228 -0.2556  0.1135
18972TIP3    H178407   6.028   0.592  14.007 -1.8982 -0.2037  2.0897
18972TIP3    H278408   6.080   0.725  14.057 -0.4905 -0.2706  0.8890
18973TIP3   OH278409   2.099   4.381   2.109  0.1558  0.5778 -0.0486
18973TIP3    H178410   2.138   4.416   2.028  1.6463 -0.6210  0.0968
18973TIP3    H278411   2.104   4.453   2.171  1.4220  0.7236 -0.2901
18974TIP3   OH278412   2.759   4.370  11.567 -0.1183  0.9652  0.2338
18974TIP3    H178413   2.773   4.463  11.553 -0.4153  1.0459  0.4618
18974TIP3    H278414   2.813   4.327  11.501  0.5728  1.2807  0.5869
18975TIP3   OH278415   0.585   4.418  15.768 -0.0653  0.0852  0.3611
18975TIP3    H178416   0.632   4.335  15.775 -0.3141 -0.0025  1.0602
18975TIP3    H278417   0.500   4.401  15.809 -0.5793  0.3433 -0.5697
18976TIP3   OH278418   5.919   6.567   6.194  0.5948 -0.4593 -0.2061
18976TIP3    H178419   5.993   6.582   6.253 -0.0128  0.4744  0.3226
18976TIP3    H278420   5.851   6.626   6.224  0.0696 -0.3760 -1.4958
18977TIP3   OH278421   5.443   3.326   2.928  0.1924 -0.2541 -0.2974
18977TIP3    H178422   5.350   3.335   2.906 -0.4982 -1.0419  2.0627
18977TIP3    H278423   5.466   3.238   2.897  0.0241 -0.2552 -0.4223
18978TIP3   OH278424   6.726   0.316   1.066  0.0847  0.4570  0.1171
18978TIP3    H178425   6.656   0.381   1.074  1.5779  2.0445  1.0458
18978TIP3    H278426   6.705   0.249   1.131 -0.9786  0.4879 -0.1823
18979TIP3   OH278427   2.159   3.247  12.547 -0.3802  0.0575  0.1366
18979TIP3    H178428   2.095   3.315  12.567  1.3921  2.6467 -2.2070
18979TIP3    H278429   2.141   3.223  12.456  0.1197 -1.4088  0.3968
18980TIP3   OH278430   4.929   1.011  13.149 -0.0425 -0.4593  0.4132
18980TIP3    H178431   4.894   0.978  13.232  2.3577 -1.2088  1.2077
18980TIP3    H278432   4.938   1.105  13.163  2.2534 -0.8236  1.8424
18981TIP3   OH278433   0.684   4.141   0.012 -0.2390  0.3877  0.2508
18981TIP3    H178434   0.739   4.091   0.072  0.4075  0.5876 -0.1607
18981TIP3    H278435   0.688   4.231   0.045 -0.5128  0.3606  0.3571
18982TIP3   OH278436   2.411   2.018  16.371  0.1744  0.2271  0.0284
18982TIP3    H178437   2.329   1.989  16.331  0.1482  0.6528 -0.2338
18982TIP3    H278438   2.449   2.078  16.307  1.1810 -0.7230 -0.2881
18983TIP3   OH278439   0.595   6.043   3.579 -0.2264  0.2495  0.3127
18983TIP3    H178440   0.633   5.956   3.580 -1.8404 -0.4833  1.4969
18983TIP3    H278441   0.530   6.040   3.509 -0.3271  0.4817  0.3949
18984TIP3   OH278442   5.373   3.319  16.514  0.3254 -0.1647 -0.2631
18984TIP3    H178443   5.412   3.304  16.428  1.3405  0.4096  0.0762
18984TIP3    H278444   5.372   3.232  16.555 -0.6677 -0.5396 -1.0372
18985TIP3   OH278445   6.337   1.952   5.731 -0.0848 -0.2851  0.0080
18985TIP3    H178446   6.414   1.969   5.784 -0.6355 -0.5283  0.9089
18985TIP3    H278447   6.293   2.037   5.724 -0.8409 -0.5509  1.2968
18986TIP3   OH278448   0.660   0.947   5.743  0.4557 -0.6000  0.2155
18986TIP3    H178449   0.700   1.007   5.680 -0.7559 -0.4858 -0.4699
18986TIP3    H278450   0.568   0.972   5.745  0.7608  0.8114  3.6219
18987TIP3   OH278451   5.644   6.625   3.446  0.0696  0.4301  0.1600
18987TIP3    H178452   5.715   6.677   3.407  1.0013 -0.1498  1.0294
18987TIP3    H278453   5.626   6.557   3.381  0.1333  0.7240 -0.1718
18988TIP3   OH278454   5.190   4.830   1.875  0.1228 -0.1045 -0.2979
18988TIP3    H178455   5.195   4.909   1.929 -0.3006 -0.2685 -0.0129
18988TIP3    H278456   5.105   4.837   1.831  0.4813  0.0492 -0.9821
18989TIP3   OH278457   2.536   2.969  11.185  0.2005  0.6145 -0.2648
18989TIP3    H178458   2.441   2.979  11.178 -0.1695 -2.1634 -0.6819
18989TIP3    H278459   2.569   3.056  11.206 -2.3469  1.8334 -0.9847
18990TIP3   OH278460   4.295   2.896  12.593 -0.0477 -0.8633 -0.2894
18990TIP3    H178461   4.335   2.824  12.544  3.7344  0.7865  0.0571
18990TIP3    H278462   4.336   2.892  12.679  1.5201  2.5161 -0.7326
18991TIP3   OH278463   0.872   0.166   5.275 -0.1380 -0.1871 -0.5720
18991TIP3    H178464   0.814   0.168   5.199  0.5068  1.6432 -1.0658
18991TIP3    H278465   0.817   0.190   5.349 -0.2873  0.2405 -0.8214
18992TIP3   OH278466   6.659   2.827  14.341 -0.8006 -0.0500 -0.2676
18992TIP3    H178467   6.640   2.860  14.428  0.1495 -0.0939 -0.0339
18992TIP3    H278468   6.667   2.905  14.286 -2.4505 -0.0496 -0.5677
18993TIP3   OH278469   0.172   0.741  14.216  0.2388  0.0000  0.0008
18993TIP3    H178470   0.179   0.690  14.136 -0.2649 -2.4381  1.4213
18993TIP3    H278471   0.238   0.703  14.275  0.8486  1.9644  0.6662
18994TIP3   OH278472   3.208   6.160  13.142  0.1861 -0.0529  0.2767
18994TIP3    H178473   3.154   6.082  13.154 -1.0204  0.7504  0.3215
18994TIP3    H278474   3.214   6.171  13.047 -3.4766  2.2098  0.0738
18995TIP3   OH278475   0.193   4.609  14.406  0.0111  0.0792 -0.1987
18995TIP3    H178476   0.260   4.652  14.353  0.3800  1.9362  1.6329
18995TIP3    H278477   0.110   4.638  14.369  0.2160 -0.5528 -1.1850
18996TIP3   OH278478   1.362   0.655   3.731  0.3381 -0.0055  0.3351
18996TIP3    H178479   1.376   0.564   3.757  2.4723  0.2757  0.3076
18996TIP3    H278480   1.352   0.702   3.814  0.4428 -0.0861  0.3943
18997TIP3   OH278481   0.033   1.723  13.160  0.3771  0.0571  0.5765
18997TIP3    H178482   0.069   1.745  13.074 -1.4892  0.9614 -0.0309
18997TIP3    H278483   0.039   1.628  13.165  1.5007  0.0744 -0.0754
18998TIP3   OH278484   1.935   6.437   1.326  0.3268 -0.0432 -0.4475
18998TIP3    H178485   1.923   6.433   1.231  1.7001 -0.7366 -0.6156
18998TIP3    H278486   1.966   6.525   1.344 -1.8659  0.7645 -0.3671
18999TIP3   OH278487   0.776   2.691  13.892 -0.1863  0.2202  0.6679
18999TIP3    H178488   0.729   2.608  13.881 -0.2805 -0.0679  2.7604
18999TIP3    H278489   0.749   2.722  13.978  1.3043  1.4805  0.7214
19000TIP3   OH278490   2.111   6.807  11.542  0.7652 -0.4295  0.2526
19000TIP3    H178491   2.175   6.877  11.540  2.1844 -1.6808 -1.4727
19000TIP3    H278492   2.150   6.740  11.597  0.9283 -1.1452 -0.7007
19001TIP3   OH278493   4.230   4.305   1.304  0.1357 -0.1475  0.2358
19001TIP3    H178494   4.287   4.302   1.381 -1.0932  1.5567  1.3020
19001TIP3    H278495   4.278   4.357   1.241  0.2011  0.4492  0.7633
19002TIP3   OH278496   1.517   0.157   3.794 -0.1921 -0.5418  0.0848
19002TIP3    H178497   1.583   0.155   3.725  0.6995  2.9964  0.6542
19002TIP3    H278498   1.443   0.109   3.757  0.7642 -0.0110 -2.7910
19003TIP3   OH278499   1.108   3.074  16.104 -0.4881 -0.5666  0.5915
19003TIP3    H178500   1.067   3.094  16.020  0.4044 -0.9378  0.0540
19003TIP3    H278501   1.060   2.998  16.136 -0.7832 -0.4734  0.3764
19004TIP3   OH278502   6.330   1.590  12.523 -0.3125  0.0443  0.3638
19004TIP3    H178503   6.309   1.681  12.501 -0.4653 -0.4165 -1.6200
19004TIP3    H278504   6.245   1.552  12.547 -0.7274 -0.1773 -1.3053
19005TIP3   OH278505   6.750   2.474  17.026  0.1245  0.2985 -0.3265
19005TIP3    H178506   6.731   2.432  16.942 -0.9293  1.4057 -0.6729
19005TIP3    H278507   6.839   2.446  17.047 -0.1690 -1.2679 -1.0220
19006TIP3   OH278508   3.357   2.168   0.188 -0.4308 -0.1654 -0.6596
19006TIP3    H178509   3.303   2.148   0.112 -2.7889 -1.0174  1.1224
19006TIP3    H278510   3.386   2.083   0.221  0.8072  0.2055 -0.7458
19007TIP3   OH278511   5.957   2.811   3.134  0.6069 -0.0593  0.1391
19007TIP3    H178512   5.999   2.851   3.058  2.3664 -1.7798  0.1223
19007TIP3    H278513   6.026   2.810   3.201 -0.2088 -0.6178  0.9963
19008TIP3   OH278514   2.084   0.151  12.707  0.1785  0.5831  0.1603
19008TIP3    H178515   2.167   0.105  12.719  0.0528 -0.0823 -1.3370
19008TIP3    H278516   2.106   0.243  12.722  1.3171  0.4761 -0.7160
19009TIP3   OH278517   2.054   3.557  16.072 -0.1515  0.2964  0.0483
19009TIP3    H178518   2.131   3.530  16.022  1.2221  0.4488  1.9968
19009TIP3    H278519   1.987   3.493  16.047  1.1004 -0.9031 -0.3965
19010TIP3   OH278520   2.348   1.183  11.692  0.0579 -0.1802 -0.5256
19010TIP3    H178521   2.298   1.173  11.774 -0.1508  0.3224 -0.5896
19010TIP3    H278522   2.390   1.268  11.700 -0.7257  0.2967 -1.3508
19011TIP3   OH278523   3.163   1.401  16.058  0.0233  0.2073 -0.3254
19011TIP3    H178524   3.253   1.367  16.061  0.3963  1.1774 -0.3765
19011TIP3    H278525   3.114   1.332  16.013  0.4647 -0.9218  0.8726
19012TIP3   OH278526   0.111   2.725  15.358  0.2721 -0.1911 -0.1889
19012TIP3    H178527   0.045   2.775  15.308  2.8823  1.2557 -2.4829
19012TIP3    H278528   0.143   2.660  15.296  0.7874 -1.0837  0.9889
19013TIP3   OH278529   1.088   5.134   3.274  0.0319  0.2080 -0.1093
19013TIP3    H178530   1.083   5.054   3.327  0.3166 -0.4191 -1.0089
19013TIP3    H278531   0.999   5.168   3.275 -0.5315 -1.1197 -1.2074
19014TIP3   OH278532   4.944   6.343  14.119 -0.0328 -0.1040 -0.0585
19014TIP3    H178533   4.897   6.283  14.177 -0.0083 -0.4116 -0.3536
19014TIP3    H278534   4.890   6.422  14.117 -1.2378 -0.9112 -1.4111
19015TIP3   OH278535   2.638   0.676  12.945 -0.2733 -0.0273 -0.2765
19015TIP3    H178536   2.686   0.595  12.961  0.9261  0.7703  0.3338
19015TIP3    H278537   2.656   0.696  12.853 -2.0009 -1.3186 -0.9533
19016TIP3   OH278538   4.168   1.597   1.919 -0.2737  0.2430 -0.1634
19016TIP3    H178539   4.075   1.580   1.930 -0.0138  0.1382  2.3967
19016TIP3    H278540   4.173   1.673   1.861 -1.9513  0.7310  0.3150
19017TIP3   OH278541   5.406   4.754   4.729  0.0891  0.1031  0.0580
19017TIP3    H178542   5.384   4.663   4.749 -1.5405  0.3617 -0.4228
19017TIP3    H278543   5.408   4.797   4.814 -0.2861 -0.1460  0.1966
19018TIP3   OH278544   6.250   5.670  11.484  0.7048 -0.2572  0.2930
19018TIP3    H178545   6.224   5.578  11.480 -0.5514  0.1271 -1.6283
19018TIP3    H278546   6.337   5.668  11.525 -0.0170 -2.1047  1.8824
19019TIP3   OH278547   3.981   0.089  12.613 -0.5046 -0.6058 -0.3926
19019TIP3    H178548   4.069   0.080  12.649 -0.4146  2.2226  0.2972
19019TIP3    H278549   3.994   0.102  12.519 -0.0050  1.2966 -0.1018
19020TIP3   OH278550   0.791   5.384   1.480 -0.3982 -0.0072 -0.1414
19020TIP3    H178551   0.813   5.475   1.501  2.1469 -0.5645  0.0429
19020TIP3    H278552   0.726   5.359   1.546 -2.6438  2.1822 -1.3824
19021TIP3   OH278553   1.397   5.960  17.208  0.1178  0.0751 -0.0092
19021TIP3    H178554   1.413   5.887  17.147  0.1952  0.1383 -0.0653
19021TIP3    H278555   1.375   6.034  17.151  0.3278  0.1702  0.0337
19022TIP3   OH278556   6.603   5.368  16.277  0.3039 -0.3163 -0.4353
19022TIP3    H178557   6.679   5.348  16.222  0.6727  1.8577 -0.7966
19022TIP3    H278558   6.529   5.373  16.216  0.4125  0.4315 -0.5182
19023TIP3   OH278559   3.981   2.489   4.718  0.0383  0.1388 -0.1954
19023TIP3    H178560   3.901   2.497   4.665 -0.7851  2.7553  1.2361
19023TIP3    H278561   3.984   2.571   4.768  3.3025 -0.1780  0.2917
19024TIP3   OH278562   1.691   3.627   0.826 -0.3697 -0.1099  0.4202
19024TIP3    H178563   1.658   3.716   0.816 -0.4601 -0.1473  0.3896
19024TIP3    H278564   1.786   3.635   0.817 -0.3310  0.0616  0.9359
19025TIP3   OH278565   3.269   0.399   6.148 -0.7755 -0.0623  0.3564
19025TIP3    H178566   3.278   0.311   6.112 -1.5106 -0.6838  1.6176
19025TIP3    H278567   3.359   0.425   6.170 -0.4496 -0.1200 -0.8312
19026TIP3   OH278568   4.861   2.860   0.193  0.1167 -0.4903  0.0683
19026TIP3    H178569   4.781   2.888   0.149 -0.2328 -0.6936  0.5568
19026TIP3    H278570   4.831   2.798   0.260  0.6250 -0.1238  0.6484
19027TIP3   OH278571   2.288   3.494   0.369  0.4764 -0.6089 -0.7808
19027TIP3    H178572   2.311   3.577   0.411 -0.4834 -1.0402  0.6498
19027TIP3    H278573   2.299   3.511   0.275  2.1043  0.5499 -0.4124
19028TIP3   OH278574   2.417   6.056  15.680  0.0622  0.0169  0.0111
19028TIP3    H178575   2.494   6.010  15.645 -0.4019 -2.3261  1.7987
19028TIP3    H278576   2.346   5.993  15.670 -1.8203  2.2513 -1.9237
19029TIP3   OH278577   2.248   1.952  16.895 -0.2490  0.0232  0.0471
19029TIP3    H178578   2.240   2.005  16.815  0.2063  0.1164  0.0594
19029TIP3    H278579   2.225   1.863  16.867  3.0156 -0.6279 -0.9948
19030TIP3   OH278580   5.313   6.504   4.808  0.3062 -0.0019 -0.3963
19030TIP3    H178581   5.399   6.507   4.851 -1.1149  1.3820  2.7414
19030TIP3    H278582   5.276   6.420   4.834 -0.2574  0.5161  0.5617
19031TIP3   OH278583   0.040   3.222   2.542 -0.1775  0.7160  0.5819
19031TIP3    H178584  -0.014   3.173   2.480  1.9859 -0.5963 -0.3927
19031TIP3    H278585   0.029   3.314   2.516  0.0131  0.2655 -1.2192
19032TIP3   OH278586   1.440   3.190   2.054 -0.1809 -0.4168  0.2265
19032TIP3    H178587   1.511   3.254   2.058 -0.2360 -0.2798 -0.8267
19032TIP3    H278588   1.460   3.137   1.977 -0.3362 -1.4398  0.8703
19033TIP3   OH278589   2.026   4.537   1.013  0.4043 -0.2332  0.0187
19033TIP3    H178590   1.955   4.595   1.040  1.4273  0.4488  1.3504
19033TIP3    H278591   2.097   4.556   1.074  0.8042 -2.8537  0.4689
19034TIP3   OH278592   0.111   5.862  16.958  0.3182 -0.2454  0.6433
19034TIP3    H178593   0.119   5.773  16.995  1.1094 -0.3825  0.1738
19034TIP3    H278594   0.109   5.919  17.035  0.6763 -0.6105  0.9321
19035TIP3   OH278595   6.267   0.754  10.822  0.4224  0.6081 -0.2752
19035TIP3    H178596   6.272   0.730  10.730  1.2839 -0.4259  0.0295
19035TIP3    H278597   6.173   0.759  10.840  0.2314  1.5543 -1.3697
19036TIP3   OH278598   3.467   5.542  12.977  0.2559 -0.0835  0.1530
19036TIP3    H178599   3.407   5.587  13.037 -1.2416  0.0682 -1.3873
19036TIP3    H278600   3.511   5.477  13.032 -0.7463  0.3386  1.5131
19037TIP3   OH278601   3.240   3.200  17.082 -0.0137  0.7875  0.0857
19037TIP3    H178602   3.332   3.181  17.101  0.0180  1.9311  1.1629
19037TIP3    H278603   3.195   3.117  17.096  0.9450 -0.0009 -1.2656
19038TIP3   OH278604   4.379   4.314   3.550 -0.5276  0.0215  0.8296
19038TIP3    H178605   4.324   4.294   3.474 -0.7251  1.5382  0.5337
19038TIP3    H278606   4.337   4.269   3.623 -1.2683 -0.1077  0.3327
19039TIP3   OH278607   6.625   6.095  10.551  0.4944 -0.1243  0.0356
19039TIP3    H178608   6.628   6.002  10.573  1.1791 -0.3082 -0.7901
19039TIP3    H278609   6.714   6.117  10.522  0.4919  0.9264  0.7557
19040TIP3   OH278610   3.806   5.055  16.760 -0.1785 -0.4584  0.3926
19040TIP3    H178611   3.811   5.126  16.696 -0.4034 -0.2415  0.6139
19040TIP3    H278612   3.784   4.978  16.708 -0.3896 -0.2786  0.2115
19041TIP3   OH278613   1.418   0.979   3.568 -0.4311 -0.6369  0.4721
19041TIP3    H178614   1.451   0.898   3.529  1.5770  0.8103 -1.0364
19041TIP3    H278615   1.349   1.008   3.507 -0.9821 -1.0440  0.8851
19042TIP3   OH278616   6.087   1.645   2.441  0.9015  0.4914  0.3574
19042TIP3    H178617   6.067   1.590   2.365  0.1393  0.1696  0.7710
19042TIP3    H278618   6.177   1.675   2.427  0.2513  1.7530 -1.4588
19043TIP3   OH278619   3.304   5.315  14.289 -0.7872 -0.0297  0.0204
19043TIP3    H178620   3.311   5.357  14.374 -0.7205 -0.7022  0.3510
19043TIP3    H278621   3.391   5.324  14.250 -1.5760  3.1783 -1.3983
19044TIP3   OH278622   1.924   2.971   3.902  0.5041  0.3525 -0.9196
19044TIP3    H178623   2.008   3.002   3.935 -0.3459  2.1899 -0.3756
19044TIP3    H278624   1.867   2.969   3.980 -0.0292 -0.6816 -1.3107
19045TIP3   OH278625   0.931   2.325  14.911 -0.3875 -0.2038  0.0972
19045TIP3    H178626   0.865   2.267  14.949 -0.4715 -0.8777 -1.0442
19045TIP3    H278627   0.895   2.349  14.825 -1.2856  3.1303  1.2383
19046TIP3   OH278628   2.517   3.649  13.401 -0.0562 -0.4134  0.8356
19046TIP3    H178629   2.546   3.740  13.400 -0.7791 -0.1081 -1.6328
19046TIP3    H278630   2.579   3.603  13.345 -1.5090 -0.7013 -0.6441
19047TIP3   OH278631   0.538   0.289  15.534  0.0636 -0.2420 -0.3211
19047TIP3    H178632   0.562   0.203  15.568 -0.2515  0.7302  2.6669
19047TIP3    H278633   0.508   0.272  15.445  0.1552 -3.1875  0.1058
19048TIP3   OH278634   5.105   0.863  13.982 -0.3124  0.2553  0.5631
19048TIP3    H178635   5.124   0.769  13.977  1.0987  0.5795 -2.0271
19048TIP3    H278636   5.029   0.875  13.926 -1.1023  0.5782  1.6612
19049TIP3   OH278637   5.486   5.219  12.464  0.3277  0.0532  0.5441
19049TIP3    H178638   5.565   5.194  12.416  0.1206 -0.6883  0.5806
19049TIP3    H278639   5.465   5.142  12.517 -0.2909  0.3308  0.7063
19050TIP3   OH278640   0.690   0.666   1.375 -0.4323  0.1770 -0.2612
19050TIP3    H178641   0.600   0.657   1.407  0.8725 -0.1193  4.0245
19050TIP3    H278642   0.724   0.576   1.375  0.2756  0.4400 -0.3717
19051TIP3   OH278643   1.626   1.967  16.348  0.4827 -0.2973  0.0980
19051TIP3    H178644   1.592   2.054  16.366 -1.7462 -1.0291 -0.2587
19051TIP3    H278645   1.710   1.964  16.393  0.2970  1.7947  0.6649
19052TIP3   OH278646   0.426   0.092   3.638  0.1080  0.4687  0.3257
19052TIP3    H178647   0.379   0.174   3.628 -1.6543 -0.6632 -1.4549
19052TIP3    H278648   0.379   0.045   3.707 -0.0674  0.1759  0.0065
19053TIP3   OH278649   3.844   0.500   2.611 -0.0994 -0.4234  0.3245
19053TIP3    H178650   3.786   0.459   2.547 -0.4015  0.8883 -0.2940
19053TIP3    H278651   3.924   0.518   2.562 -0.3368  0.6006  0.2740
19054TIP3   OH278652   4.824   2.894   3.410 -0.4198  0.4239  0.1758
19054TIP3    H178653   4.819   2.989   3.418 -0.4360  0.2687  2.7357
19054TIP3    H278654   4.737   2.863   3.437 -0.0023 -0.3583  0.6781
19055TIP3   OH278655   1.127   1.860  11.596  0.6513 -0.1749 -0.5289
19055TIP3    H178656   1.094   1.780  11.637  3.0860 -1.4170 -0.7860
19055TIP3    H278657   1.207   1.880  11.645  0.4988  1.6783 -0.9861
19056TIP3   OH278658   4.064   1.102  15.228  0.3479 -0.4990  0.0634
19056TIP3    H178659   4.037   1.011  15.216 -0.2399 -0.4567  0.9861
19056TIP3    H278660   4.048   1.143  15.143 -3.4531 -0.2575  0.7245
19057TIP3   OH278661   6.312   2.646  13.326  0.3233  0.4065 -0.4848
19057TIP3    H178662   6.394   2.689  13.351 -0.0435  0.5461  0.5114
19057TIP3    H278663   6.326   2.619  13.235  1.1159  1.2841 -0.6382
19058TIP3   OH278664   2.867   1.471  16.530 -0.0523 -0.0390 -0.0529
19058TIP3    H178665   2.931   1.528  16.572 -0.2033  1.4150 -1.6637
19058TIP3    H278666   2.905   1.453  16.443 -1.3492  0.0327 -0.6622
19059TIP3   OH278667   1.055   1.493   1.273  0.4967  0.3862 -0.4773
19059TIP3    H178668   1.043   1.401   1.248  1.1245 -0.0586  0.7422
19059TIP3    H278669   1.147   1.499   1.297  0.3645  1.2403 -0.1596
19060TIP3   OH278670   1.018   6.744  13.771 -0.0093  0.0289 -0.3952
19060TIP3    H178671   1.047   6.660  13.808  1.0185  0.2294 -0.7272
19060TIP3    H278672   1.050   6.810  13.833  0.7035  0.2880 -1.0259
19061TIP3   OH278673   4.963   5.552  13.622  0.2503  0.0252 -0.3557
19061TIP3    H178674   5.048   5.595  13.619  1.2374 -1.7031  0.9826
19061TIP3    H278675   4.952   5.525  13.713 -1.8124  0.2829 -0.4608
19062TIP3   OH278676   6.188   0.649   5.724  0.2373  0.4115  0.2275
19062TIP3    H178677   6.198   0.727   5.779 -1.0252 -0.1163  1.2704
19062TIP3    H278678   6.201   0.575   5.783 -2.0438 -0.1908  0.1034
19063TIP3   OH278679   4.100   4.640  10.994  1.1735  0.1760  0.4963
19063TIP3    H178680   4.190   4.618  10.973  1.5327  1.7320  0.3212
19063TIP3    H278681   4.048   4.595  10.927  1.9827  1.1071 -0.8010
19064TIP3   OH278682   1.667   5.841  17.099  0.2068  0.1989 -0.1421
19064TIP3    H178683   1.656   5.845  17.004 -1.0000 -0.1049 -0.0368
19064TIP3    H278684   1.631   5.756  17.123 -1.2134  1.0228  0.7818
19065TIP3   OH278685   3.844   0.484  14.614 -0.3465 -0.0910  0.2274
19065TIP3    H178686   3.771   0.546  14.613 -0.5074 -0.2796  0.0473
19065TIP3    H278687   3.916   0.530  14.570 -0.7965 -0.4210 -0.9005
19066TIP3   OH278688   0.426   5.611   1.150 -0.7175  0.4988  0.2199
19066TIP3    H178689   0.514   5.614   1.111 -1.0598  2.1033 -0.4946
19066TIP3    H278690   0.402   5.518   1.146  0.8234  0.0639  0.1901
19067TIP3   OH278691   1.612   4.507   6.015 -0.2545 -0.1509  0.0829
19067TIP3    H178692   1.525   4.468   6.027 -1.2263  2.1482  1.1181
19067TIP3    H278693   1.667   4.463   6.079 -1.1888 -0.2208  0.8665
19068TIP3   OH278694   4.094   0.164   0.201  0.6632 -0.0921  0.5611
19068TIP3    H178695   4.107   0.117   0.119  1.5120  0.5709  0.3034
19068TIP3    H278696   4.107   0.256   0.179  3.0622 -0.0365  1.8216
19069TIP3   OH278697   6.685   0.182  15.533  0.5240  0.3292 -0.4472
19069TIP3    H178698   6.757   0.136  15.578 -1.0915  1.2541  3.5764
19069TIP3    H278699   6.606   0.138  15.564 -0.7887  1.9462 -1.3582
19070TIP3   OH278700   4.539   0.028  12.125 -0.6901 -0.2850 -0.7381
19070TIP3    H178701   4.576  -0.059  12.109  0.2080  0.1783 -1.2998
19070TIP3    H278702   4.569   0.080  12.050 -1.0954  0.5398 -0.3335
19071TIP3   OH278703   0.071   1.052  15.473  0.3352 -0.4809 -0.2146
19071TIP3    H178704   0.062   1.041  15.568  0.8452  1.5574  0.0976
19071TIP3    H278705   0.004   1.116  15.450  0.1750 -1.0053 -1.2758
19072TIP3   OH278706   5.459   6.768  15.897  0.1421 -0.0889 -0.0875
19072TIP3    H178707   5.498   6.854  15.885  0.2748  0.0499  1.2132
19072TIP3    H278708   5.531   6.706  15.884  0.3491  0.0715  0.2680
19073TIP3   OH278709   3.273   0.548  12.093 -0.0144  0.2614  0.4663
19073TIP3    H178710   3.188   0.590  12.112 -1.6402 -1.0012 -3.1800
19073TIP3    H278711   3.320   0.612  12.041  0.2817  0.0481  0.4718
19074TIP3   OH278712   2.893   2.540   5.251  0.3125  0.5489  0.3910
19074TIP3    H178713   2.860   2.453   5.228  2.5085 -0.2433 -0.0377
19074TIP3    H278714   2.859   2.556   5.339  2.4301 -2.2160  1.8670
19075TIP3   OH278715   1.352   2.694   4.964 -0.1276 -0.3532 -0.2915
19075TIP3    H178716   1.303   2.751   4.905  1.1387 -1.5773 -2.6652
19075TIP3    H278717   1.284   2.647   5.013 -1.1913  1.9938  0.6327
19076TIP3   OH278718   3.583   2.721   1.880  0.1731 -0.0318 -0.6746
19076TIP3    H178719   3.641   2.672   1.938 -1.2662 -1.0479 -0.0403
19076TIP3    H278720   3.603   2.813   1.899  0.8261 -0.3576  0.3025
19077TIP3   OH278721   0.724   4.412   1.798  0.5491  0.0272 -0.0508
19077TIP3    H178722   0.808   4.426   1.755  0.3334 -0.4466 -0.6411
19077TIP3    H278723   0.659   4.446   1.736  0.3644  1.5363  0.9292
19078TIP3   OH278724   5.865   5.619  15.774 -0.0714  0.5412 -0.4413
19078TIP3    H178725   5.843   5.526  15.773 -1.7070  0.8765  0.5192
19078TIP3    H278726   5.948   5.625  15.727  0.4340 -1.4901  0.1165
19079TIP3   OH278727   2.323   1.985   1.998  0.4077  0.1489  0.0916
19079TIP3    H178728   2.316   2.003   1.905 -2.1351 -2.1896 -0.3137
19079TIP3    H278729   2.269   2.052   2.040  1.1681  0.9167 -0.1453
19080TIP3   OH278730   2.083   0.728  10.747 -0.7928 -0.2630  0.4955
19080TIP3    H178731   2.060   0.811  10.789 -0.1784 -0.8911  2.1399
19080TIP3    H278732   1.999   0.685  10.730 -1.1886  1.1289 -1.4062
19081TIP3   OH278733   1.702   0.895  13.852 -0.6193  1.1464 -0.4700
19081TIP3    H178734   1.767   0.960  13.880  2.0067 -1.2749 -0.4407
19081TIP3    H278735   1.725   0.877  13.761 -0.2011 -0.8045 -0.0290
19082TIP3   OH278736   6.540   2.030   3.212  0.3376  0.0536 -0.6963
19082TIP3    H178737   6.618   1.993   3.172  0.3475  1.3794 -1.9970
19082TIP3    H278738   6.487   2.060   3.137 -0.2812  1.3662  0.2329
19083TIP3   OH278739   5.723   4.556   6.400  0.1376 -0.3221  0.4469
19083TIP3    H178740   5.658   4.532   6.466  0.5027  0.7094  1.2043
19083TIP3    H278741   5.803   4.512   6.428  0.1119 -0.4798  0.2759
19084TIP3   OH278742   6.473   3.333  15.887 -0.2605 -0.1757  0.3977
19084TIP3    H178743   6.418   3.391  15.939 -0.4072 -0.9797  1.1569
19084TIP3    H278744   6.412   3.270  15.849 -0.0878  0.0777 -0.3131
19085TIP3   OH278745   3.461   6.685  13.152 -0.2669  0.7957  0.1295
19085TIP3    H178746   3.440   6.775  13.179  1.1505  1.2687 -0.2843
19085TIP3    H278747   3.447   6.685  13.058  2.7401  1.5358 -0.4173
19086TIP3   OH278748   2.374   3.492  10.395 -0.1979 -0.1881 -0.0686
19086TIP3    H178749   2.408   3.572  10.356  2.9395 -0.6356  1.4131
19086TIP3    H278750   2.301   3.521  10.450 -0.1642  1.3891 -0.8216
19087TIP3   OH278751   2.199   1.614   4.434  0.6892 -0.1934 -0.2550
19087TIP3    H178752   2.225   1.541   4.491  0.2601 -0.3076 -0.1958
19087TIP3    H278753   2.197   1.576   4.346  0.0892 -0.3610 -0.1754
19088TIP3   OH278754   1.507   2.205   6.015 -0.1151 -0.2084  1.4744
19088TIP3    H178755   1.453   2.126   6.026 -0.3317 -0.2778  0.0781
19088TIP3    H278756   1.497   2.253   6.097 -2.7358  0.0488  1.0823
19089TIP3   OH278757   2.788   5.330  11.471 -0.3485  0.1469  0.0479
19089TIP3    H178758   2.828   5.250  11.505  0.3813 -0.4527 -2.0445
19089TIP3    H278759   2.861   5.381  11.438 -1.0332  0.4003 -1.1286
19090TIP3   OH278760   0.014   6.608  16.467 -0.4563  0.0347 -0.1353
19090TIP3    H178761   0.106   6.604  16.493 -0.2552  0.4194 -0.7730
19090TIP3    H278762   0.015   6.586  16.374 -0.8499  1.4087 -0.4802
19091TIP3   OH278763   0.657   2.149   4.978 -0.4925 -0.1080 -0.0738
19091TIP3    H178764   0.590   2.212   4.954 -0.3598  0.3964  0.8449
19091TIP3    H278765   0.655   2.147   5.073  0.1731 -0.7687 -0.0671
19092TIP3   OH278766   2.207   4.424   1.724  0.1073  0.0391 -0.5210
19092TIP3    H178767   2.165   4.488   1.782  0.2413 -0.2047 -0.1447
19092TIP3    H278768   2.145   4.412   1.652 -0.0818  0.3204 -0.4085
19093TIP3   OH278769   0.570   2.570  15.908 -0.1324  0.1254  0.4197
19093TIP3    H178770   0.500   2.508  15.886  0.4555 -0.2166 -0.5246
19093TIP3    H278771   0.560   2.641  15.845  1.1099 -0.5152 -0.5551
19094TIP3   OH278772   0.145   2.766  17.089  0.1375 -0.0760  0.0768
19094TIP3    H178773   0.183   2.719  17.163  0.6507 -0.5182 -0.4532
19094TIP3    H278774   0.134   2.699  17.021 -0.8450  0.2101 -0.0626
19095TIP3   OH278775   2.000   0.387  15.764 -0.2414  0.5553 -0.2056
19095TIP3    H178776   1.975   0.334  15.689  0.9453 -0.4550  0.0785
19095TIP3    H278777   2.083   0.428  15.738  0.0911  0.3298  0.4629
19096TIP3   OH278778   6.230   6.111   2.774  0.0325  0.2227 -0.0099
19096TIP3    H178779   6.321   6.093   2.798  0.3712  2.1914  0.3385
19096TIP3    H278780   6.237   6.179   2.706 -1.1026 -1.5492 -1.9929
19097TIP3   OH278781   0.921   3.531  14.831  0.5551  0.0106  0.5099
19097TIP3    H178782   0.954   3.574  14.752 -0.8295  0.9120  0.3822
19097TIP3    H278783   0.830   3.560  14.837  0.0780 -1.5717  1.3823
19098TIP3   OH278784   1.020   4.916  15.999  0.4836  0.2509 -0.2156
19098TIP3    H178785   1.107   4.943  16.029  0.6900 -1.2367  0.5993
19098TIP3    H278786   0.969   4.907  16.079  0.1741 -0.8883 -0.5289
19099TIP3   OH278787   1.692   3.092   4.977 -0.5389  0.1185  0.3391
19099TIP3    H178788   1.655   3.147   5.047 -0.7724  0.2950  0.0798
19099TIP3    H278789   1.663   3.003   4.999  1.9569 -0.3453  2.1885
19100TIP3   OH278790   4.865   1.573  14.977  0.3100  0.6094 -0.2555
19100TIP3    H178791   4.832   1.487  14.951  0.3556 -0.3373  2.4766
19100TIP3    H278792   4.949   1.581  14.932  0.9793 -1.4441  0.4745
19101TIP3   OH278793   3.525   3.947   0.883 -0.0198  0.1084 -0.0530
19101TIP3    H178794   3.487   3.933   0.796 -0.3387  1.0078 -0.0705
19101TIP3    H278795   3.471   4.016   0.922 -0.4785 -0.9218  1.2297
19102TIP3   OH278796   5.850   3.752  12.099  0.0775 -0.0174 -0.4137
19102TIP3    H178797   5.835   3.708  12.183 -1.5114  0.2338 -0.5496
19102TIP3    H278798   5.804   3.699  12.035 -0.7943  1.1381 -0.7618
19103TIP3   OH278799   0.613   4.498  10.585  0.0699 -0.2021 -0.1680
19103TIP3    H178800   0.691   4.444  10.574  0.9628  0.4388  2.2040
19103TIP3    H278801   0.645   4.577  10.629 -1.6812  0.7966 -0.5947
19104TIP3   OH278802   3.429   6.135  16.235  0.0112  0.1699 -0.0134
19104TIP3    H178803   3.364   6.203  16.215  1.0020  0.9361 -0.7695
19104TIP3    H278804   3.408   6.108  16.324 -2.8957 -1.4301 -1.0583
19105TIP3   OH278805   3.155   1.124   5.797 -0.8786 -0.1074 -0.3656
19105TIP3    H178806   3.145   1.042   5.749 -0.7679 -0.1042 -0.3956
19105TIP3    H278807   3.181   1.097   5.886  1.0418 -0.0655 -0.8642
19106TIP3   OH278808   3.828   5.004   4.252  0.0558 -0.0716 -0.4308
19106TIP3    H178809   3.818   5.020   4.158  0.2293 -0.1112 -0.4552
19106TIP3    H278810   3.862   5.086   4.287 -3.1635  1.1737  0.1336
19107TIP3   OH278811   1.314   3.369   1.763 -0.2204 -0.3628  0.1189
19107TIP3    H178812   1.345   3.282   1.738  1.7432  0.2164  0.3897
19107TIP3    H278813   1.388   3.408   1.810 -0.2517  2.2343 -1.7799
19108TIP3   OH278814   2.003   0.379  11.734  0.1412 -0.0536 -0.4208
19108TIP3    H178815   1.978   0.458  11.687 -0.7918  0.3250  0.6714
19108TIP3    H278816   1.920   0.333  11.750  0.7026 -1.5347 -1.4894
19109TIP3   OH278817   2.787   5.410   5.225  0.5901 -0.4560  0.6727
19109TIP3    H178818   2.734   5.396   5.303 -0.1775  1.1689  0.4720
19109TIP3    H278819   2.804   5.504   5.223  1.4049 -0.6013 -0.6014
19110TIP3   OH278820   5.100   5.492  16.761 -0.1454 -0.6645  0.0594
19110TIP3    H178821   5.097   5.587  16.748  0.8336 -0.6564 -0.1786
19110TIP3    H278822   5.009   5.467  16.779 -0.7219  0.0646 -1.6242
19111TIP3   OH278823   2.784   5.783   3.139  0.1356 -0.0492 -0.0870
19111TIP3    H178824   2.844   5.803   3.211  0.3066  2.5070 -0.8564
19111TIP3    H278825   2.698   5.773   3.181  0.2308  1.4038  0.4928
19112TIP3   OH278826   4.347   4.716   1.438  0.1223  0.1504  0.1688
19112TIP3    H178827   4.397   4.655   1.384 -1.0308 -0.6220 -0.0540
19112TIP3    H278828   4.392   4.715   1.523 -0.1963 -1.4477  0.3480
19113TIP3   OH278829   5.180   0.641  14.754 -0.1924 -0.3006  0.2000
19113TIP3    H178830   5.193   0.569  14.691  1.5936 -0.3912  0.6188
19113TIP3    H278831   5.178   0.598  14.839 -1.8896 -0.1021  0.2827
19114TIP3   OH278832   5.236   5.668   3.195  0.2067 -0.2531 -0.0750
19114TIP3    H178833   5.273   5.744   3.240 -1.7213  0.7606 -0.0882
19114TIP3    H278834   5.219   5.605   3.265  1.2141 -0.4433  0.0183
19115TIP3   OH278835   6.824   3.290   4.177 -0.1902  0.0428  0.2220
19115TIP3    H178836   6.862   3.269   4.262 -1.6091 -0.6877  0.7028
19115TIP3    H278837   6.852   3.219   4.120 -0.2157 -0.0930  0.3796
19116TIP3   OH278838   2.687   1.835  12.780  0.5055 -0.1914 -0.3620
19116TIP3    H178839   2.716   1.918  12.742  0.8828 -0.2094 -0.1111
19116TIP3    H278840   2.765   1.780  12.781  0.1625 -0.7023 -0.9168
19117TIP3   OH278841   4.793   0.159  16.291  0.2324 -0.0487 -0.8298
19117TIP3    H178842   4.701   0.153  16.263 -1.0008  0.6875  2.5157
19117TIP3    H278843   4.807   0.081  16.344  0.9820  0.6638  0.0530
19118TIP3   OH278844   1.762   1.989   0.906  0.3891 -0.4189  0.3247
19118TIP3    H178845   1.679   2.036   0.899  0.7590  0.1296 -0.4508
19118TIP3    H278846   1.803   2.025   0.985  1.3282  1.6627 -1.0350
19119TIP3   OH278847   5.049   3.254  10.870 -0.3492 -0.0182 -0.2171
19119TIP3    H178848   4.956   3.252  10.891 -0.6468  2.1828 -1.0474
19119TIP3    H278849   5.060   3.192  10.798 -1.1000 -0.5066  0.0816
19120TIP3   OH278850   3.694   1.624  13.621 -0.3326 -0.0776 -0.0171
19120TIP3    H178851   3.716   1.608  13.712  1.8385  0.3707 -0.4146
19120TIP3    H278852   3.681   1.718  13.614  0.2398 -0.0147 -0.3032
19121TIP3   OH278853   6.077   2.296   0.382  0.2177  0.1140  0.5175
19121TIP3    H178854   6.023   2.250   0.318 -0.3461  0.8584  0.4343
19121TIP3    H278855   6.020   2.366   0.415  0.6323 -0.0239  1.5551
19122TIP3   OH278856   5.256   4.126  16.709 -0.5433  0.5669  0.5868
19122TIP3    H178857   5.225   4.036  16.707 -0.1447  0.3776  1.7869
19122TIP3    H278858   5.350   4.119  16.691 -0.4879  0.7296  0.8131
19123TIP3   OH278859   0.212   0.967  13.533 -0.1520  0.0851  0.7828
19123TIP3    H178860   0.195   0.915  13.454  0.6946  1.0072 -0.0561
19123TIP3    H278861   0.185   0.912  13.605  0.2812 -1.3198 -0.0965
19124TIP3   OH278862   1.037   1.776  12.854 -0.2279  0.4382 -0.1882
19124TIP3    H178863   1.071   1.771  12.764 -1.8908  0.8038 -0.8804
19124TIP3    H278864   1.095   1.719  12.905  1.1755  0.7764 -1.3446
19125TIP3   OH278865   2.740   4.523  13.183  0.0556 -0.3537  0.1148
19125TIP3    H178866   2.687   4.463  13.130 -0.4297 -0.6748  0.9515
19125TIP3    H278867   2.700   4.609  13.169 -1.0596 -0.6672  1.1582
19126TIP3   OH278868   4.259   5.281  11.248  0.5582  0.0227  0.2926
19126TIP3    H178869   4.182   5.244  11.206  1.6695  0.4286 -2.2929
19126TIP3    H278870   4.234   5.291  11.340 -1.7160 -1.7592 -0.0519
19127TIP3   OH278871   5.192   0.580   6.590 -0.0485  0.1917 -0.1834
19127TIP3    H178872   5.261   0.619   6.537 -0.9877  2.8963  0.4367
19127TIP3    H278873   5.118   0.571   6.530 -0.7532  2.2157  0.2904
19128TIP3   OH278874   6.560   0.550   2.022  0.1052 -0.0639 -0.5813
19128TIP3    H178875   6.526   0.638   2.005 -0.6744 -0.4514 -1.0730
19128TIP3    H278876   6.537   0.500   1.944 -0.6363 -1.0493  0.2453
19129TIP3   OH278877   1.551   3.169  13.757  0.4586 -0.6901 -0.0337
19129TIP3    H178878   1.633   3.151  13.712  1.0146  1.9321 -0.1772
19129TIP3    H278879   1.483   3.137  13.696  1.3005 -1.2720 -0.6889
19130TIP3   OH278880   5.618   4.888  10.675  0.0721  0.2448  0.4579
19130TIP3    H178881   5.709   4.867  10.697  0.4115  0.8256 -0.3062
19130TIP3    H278882   5.607   4.852  10.587 -1.3198 -2.2615  1.5651
19131TIP3   OH278883   3.487   5.064  16.739 -0.1589 -0.4976  0.1630
19131TIP3    H178884   3.494   5.077  16.834  0.3709  0.3353  0.0149
19131TIP3    H278885   3.395   5.043  16.725 -0.0946 -1.3937  0.9516
19132TIP3   OH278886   1.389   2.179   0.742 -0.2726  0.3522 -0.0711
19132TIP3    H178887   1.330   2.210   0.674  0.7223 -0.1027 -1.1873
19132TIP3    H278888   1.332   2.147   0.812 -1.3441 -0.2279 -1.1807
19133TIP3   OH278889   3.182   5.124  11.378  0.2883  0.1452  0.3516
19133TIP3    H178890   3.254   5.143  11.318 -0.5799 -0.1342 -0.8162
19133TIP3    H278891   3.103   5.130  11.324 -0.8780  2.9871  2.0845
19134TIP3   OH278892   6.153   0.756  16.363 -0.4062  0.1773  0.1054
19134TIP3    H178893   6.222   0.698  16.332 -0.2244  0.9522 -1.0228
19134TIP3    H278894   6.172   0.840  16.321 -2.6144  0.1500 -1.1257
19135TIP3   OH278895   3.188   3.972  11.277 -0.4349 -0.0896 -0.0051
19135TIP3    H178896   3.236   4.008  11.203 -0.8670  1.2414  0.3308
19135TIP3    H278897   3.234   3.891  11.298  0.8841  0.4973 -0.4970
19136TIP3   OH278898   0.133   0.254  13.014 -0.2086 -0.1224 -0.2077
19136TIP3    H178899   0.188   0.195  12.962 -1.0991 -0.6281 -0.6035
19136TIP3    H278900   0.055   0.268  12.960  0.4308  2.3204 -0.6234
19137TIP3   OH278901   3.844   0.634   5.783 -0.0305 -0.4096  0.0695
19137TIP3    H178902   3.774   0.686   5.823  0.3999  0.3389 -0.1372
19137TIP3    H278903   3.911   0.698   5.760  2.4701 -1.3911  3.7100
19138TIP3   OH278904   4.343   6.088   3.680  0.0723  0.3915  1.0509
19138TIP3    H178905   4.370   6.006   3.722 -1.8797 -2.1564 -2.1839
19138TIP3    H278906   4.257   6.107   3.717 -0.4905 -0.3645  0.1546
19139TIP3   OH278907   2.704   5.865  14.232 -0.1986  0.0064 -0.2808
19139TIP3    H178908   2.745   5.832  14.312  0.6122  1.4006 -0.0835
19139TIP3    H278909   2.615   5.830  14.235 -0.9002  1.6654  2.3705
19140TIP3   OH278910   4.914   4.941  14.538  0.3447 -0.3254  0.7977
19140TIP3    H178911   4.947   4.861  14.579  0.0678 -0.1530  1.3634
19140TIP3    H278912   4.978   4.960  14.469 -0.2638 -1.7358 -0.2098
19141TIP3   OH278913   0.052   6.587  16.184  0.0623 -0.5957  0.2831
19141TIP3    H178914   0.062   6.570  16.090  1.5505 -0.2047  0.3591
19141TIP3    H278915   0.141   6.591  16.218 -0.3353  1.8689  1.2346
19142TIP3   OH278916   3.381   5.841   1.936  0.2266 -0.3592 -0.1844
19142TIP3    H178917   3.462   5.791   1.950  0.3454 -0.4268 -1.0533
19142TIP3    H278918   3.314   5.774   1.922  0.4269 -0.2959 -1.5767
19143TIP3   OH278919   3.217   4.056  15.647  0.0709 -0.1304 -0.1307
19143TIP3    H178920   3.290   4.083  15.703 -0.2066 -0.9655  0.6418
19143TIP3    H278921   3.148   4.119  15.667  0.4049  0.3739 -0.5192
19144TIP3   OH278922   5.748   6.738  16.753 -0.6951 -0.0863  0.3481
19144TIP3    H178923   5.777   6.809  16.696 -1.2379  0.8669  1.2214
19144TIP3    H278924   5.661   6.714  16.721 -0.7687  0.0677  0.4334
19145TIP3   OH278925   2.469   0.719  13.985 -0.3332  0.9137  0.2441
19145TIP3    H178926   2.421   0.784  13.936 -1.0689  0.4671  0.3614
19145TIP3    H278927   2.432   0.635  13.958 -1.9889  0.7046  2.7734
19146TIP3   OH278928   4.183   1.035   6.080  0.2507  0.3596  0.3577
19146TIP3    H178929   4.197   1.109   6.021 -2.2306  1.0188  0.4935
19146TIP3    H278930   4.227   1.060   6.161  1.9662  0.3182 -0.4959
19147TIP3   OH278931   3.209   1.835  12.957 -0.0298 -0.0634 -0.6015
19147TIP3    H178932   3.282   1.789  12.916  1.4736 -0.4997  2.3409
19147TIP3    H278933   3.224   1.927  12.934  1.2707 -0.1827 -0.3019
19148TIP3   OH278934   5.495   0.361  11.903 -0.3523  0.1030 -0.0852
19148TIP3    H178935   5.478   0.455  11.911 -0.0238  0.1859 -0.3367
19148TIP3    H278936   5.427   0.319  11.956 -1.6159  0.4173 -1.3938
19149TIP3   OH278937   6.000   3.011   6.368 -0.5988 -0.0008 -0.3642
19149TIP3    H178938   6.054   2.995   6.445 -1.2665 -0.4077  0.0360
19149TIP3    H278939   5.926   3.061   6.401 -1.7837 -1.6638 -0.3677
19150TIP3   OH278940   2.347   5.373   1.239  0.1909  0.0678  0.2309
19150TIP3    H178941   2.257   5.343   1.222  0.8791 -0.7253 -2.4978
19150TIP3    H278942   2.361   5.443   1.176  1.4049  0.4618  0.9092
19151TIP3   OH278943   3.245   4.723   2.083 -0.4029 -0.2565 -0.5442
19151TIP3    H178944   3.245   4.800   2.026  0.8508 -1.0917 -1.7571
19151TIP3    H278945   3.294   4.749   2.160 -0.1292  0.2187 -0.8777
19152TIP3   OH278946   3.217   0.889  15.713  0.6584 -0.0595  0.0238
19152TIP3    H178947   3.216   0.885  15.808  2.0543  2.2199  0.1913
19152TIP3    H278948   3.258   0.973  15.692 -0.9281  0.2038 -2.5807
19153TIP3   OH278949   2.226   5.534  11.849 -0.5874 -1.1212 -0.7131
19153TIP3    H178950   2.139   5.572  11.844 -0.5195 -0.6590  0.8999
19153TIP3    H278951   2.285   5.609  11.847 -0.3102 -1.3234 -0.2832
19154TIP3   OH278952   3.622   6.531   1.756 -0.0423 -0.2182  0.0630
19154TIP3    H178953   3.625   6.521   1.661  1.8191 -2.1888  0.2623
19154TIP3    H278954   3.644   6.623   1.771 -2.7295  0.7893 -1.4303
19155TIP3   OH278955   2.845   3.256  14.427 -0.0311 -0.4502  0.0108
19155TIP3    H178956   2.862   3.319  14.357  0.1883 -0.3531  0.1494
19155TIP3    H278957   2.762   3.215  14.403 -0.2590  0.0096  0.0060
19156TIP3   OH278958   4.442   5.708  11.332 -0.3692 -0.0343 -0.1456
19156TIP3    H178959   4.398   5.652  11.268 -0.8327  1.0869 -0.8194
19156TIP3    H278960   4.490   5.772  11.280 -0.1817  0.4569  0.6144
19157TIP3   OH278961   6.613   3.947   4.666 -0.7382  0.8027  0.4814
19157TIP3    H178962   6.655   3.916   4.747 -0.4210 -1.6922 -0.5327
19157TIP3    H278963   6.521   3.925   4.677 -0.3859 -1.5402 -0.5810
19158TIP3   OH278964   5.725   4.979   5.453  0.6894 -0.0960 -0.0599
19158TIP3    H178965   5.662   5.009   5.518 -0.7726  0.1274 -1.5207
19158TIP3    H278966   5.809   4.976   5.500  0.1527  2.3329  1.2045
19159TIP3   OH278967   1.826   3.047   1.214  0.2492  0.1893 -0.1562
19159TIP3    H178968   1.899   2.990   1.190 -0.5528 -0.3946 -1.3284
19159TIP3    H278969   1.843   3.129   1.167 -0.3082 -0.2741 -1.1996
19160TIP3   OH278970   0.959   0.925  10.557 -0.2140  0.0620 -0.0862
19160TIP3    H178971   0.932   0.984  10.487 -0.4887 -0.0627 -0.0880
19160TIP3    H278972   0.997   0.849  10.512 -2.0100 -0.8366 -0.1896
19161TIP3   OH278973   4.127   6.468  15.752 -0.3791 -0.6274  0.5861
19161TIP3    H178974   4.174   6.550  15.733 -0.6166 -0.7591 -0.6427
19161TIP3    H278975   4.176   6.401  15.703 -2.6712 -0.5463 -2.0557
19162TIP3   OH278976   6.133   4.453   3.247 -0.6963  0.0466 -0.4131
19162TIP3    H178977   6.080   4.420   3.320 -1.4681 -0.4327 -1.1747
19162TIP3    H278978   6.108   4.546   3.240 -1.5245 -0.1964 -0.8266
19163TIP3   OH278979   4.506   0.482  15.538  0.9022 -0.3300  0.0810
19163TIP3    H178980   4.559   0.562  15.532 -0.7744  0.8746  0.6685
19163TIP3    H278981   4.478   0.465  15.448  1.1316 -0.1726 -0.0224
19164TIP3   OH278982   0.630   5.177   3.712  0.4470  0.1587 -0.3981
19164TIP3    H178983   0.714   5.215   3.738 -0.0206  0.7524  0.2959
19164TIP3    H278984   0.632   5.088   3.747  1.0018 -0.0195 -0.8628
19165TIP3   OH278985   1.031   3.154   2.713  0.5054 -0.0097 -0.3326
19165TIP3    H178986   1.029   3.247   2.733 -0.1115  0.0046 -0.4268
19165TIP3    H278987   1.088   3.147   2.637  0.0343  0.3833 -0.7319
19166TIP3   OH278988   6.577   2.735  12.452 -0.1654 -0.1157  0.2653
19166TIP3    H178989   6.648   2.690  12.406 -0.4965 -0.6425  0.2591
19166TIP3    H278990   6.608   2.824  12.463  0.0996 -0.0857 -0.6164
19167TIP3   OH278991   3.422   1.205   5.208 -0.3075  0.1820  0.6891
19167TIP3    H178992   3.455   1.154   5.282  0.0736 -0.7412 -0.0975
19167TIP3    H278993   3.427   1.296   5.237 -0.4719 -0.1839  1.9099
19168TIP3   OH278994   2.107   2.822   6.035  0.2964  0.3746  0.2843
19168TIP3    H178995   2.032   2.857   6.083 -1.0640 -0.2007 -1.3136
19168TIP3    H278996   2.162   2.781   6.102 -1.9143 -1.1047  1.2859
19169TIP3   OH278997   0.220   1.580   0.546  0.1141 -0.3276 -0.0280
19169TIP3    H178998   0.252   1.512   0.605 -1.0347 -0.0080  1.0154
19169TIP3    H278999   0.289   1.646   0.545  0.6453 -0.8699  0.0190
19170TIP3   OH279000   4.414   0.348  17.210 -0.0016  0.2131 -0.0233
19170TIP3    H179001   4.452   0.342  17.123 -0.5731  0.5006 -0.2962
19170TIP3    H279002   4.410   0.442  17.228  0.3004  0.1494  0.3992
19171TIP3   OH279003   1.553   2.598   3.930 -0.2924  0.2662  0.3286
19171TIP3    H179004   1.487   2.543   3.888  0.2914 -0.6718  0.6006
19171TIP3    H279005   1.527   2.688   3.909  1.5172 -0.0634 -4.4979
19172TIP3   OH279006   4.134   6.114   1.799  0.1696  0.6633 -0.0195
19172TIP3    H179007   4.085   6.150   1.872 -1.9272 -1.4229 -0.2818
19172TIP3    H279008   4.079   6.130   1.722  2.1775  2.5289 -1.2189
19173TIP3   OH279009   1.863   6.809   3.912 -0.1593 -0.0663 -0.1212
19173TIP3    H179010   1.954   6.837   3.912 -0.1826  0.0168  0.2038
19173TIP3    H279011   1.844   6.788   4.004 -0.5569  0.2118 -0.1363
19174TIP3   OH279012   2.458   5.812   1.176  0.2578  0.2387 -0.0556
19174TIP3    H179013   2.529   5.845   1.231 -0.0406  0.3036  0.2924
19174TIP3    H279014   2.390   5.878   1.182  0.8518  1.0829 -1.8354
19175TIP3   OH279015   6.625   2.933  11.584  0.4041  0.5382 -0.2800
19175TIP3    H179016   6.671   2.862  11.538  0.5743 -0.3059  1.1483
19175TIP3    H279017   6.533   2.922  11.559  0.4418 -0.1289 -0.1437
19176TIP3   OH279018   1.996   4.355   3.272 -0.0761 -0.0889  0.4590
19176TIP3    H179019   2.011   4.440   3.313  1.4345 -0.1284  0.0528
19176TIP3    H279020   1.977   4.375   3.180  1.2399 -0.2099  0.1413
19177TIP3   OH279021   5.509   4.600   2.754  0.3382 -0.2923 -0.7089
19177TIP3    H179022   5.603   4.593   2.737  0.8123 -2.5793  2.0604
19177TIP3    H279023   5.491   4.694   2.754  2.3036  0.1570 -2.5939
19178TIP3   OH279024   6.234   3.946   3.640  0.9990 -0.1197  0.8964
19178TIP3    H179025   6.197   4.013   3.582  0.6311  0.5581  1.8994
19178TIP3    H279026   6.208   3.863   3.600  0.3542  0.3445  0.3406
19179TIP3   OH279027   4.403   6.777   2.453 -0.2241  0.2804  0.2569
19179TIP3    H179028   4.425   6.771   2.360  1.0659 -0.6474  0.6033
19179TIP3    H279029   4.415   6.870   2.474  1.0341  0.2282 -0.1400
19180TIP3   OH279030   0.712   6.107  10.846 -0.3240 -0.4510 -0.0911
19180TIP3    H179031   0.731   6.021  10.809  2.1998  0.8224 -2.1090
19180TIP3    H279032   0.782   6.122  10.910 -0.2779  0.3811 -0.3182
19181TIP3   OH279033   0.128   4.431  15.912 -0.7123 -0.5274 -0.0337
19181TIP3    H179034   0.080   4.396  15.986 -0.1023  2.2537  1.8338
19181TIP3    H279035   0.207   4.469  15.950  1.6746 -2.3629 -2.6239
19182TIP3   OH279036   4.185   4.674  15.382 -0.3937  0.1677 -0.1724
19182TIP3    H179037   4.202   4.689  15.475  0.9120  1.0407 -0.5286
19182TIP3    H279038   4.125   4.599  15.381 -1.4661  0.9318  1.4057
19183TIP3   OH279039   5.262   1.209  16.503  1.1610  0.3754  0.1773
19183TIP3    H179040   5.317   1.225  16.579  0.5696  1.2974  0.4151
19183TIP3    H279041   5.229   1.120  16.516 -0.1094  1.0351  1.7612
19184TIP3   OH279042   5.452   1.595   1.772 -0.3964 -0.7294 -0.7134
19184TIP3    H179043   5.448   1.671   1.830  0.3128 -2.0209  1.1253
19184TIP3    H279044   5.522   1.615   1.711 -0.5135  0.2784 -0.5312
19185TIP3   OH279045   4.328   2.836  13.799 -0.0570  0.0113 -0.0152
19185TIP3    H179046   4.345   2.869  13.710 -0.2109  2.2674  0.7326
19185TIP3    H279047   4.232   2.838  13.806 -0.2382 -2.7838 -0.6730
19186TIP3   OH279048   0.268   4.291  13.680  0.1028 -0.4532 -0.2502
19186TIP3    H179049   0.302   4.242  13.755  0.7280  0.7831  0.3009
19186TIP3    H279050   0.278   4.231  13.606  1.7902 -0.8191  0.2255
19187TIP3   OH279051   4.303   3.121  13.636 -0.2543  0.0602  0.0133
19187TIP3    H179052   4.354   3.054  13.590  0.9768  2.0493 -1.7226
19187TIP3    H279053   4.250   3.162  13.568  0.4709  2.1060  0.6015
19188TIP3   OH279054   3.067   0.296   0.798  0.1771  0.0439 -0.1424
19188TIP3    H179055   2.982   0.339   0.808  0.8221  1.0697  1.2882
19188TIP3    H279056   3.086   0.301   0.704 -1.1231  0.2195 -0.4081
19189TIP3   OH279057   6.332   2.941  12.075 -0.6878  0.0884  0.0783
19189TIP3    H179058   6.308   2.903  11.990  1.8277  0.0374 -0.6648
19189TIP3    H279059   6.283   3.023  12.078 -0.0373  0.6011 -1.9040
19190TIP3   OH279060   3.136   2.376  14.068 -0.3213  0.1728  0.5151
19190TIP3    H179061   3.140   2.358  13.974 -4.1988 -2.1902  0.5777
19190TIP3    H279062   3.165   2.295  14.110 -1.1907  0.2250  1.2630
19191TIP3   OH279063   2.697   6.520   4.321  0.5154  0.3572 -0.2340
19191TIP3    H179064   2.769   6.526   4.384 -0.7993  0.1610  1.3561
19191TIP3    H279065   2.668   6.429   4.328 -1.6154  1.0637  1.2246
19192TIP3   OH279066   5.556   5.428  13.289 -0.4112  0.2007 -0.4563
19192TIP3    H179067   5.640   5.461  13.319  0.0998 -0.5784 -0.9889
19192TIP3    H279068   5.499   5.505  13.289  0.1461  0.6289  0.4212
19193TIP3   OH279069   3.734   0.807  16.884 -0.0706 -0.7807  0.5226
19193TIP3    H179070   3.826   0.807  16.910 -0.3707  0.6444  1.7374
19193TIP3    H279071   3.691   0.750  16.948  0.1092 -2.5549 -0.8456
19194TIP3   OH279072   5.659   5.431  17.185 -0.0746 -0.0395  0.5457
19194TIP3    H179073   5.727   5.379  17.228  0.1370 -0.7408 -0.6065
19194TIP3    H279074   5.694   5.520  17.182  1.0390 -0.4859 -0.4999
19195TIP3   OH279075   5.787   4.907  15.686  0.0939  0.1205 -0.1757
19195TIP3    H179076   5.847   4.950  15.625 -1.3980  0.1596 -1.6747
19195TIP3    H279077   5.725   4.976  15.709  0.2448 -0.0838  0.8987
19196TIP3   OH279078   0.938   4.797  10.907 -0.1088 -0.5936  0.1112
19196TIP3    H179079   0.937   4.888  10.880 -0.9768 -0.6670 -0.1481
19196TIP3    H279080   0.899   4.798  10.995  1.7336 -0.4837  0.9722
19197TIP3   OH279081   3.966   3.268  17.210  0.1035 -0.7013  0.4012
19197TIP3    H179082   3.894   3.263  17.148 -0.1269 -0.5325  0.6559
19197TIP3    H279083   3.967   3.359  17.239  0.0716 -0.8286  0.8126
19198TIP3   OH279084   0.231   2.673   2.756 -0.6653  0.1230 -0.5703
19198TIP3    H179085   0.221   2.748   2.813  0.2157 -0.2337  0.0741
19198TIP3    H279086   0.304   2.695   2.698 -0.3573 -0.2596 -0.3332
19199TIP3   OH279087   4.124   1.455  12.891  0.4857 -0.0939  0.1467
19199TIP3    H179088   4.207   1.421  12.925  0.9456 -0.6411 -1.3953
19199TIP3    H279089   4.144   1.545  12.865  0.7803 -0.3986 -0.7344
19200TIP3   OH279090   0.103   6.123   3.507  0.1054 -0.6197 -0.0306
19200TIP3    H179091   0.155   6.045   3.490  0.6524 -0.3600  0.4057
19200TIP3    H279092   0.049   6.134   3.429  0.2946 -1.2182 -0.2466
19201TIP3   OH279093   3.396   2.923  16.735  0.1790  0.2185  0.5198
19201TIP3    H179094   3.382   2.868  16.658 -0.3210  2.7409 -1.3442
19201TIP3    H279095   3.470   2.884  16.780  0.6584 -1.2049 -1.3909
19202TIP3   OH279096   5.710   6.471   3.694  0.7974 -0.4301 -0.1449
19202TIP3    H179097   5.633   6.430   3.656  1.1941 -1.5580  0.2095
19202TIP3    H279098   5.736   6.539   3.631 -0.0302 -0.5579 -0.6266
19203TIP3   OH279099   0.723   4.178  12.620  0.3598 -0.2964 -0.1586
19203TIP3    H179100   0.743   4.252  12.564 -0.6606  0.2648  0.1788
19203TIP3    H279101   0.733   4.101  12.564  1.8022  0.0524 -0.4108
19204TIP3   OH279102   6.649   2.580   2.967  0.2095  0.1836  0.6473
19204TIP3    H179103   6.616   2.561   2.879  0.9738  1.5521  0.0345
19204TIP3    H279104   6.682   2.670   2.961  0.3964  0.2520  2.3045
19205TIP3   OH279105   2.398   5.516  13.267 -0.5393 -0.0290  0.3016
19205TIP3    H179106   2.349   5.456  13.211 -0.1076 -0.9842  0.9276
19205TIP3    H279107   2.380   5.603  13.230 -2.3288 -0.3843  0.2304
19206TIP3   OH279108   1.360   1.595   4.089  0.1079  0.2436 -0.2196
19206TIP3    H179109   1.331   1.546   4.012  2.8718  0.7892 -1.7689
19206TIP3    H279110   1.420   1.535   4.134 -0.9862  0.1679  1.2225
19207TIP3   OH279111   2.347   6.429  15.390 -0.0709 -0.1838 -0.1696
19207TIP3    H179112   2.305   6.386  15.465 -1.0515  0.4387 -0.3462
19207TIP3    H279113   2.440   6.422  15.408 -0.2872  0.6490  1.5446
19208TIP3   OH279114   1.296   5.391   2.891  0.5496 -0.5825  0.2964
19208TIP3    H179115   1.321   5.456   2.955 -0.4541 -1.3249  1.4859
19208TIP3    H279116   1.345   5.312   2.916  0.8573 -0.6353 -0.4219
19209TIP3   OH279117   3.423   0.518  16.820  0.0253  0.3614  0.2026
19209TIP3    H179118   3.412   0.434  16.777  0.5297 -0.6718  1.9695
19209TIP3    H279119   3.508   0.550  16.791  0.2337 -0.1812  0.2141
19210TIP3   OH279120   5.386   0.251   4.230 -0.1690  0.1678 -0.0589
19210TIP3    H179121   5.383   0.346   4.223 -2.3218  0.1038 -1.1082
19210TIP3    H279122   5.309   0.221   4.181  0.3628 -2.1115  0.3553
19211TIP3   OH279123   3.967   2.484   2.489  0.2569  0.0415 -0.0177
19211TIP3    H179124   3.990   2.398   2.524  2.2680  0.4610 -0.1501
19211TIP3    H279125   4.037   2.542   2.519 -1.2752  1.7647  0.4468
19212TIP3   OH279126   3.179   3.267  14.899  0.5922 -0.0628 -0.1024
19212TIP3    H179127   3.167   3.175  14.921  0.2890 -0.3146 -1.2308
19212TIP3    H279128   3.207   3.308  14.981 -0.1764 -0.9730  0.6411
19213TIP3   OH279129   2.494   2.127  12.320 -0.1581 -0.2023  0.1609
19213TIP3    H179130   2.493   2.217  12.353 -0.7707  0.0121 -0.4248
19213TIP3    H279131   2.587   2.104  12.317  0.0671  0.7022 -0.4448
19214TIP3   OH279132   5.326   5.314  15.758  0.4270  0.4101  0.0367
19214TIP3    H179133   5.379   5.394  15.764 -0.8967  1.3337 -0.1283
19214TIP3    H279134   5.243   5.338  15.799  0.1134 -0.9969  0.2571
19215TIP3   OH279135   6.415   3.903   5.065  0.4946 -0.5386  0.2280
19215TIP3    H179136   6.352   3.903   4.992  1.5030  0.8441 -0.6713
19215TIP3    H279137   6.363   3.874   5.140 -0.9306 -0.6034 -0.7301
19216TIP3   OH279138   6.393   1.948   1.048  0.5346 -0.6004 -0.1946
19216TIP3    H179139   6.308   1.912   1.025 -0.0183  0.6947 -0.2890
19216TIP3    H279140   6.405   2.022   0.989  1.8356 -0.8870 -0.3297
19217TIP3   OH279141   2.541   0.690  15.907 -0.3253  0.6792 -0.0553
19217TIP3    H179142   2.500   0.667  15.990 -0.9066  0.9065 -0.2695
19217TIP3    H279143   2.490   0.765  15.875  0.8713  1.6115  0.1414
19218TIP3   OH279144   1.716   5.151  11.528  0.3439 -0.4878 -0.2229
19218TIP3    H179145   1.726   5.059  11.504  0.7567 -1.0157  1.8399
19218TIP3    H279146   1.623   5.168  11.520  0.4827 -0.4968 -2.5033
19219TIP3   OH279147   5.173   6.220  11.986  0.0200 -0.3003 -0.0920
19219TIP3    H179148   5.207   6.154  12.047 -0.9036 -1.2577 -0.5806
19219TIP3    H279149   5.127   6.283  12.042 -1.6355 -1.6717  0.1889
19220TIP3   OH279150   3.355   4.267   2.570  0.2358  1.2742 -0.3733
19220TIP3    H179151   3.335   4.287   2.661  0.6214 -1.1684  0.3147
19220TIP3    H279152   3.363   4.172   2.567  0.0135  1.2541 -3.0164
19221TIP3   OH279153   2.448   0.377  11.675 -0.1658  0.2980 -0.0956
19221TIP3    H179154   2.531   0.357  11.633 -0.5508 -0.4818 -0.5178
19221TIP3    H279155   2.467   0.449  11.735  0.0994  2.6145 -2.7505
19222TIP3   OH279156   2.782   1.233  10.514  0.6172 -0.5470 -0.6889
19222TIP3    H179157   2.785   1.178  10.592  0.5361 -0.2307 -0.4618
19222TIP3    H279158   2.706   1.203  10.465  0.4627 -0.5095 -0.4712
19223TIP3   OH279159   2.599   6.351   5.032  0.0840  0.2529 -0.6029
19223TIP3    H179160   2.564   6.337   5.120  0.2835  1.4478 -0.3102
19223TIP3    H279161   2.648   6.272   5.012 -1.5480 -0.8437 -0.4163
19224TIP3   OH279162   3.553   2.946   2.639 -0.1009 -0.1959  0.0938
19224TIP3    H179163   3.482   2.883   2.622 -0.6882  0.6247 -0.5677
19224TIP3    H279164   3.631   2.892   2.648 -0.5954 -1.0248 -0.4511
19225TIP3   OH279165   0.390   6.805  15.422 -0.7304 -0.2791  0.1001
19225TIP3    H179166   0.317   6.846  15.375  0.1069 -1.0201 -1.9268
19225TIP3    H279167   0.468   6.848  15.388 -0.0723 -0.9575  0.7138
19226TIP3   OH279168   3.615   2.401   2.375 -0.3520  0.2364  0.0585
19226TIP3    H179169   3.520   2.401   2.360 -0.3842  0.3359  0.2597
19226TIP3    H279170   3.633   2.319   2.420 -0.1810 -0.3086 -0.9797
19227TIP3   OH279171   6.042   2.878   3.408 -0.0356  0.1795  0.6138
19227TIP3    H179172   6.065   2.803   3.463  0.1695 -0.9147 -0.9001
19227TIP3    H279173   6.126   2.919   3.388  0.3467 -1.4811 -1.6489
19228TIP3   OH279174   6.346   4.750  14.994  0.3486  0.6465 -1.1184
19228TIP3    H179175   6.276   4.723  14.935 -1.0723 -0.5876  0.9991
19228TIP3    H279176   6.394   4.669  15.013 -0.8404  0.4220  1.3509
19229TIP3   OH279177   5.342   3.048   6.557  0.0830 -0.1008  0.5253
19229TIP3    H179178   5.402   3.088   6.493 -2.1265  0.2463 -1.4557
19229TIP3    H279179   5.348   2.954   6.540  1.5584 -0.2721  1.7790
19230TIP3   OH279180   3.657   5.624   1.280 -0.1144 -0.2104 -0.0776
19230TIP3    H179181   3.603   5.590   1.352  0.3865 -0.5069  0.1618
19230TIP3    H279182   3.615   5.589   1.201 -1.4422  1.1740 -0.0377
19231TIP3   OH279183   5.418   6.785  15.462  0.0802 -0.5603 -0.0872
19231TIP3    H179184   5.360   6.716  15.429  0.4376 -0.3716 -1.1362
19231TIP3    H279185   5.438   6.839  15.385  1.5195 -0.5311  0.2788
19232TIP3   OH279186   2.409   6.147  15.952  0.5468  0.1281 -0.1170
19232TIP3    H179187   2.385   6.239  15.963  1.5540  0.3018  0.7614
19232TIP3    H279188   2.403   6.133  15.857 -2.4877  0.2499 -0.0395
19233TIP3   OH279189   2.647   4.940   0.925 -0.1911 -0.0505 -0.0061
19233TIP3    H179190   2.599   4.875   0.977 -1.5721  0.4444 -0.6132
19233TIP3    H279191   2.601   5.022   0.942 -1.0912  0.0386 -2.4392
19234TIP3   OH279192   3.408   4.843   4.390 -0.2521 -0.0472 -0.8114
19234TIP3    H179193   3.485   4.835   4.333  0.6240 -0.6149  0.4003
19234TIP3    H279194   3.378   4.933   4.377 -0.1935 -0.2139 -2.2926
19235TIP3   OH279195   2.563   3.311  14.273 -0.1145 -0.1893 -0.2207
19235TIP3    H179196   2.522   3.266  14.347  0.8750 -0.4524  0.1968
19235TIP3    H279197   2.491   3.353  14.227 -1.2354 -2.8202 -1.0746
19236TIP3   OH279198   1.572   1.586   4.978  0.3272 -0.4715  0.0099
19236TIP3    H179199   1.612   1.553   5.059 -1.3764 -0.5121  0.8776
19236TIP3    H279200   1.492   1.534   4.969 -1.1219  1.6397  0.0187
19237TIP3   OH279201   5.237   2.429   3.935 -0.2706 -0.2059 -0.2036
19237TIP3    H179202   5.232   2.524   3.929 -0.6091 -0.3263 -2.4640
19237TIP3    H279203   5.192   2.397   3.857  0.4639 -2.2168  0.1336
19238TIP3   OH279204   1.473   4.524  13.538  0.0837 -0.9583  0.3715
19238TIP3    H179205   1.385   4.559  13.552  0.7851  0.5653  1.2854
19238TIP3    H279206   1.521   4.549  13.617  1.0952 -2.6283  0.3432
19239TIP3   OH279207   2.991   0.443  15.876  0.4704  0.0032  0.2291
19239TIP3    H179208   3.062   0.437  15.941  0.9998 -2.3959 -0.4562
19239TIP3    H279209   3.033   0.480  15.799  0.7745 -0.5488  0.1216
19240TIP3   OH279210   1.328   3.777   0.775 -0.4379  0.3308 -0.0889
19240TIP3    H179211   1.380   3.841   0.823  1.4423 -0.6235 -0.7616
19240TIP3    H279212   1.284   3.828   0.707  0.6093  0.9977 -0.2803
19241TIP3   OH279213   4.594   1.903   0.567 -0.1454  0.6683 -0.5856
19241TIP3    H179214   4.553   1.971   0.512  0.1826  2.1493  0.9089
19241TIP3    H279215   4.525   1.878   0.628 -0.0472  0.1525 -0.6877
19242TIP3   OH279216   3.821   6.165  12.163  0.4546 -0.2596 -0.3921
19242TIP3    H179217   3.770   6.245  12.180  0.4792 -0.6326  1.6608
19242TIP3    H279218   3.758   6.104  12.125 -0.9771 -1.0091  2.8834
19243TIP3   OH279219   6.158   2.206   5.591 -0.3493  0.2287  0.5088
19243TIP3    H179220   6.162   2.233   5.683  0.0074  1.7148  0.0800
19243TIP3    H279221   6.222   2.262   5.547 -1.0186  0.0205 -0.7614
19244TIP3   OH279222   0.810   1.952  16.620 -0.0101 -0.0815 -0.2153
19244TIP3    H179223   0.892   1.995  16.643 -0.1729  1.0089 -1.5714
19244TIP3    H279224   0.804   1.878  16.681  1.1169  0.8138  1.0312
19245TIP3   OH279225   4.343   3.376  10.007 -0.5300 -0.2735  0.8112
19245TIP3    H179226   4.408   3.401  10.072  0.5643 -0.8422 -0.0339
19245TIP3    H279227   4.340   3.450   9.946 -0.2939 -0.4692  0.5627
19246TIP3   OH279228   0.128   2.614  12.380 -0.3523 -0.4647  0.1474
19246TIP3    H179229   0.111   2.644  12.469 -1.6538  0.3635 -0.3580
19246TIP3    H279230   0.043   2.615  12.337  0.4325  0.4156 -1.4801
19247TIP3   OH279231   4.317   6.202   5.497 -0.1473  0.5056  0.2197
19247TIP3    H179232   4.227   6.169   5.496 -0.4573  1.2129  1.6572
19247TIP3    H279233   4.333   6.223   5.589  0.7003  2.4752 -0.3240
19248TIP3   OH279234   4.065   3.112  13.853 -0.3086  0.6018 -0.3778
19248TIP3    H179235   3.974   3.142  13.856 -0.4640  0.4268 -2.4204
19248TIP3    H279236   4.072   3.061  13.773  1.1530 -0.9466  0.6572
19249TIP3   OH279237   6.690   2.883   2.731  0.1793 -0.4504 -0.1079
19249TIP3    H179238   6.600   2.861   2.709 -0.3723  2.1170 -0.7421
19249TIP3    H279239   6.739   2.869   2.650 -0.5057  2.1001 -1.0626
19250TIP3   OH279240   2.645   3.422   5.643 -0.2905 -0.4177  0.3586
19250TIP3    H179241   2.738   3.399   5.635  0.0163 -0.6835  3.3225
19250TIP3    H279242   2.642   3.515   5.624  0.5772 -0.4319  0.0817
19251TIP3   OH279243   5.384   2.800   2.987 -0.3096  0.2867 -0.3127
19251TIP3    H179244   5.413   2.740   3.057 -0.4441 -0.7477 -1.1108
19251TIP3    H279245   5.294   2.774   2.970 -1.3001  2.4910  1.1131
19252TIP3   OH279246   1.072   3.940   4.769 -0.1159 -0.2243  0.2422
19252TIP3    H179247   1.116   3.951   4.685 -1.3013  0.4771 -0.3141
19252TIP3    H279248   1.079   3.847   4.788 -0.2346 -0.4770 -0.8650
19253TIP3   OH279249   2.357   2.789   3.131  0.3810 -0.4073 -0.0830
19253TIP3    H179250   2.358   2.704   3.088  0.6001 -0.0085 -0.8904
19253TIP3    H279251   2.405   2.847   3.072  0.2593  0.2761  0.4630
19254TIP3   OH279252   0.932   1.344  11.178 -0.2573  0.0145  0.2767
19254TIP3    H179253   0.860   1.319  11.235  0.4003 -1.0207  0.6912
19254TIP3    H279254   1.007   1.296  11.212  1.1249  2.5849  1.1452
19255TIP3   OH279255   6.144   1.194   6.440  0.7671 -0.3202  0.2419
19255TIP3    H179256   6.076   1.259   6.425  0.0723 -1.4109 -1.6525
19255TIP3    H279257   6.225   1.244   6.442  0.1175  0.7581  0.2924
19256TIP3   OH279258   4.676   1.063  13.772 -0.5162  0.4620  0.3302
19256TIP3    H179259   4.614   1.134  13.757 -1.6256 -0.3845  0.7689
19256TIP3    H279260   4.717   1.084  13.856 -0.5464  0.7884  0.2633
19257TIP3   OH279261   6.405   4.009  14.261  0.0248 -0.9024 -0.3344
19257TIP3    H179262   6.484   3.967  14.297 -0.6185 -2.6760 -0.9073
19257TIP3    H279263   6.410   3.992  14.167  0.9079  2.3710 -1.0296
19258TIP3   OH279264   5.561   3.043   0.847  0.2801  0.1569 -0.2683
19258TIP3    H179265   5.529   2.976   0.907 -0.3860  0.6645 -0.0478
19258TIP3    H279266   5.572   3.121   0.901  0.6138  0.3521 -0.6111
19259TIP3   OH279267   4.864   4.641   1.413 -0.1277 -0.6578  0.0769
19259TIP3    H179268   4.829   4.595   1.489  2.5066 -0.8865  1.2671
19259TIP3    H279269   4.845   4.583   1.339  0.8991 -2.5382  1.1889
19260TIP3   OH279270   6.482   1.393  14.617 -0.4019  0.0396  0.3279
19260TIP3    H179271   6.538   1.407  14.694 -0.2386  0.9317  0.0580
19260TIP3    H279272   6.421   1.466  14.619 -0.1209  0.3158 -0.6293
19261TIP3   OH279273   4.245   2.495  11.784  0.6019 -0.5408 -0.2765
19261TIP3    H179274   4.265   2.566  11.845  0.7548 -0.6872 -0.1533
19261TIP3    H279275   4.331   2.462  11.757  0.5371 -1.2632  0.3510
19262TIP3   OH279276   4.989   4.769   2.291 -0.6052  0.5321 -0.3206
19262TIP3    H179277   5.010   4.842   2.348  0.0818 -0.1975  0.3916
19262TIP3    H279278   4.915   4.725   2.334 -1.0216  0.8103 -0.7493
19263TIP3   OH279279   1.240   2.215   2.995 -0.7379  0.1332  0.0772
19263TIP3    H179280   1.295   2.283   3.032 -0.4112  0.0933 -0.3302
19263TIP3    H279281   1.213   2.162   3.070  1.4726 -1.0891  0.0657
19264TIP3   OH279282   4.090   5.680   4.884  0.0404 -0.0524  0.4953
19264TIP3    H179283   4.008   5.636   4.907 -0.5919  1.6230  1.6387
19264TIP3    H279284   4.136   5.690   4.967  1.0258 -0.2026 -0.0178
19265TIP3   OH279285   0.423   6.420  10.798 -0.3497  0.0364  0.4759
19265TIP3    H179286   0.443   6.513  10.787 -2.3126  0.3431 -1.1246
19265TIP3    H279287   0.337   6.418  10.840  0.0090 -1.0862  1.2229
19266TIP3   OH279288   5.188   6.300   3.967  0.0769 -0.2250  0.2475
19266TIP3    H179289   5.101   6.285   3.931  0.8832 -0.9172 -1.5703
19266TIP3    H279290   5.184   6.266   4.056 -1.5165 -0.2060  0.2027
19267TIP3   OH279291   5.794   0.033  14.082 -0.5172  0.0402 -0.2799
19267TIP3    H179292   5.780   0.039  13.988  0.3417 -2.1886 -0.6111
19267TIP3    H279293   5.865   0.095  14.100  1.4183 -1.6484 -1.6737
19268TIP3   OH279294   1.185   2.966  11.017  0.0208 -0.3332  0.6487
19268TIP3    H179295   1.120   2.991  10.951 -1.1663  0.5453  2.0979
19268TIP3    H279296   1.254   3.032  11.008 -0.1453 -0.2002  0.3088
19269TIP3   OH279297   0.121   4.053   5.058  0.0965 -0.0297 -0.1627
19269TIP3    H179298   0.049   4.013   5.108  0.8610  0.3435  1.2698
19269TIP3    H279299   0.189   4.071   5.123  0.6164  1.6804 -1.1199
19270TIP3   OH279300   0.431   2.877  13.557 -0.5731  0.3806 -0.3955
19270TIP3    H179301   0.413   2.887  13.650 -0.0666  1.7648 -0.4299
19270TIP3    H279302   0.348   2.895  13.513 -0.5539  0.8011 -0.2601
19271TIP3   OH279303   0.371   2.593  15.474 -0.3112  0.0598  0.5604
19271TIP3    H179304   0.345   2.682  15.494 -0.4844 -0.0092  0.6401
19271TIP3    H279305   0.411   2.599  15.387  0.4811  0.3644  0.9343
19272TIP3   OH279306   3.350   2.529  12.332  0.1606 -0.0585  0.2494
19272TIP3    H179307   3.326   2.460  12.393 -1.2118  1.1136  1.0936
19272TIP3    H279308   3.419   2.578  12.377  0.0120  0.0745  0.3323
19273TIP3   OH279309   2.222   6.665   0.053 -0.2741  0.0545  0.3974
19273TIP3    H179310   2.173   6.710  -0.016  0.2840  1.3748  0.8508
19273TIP3    H279311   2.256   6.586   0.009 -1.4368 -0.0584 -0.3413
19274TIP3   OH279312   4.281   5.608  11.520  0.4611 -0.3213  0.3985
19274TIP3    H179313   4.281   5.670  11.593  0.7472 -0.2591  0.3483
19274TIP3    H279314   4.341   5.646  11.456  0.1929 -0.3621  0.1176
19275TIP3   OH279315   1.788   2.062   6.316 -0.1924 -0.2663  0.3493
19275TIP3    H179316   1.763   2.039   6.227 -1.5753  0.4182  0.5384
19275TIP3    H279317   1.746   2.147   6.332  1.9149  0.7359  0.8673
19276TIP3   OH279318   5.448   0.793  15.005 -0.4512  0.2477 -0.2996
19276TIP3    H179319   5.366   0.751  15.030 -0.2493  0.2081  0.3121
19276TIP3    H279320   5.448   0.790  14.909 -0.3630 -1.3226 -0.2837
19277TIP3   OH279321   2.604   2.576  12.147 -0.3413  0.5107  0.4427
19277TIP3    H179322   2.602   2.648  12.210 -2.8182  1.7501 -0.8910
19277TIP3    H279323   2.519   2.533  12.157  0.1775 -0.7694 -0.4170
19278TIP3   OH279324   5.219   4.637   4.366 -0.3559  0.0068  0.1378
19278TIP3    H179325   5.290   4.620   4.304  0.0093  0.3212  0.4690
19278TIP3    H279326   5.233   4.727   4.396 -0.4848 -0.1638  0.7336
19279TIP3   OH279327   3.316   6.040   3.319 -0.2489  0.4150 -0.7253
19279TIP3    H179328   3.364   6.009   3.396 -0.1892 -0.1190 -0.9741
19279TIP3    H279329   3.361   6.001   3.245  0.5643  2.0441 -1.1480
19280TIP3   OH279330   3.636   0.316  13.127  0.6089 -0.3637 -0.4852
19280TIP3    H179331   3.668   0.244  13.073 -1.7852 -1.3373 -0.6837
19280TIP3    H279332   3.541   0.308  13.125  0.2598  2.5494 -0.1584
19281TIP3   OH279333   3.541   3.282   5.927 -0.6369 -0.1136 -0.3174
19281TIP3    H179334   3.519   3.369   5.960  0.0588  0.1749 -0.5976
19281TIP3    H279335   3.535   3.290   5.831 -0.2348 -0.2767 -0.3592
19282TIP3   OH279336   1.924   1.436   6.019 -0.2582  0.4007 -0.0593
19282TIP3    H179337   1.883   1.435   5.932 -1.1143  0.9493  0.3257
19282TIP3    H279338   1.968   1.351   6.025 -2.1722 -0.6640 -0.1075
19283TIP3   OH279339   1.928   6.174  13.462 -0.1998  0.4572  0.0574
19283TIP3    H179340   1.914   6.116  13.537 -2.9694 -0.6069 -1.1427
19283TIP3    H279341   1.942   6.260  13.501 -1.7232 -0.0322  1.8498
19284TIP3   OH279342   2.311   5.390   0.304 -0.0135 -0.1498 -0.5430
19284TIP3    H179343   2.336   5.413   0.214  1.0935 -1.9521 -0.7514
19284TIP3    H279344   2.342   5.300   0.315 -0.7530 -0.2108  1.4271
19285TIP3   OH279345   5.081   6.383   1.471 -0.3918  0.6457  0.8380
19285TIP3    H179346   5.007   6.385   1.532 -1.0909 -0.9991  0.1025
19285TIP3    H279347   5.047   6.422   1.391 -1.2484 -2.0485 -0.2293
19286TIP3   OH279348   5.466   4.399  12.339 -0.6065 -0.5904  0.2147
19286TIP3    H179349   5.506   4.313  12.344  0.7114 -0.0202  0.0329
19286TIP3    H279350   5.458   4.416  12.245 -1.5532 -0.8056  0.2457
19287TIP3   OH279351   3.843   3.220  11.996  0.0210  0.2724  0.0904
19287TIP3    H179352   3.882   3.159  12.058 -1.2751 -0.5585  0.1361
19287TIP3    H279353   3.833   3.302  12.045  2.6919  0.8980 -0.2657
19288TIP3   OH279354   2.156   4.008  12.325  0.3150  0.6276 -0.0210
19288TIP3    H179355   2.225   3.977  12.384 -0.0383  0.8393  0.5210
19288TIP3    H279356   2.077   3.963  12.356 -0.3503  2.4984  1.2234
19289TIP3   OH279357   5.954   3.072  16.640 -0.0161  0.0460 -0.3231
19289TIP3    H179358   6.038   3.116  16.653  0.5025 -0.8722 -0.4182
19289TIP3    H279359   5.945   3.013  16.715  0.0425 -0.7793 -0.9387
19290TIP3   OH279360   1.210   3.234  17.004 -0.2309 -0.7640  0.0474
19290TIP3    H179361   1.194   3.277  17.088 -2.5581 -2.0923  0.3895
19290TIP3    H279362   1.229   3.305  16.943 -0.1936  0.3704  1.3400
19291TIP3   OH279363   1.046   3.888   4.201  0.4954  0.0119  0.3299
19291TIP3    H179364   0.953   3.897   4.181 -0.0037  0.3879  2.5585
19291TIP3    H279365   1.076   3.817   4.145 -1.8778 -2.2919  1.7833
19292TIP3   OH279366   0.757   0.265   0.953  0.1245 -0.6068 -0.1356
19292TIP3    H179367   0.726   0.226   1.035 -0.2702 -1.4349 -0.6663
19292TIP3    H279368   0.716   0.212   0.885 -0.5906  0.8748 -0.8865
19293TIP3   OH279369   5.360   4.772  17.177  0.1207 -0.1152  0.2047
19293TIP3    H179370   5.344   4.682  17.207 -1.3244 -0.1000 -0.3999
19293TIP3    H279371   5.454   4.784  17.186 -0.0306 -0.3595  3.9455
19294TIP3   OH279372   1.151   0.282   0.468  0.2953 -0.5240 -0.0463
19294TIP3    H179373   1.091   0.268   0.541 -0.4333 -0.6207 -0.6458
19294TIP3    H279374   1.237   0.290   0.509 -0.4151  2.3954  1.1121
19295TIP3   OH279375   4.661   6.109   1.318 -0.2881 -0.1606 -0.0988
19295TIP3    H179376   4.705   6.030   1.349  2.5424  1.9667  1.7816
19295TIP3    H279377   4.718   6.144   1.250 -0.3617  1.3154  0.5527
19296TIP3   OH279378   2.330   2.814  17.062 -0.5182  0.3513  0.0940
19296TIP3    H179379   2.424   2.814  17.042 -0.6449  1.2919 -0.5874
19296TIP3    H279380   2.297   2.892  17.019 -1.7561 -0.3651 -0.3027
19297TIP3   OH279381   3.001   2.717   1.065 -0.3694  0.3701  0.6642
19297TIP3    H179382   3.026   2.634   1.024  0.1781  0.6794  0.3636
19297TIP3    H279383   2.910   2.729   1.040 -0.4714 -0.1732  0.7588
19298TIP3   OH279384   0.877   5.070   1.647 -0.1221  0.0018  0.4054
19298TIP3    H179385   0.833   4.985   1.652 -1.0029  0.2331 -2.1358
19298TIP3    H279386   0.806   5.134   1.657 -0.2107  0.3834 -2.1025
19299TIP3   OH279387   0.249   4.961  14.469  0.2915  0.4879 -0.0143
19299TIP3    H179388   0.266   4.962  14.375  0.9249  0.7873  0.0987
19299TIP3    H279389   0.335   4.974  14.510 -0.0881  1.2567  0.5873
19300TIP3   OH279390   6.352   2.340   2.542  0.0250 -0.4773 -0.0640
19300TIP3    H179391   6.274   2.376   2.585  1.2559  0.5496  1.4279
19300TIP3    H279392   6.346   2.370   2.452 -1.1776 -0.2233  0.0837
19301TIP3   OH279393   0.736   4.237   0.635  0.2955 -0.5001  0.1207
19301TIP3    H179394   0.660   4.284   0.668 -1.1317 -1.3277 -1.7840
19301TIP3    H279395   0.772   4.294   0.567 -0.4390 -1.3647 -1.0331
19302TIP3   OH279396   2.213   2.495  12.910  0.0558  0.2271 -1.2713
19302TIP3    H179397   2.226   2.589  12.922  1.1722  0.2213 -2.2545
19302TIP3    H279398   2.160   2.468  12.985 -0.5294  1.6863 -1.1308
19303TIP3   OH279399   3.605   3.816   6.203 -0.3017 -0.6047 -0.1846
19303TIP3    H179400   3.676   3.855   6.153 -0.5026 -0.3316 -0.2620
19303TIP3    H279401   3.645   3.787   6.285 -0.4340  1.1925  0.5635
19304TIP3   OH279402   0.793   2.614  16.538  0.4869 -0.4894  0.1203
19304TIP3    H179403   0.880   2.647  16.561  0.5948 -1.0496  0.5400
19304TIP3    H279404   0.743   2.692  16.512  1.6873 -0.3837 -2.0839
19305TIP3   OH279405   6.680   1.883   4.620 -0.5089 -0.2534  0.5107
19305TIP3    H179406   6.628   1.864   4.698 -2.3408  0.4587 -0.4613
19305TIP3    H279407   6.767   1.848   4.639 -0.4657  1.1665  3.4293
19306TIP3   OH279408   0.560   3.503  12.405  0.2260  0.0832  0.1165
19306TIP3    H179409   0.604   3.588  12.413 -0.6589  0.3736  2.9709
19306TIP3    H279410   0.508   3.511  12.325  0.9602  1.8328 -0.2513
19307TIP3   OH279411   2.605   4.760   0.075 -0.0374  0.0380 -0.1088
19307TIP3    H179412   2.639   4.727   0.158  0.3609  0.6432 -0.0212
19307TIP3    H279413   2.520   4.797   0.096  0.4511  1.0043  0.2130
19308TIP3   OH279414   0.094   1.352  13.710 -0.0308  0.4193  0.1453
19308TIP3    H179415   0.008   1.323  13.683 -0.5545 -0.4277  2.4880
19308TIP3    H279416   0.153   1.283  13.682  0.0994  1.3935 -2.2309
19309TIP3   OH279417   0.648   6.346  10.966 -0.1533  0.2062 -0.3314
19309TIP3    H179418   0.665   6.255  10.940 -0.9880 -0.5575  1.5676
19309TIP3    H279419   0.573   6.372  10.913 -0.0434 -0.2932 -0.7477
19310TIP3   OH279420   6.149   5.300  15.888  0.5690 -0.1523 -0.7727
19310TIP3    H179421   6.086   5.233  15.861 -0.6915  0.2836  0.9191
19310TIP3    H279422   6.105   5.347  15.958  2.7489  0.2548  0.4178
19311TIP3   OH279423   6.661   4.721   5.320  0.1634  0.1392  0.4528
19311TIP3    H179424   6.659   4.772   5.239  1.6592 -2.0119 -1.0363
19311TIP3    H279425   6.569   4.707   5.343 -0.2970  0.2948 -1.2045
19312TIP3   OH279426   5.428   1.865  12.468 -0.3235  0.2570  0.2860
19312TIP3    H179427   5.499   1.865  12.404  1.0177 -1.2628  1.6734
19312TIP3    H279428   5.390   1.952  12.462  1.2878  0.9315 -0.9209
19313TIP3   OH279429   3.969   0.863  11.857 -0.0915  0.5077  0.1500
19313TIP3    H179430   3.897   0.849  11.796  0.3244  1.6578 -0.6335
19313TIP3    H279431   4.006   0.776  11.871 -1.1402  0.0131 -0.0235
19314TIP3   OH279432   3.756   4.963   2.251  0.1515  0.3449 -0.0425
19314TIP3    H179433   3.818   4.909   2.204  0.0413 -0.7604  1.0333
19314TIP3    H279434   3.670   4.929   2.226  0.0418  0.6074 -0.0327
19315TIP3   OH279435   1.953   5.281  13.468  0.1980  0.3358 -0.1614
19315TIP3    H179436   2.011   5.349  13.504 -0.0296  1.7938 -2.3947
19315TIP3    H279437   1.865   5.307  13.497  0.4153 -1.2168  2.2074
19316TIP3   OH279438   5.983   0.730   3.024 -0.6539  0.0230  0.4466
19316TIP3    H179439   5.894   0.696   3.016 -0.7946  0.0360  1.7436
19316TIP3    H279440   6.037   0.669   2.975 -1.1139 -1.1587  1.3763
19317TIP3   OH279441   1.288   1.893  14.972 -0.0918  0.2148  0.3449
19317TIP3    H179442   1.375   1.856  14.985 -0.4331 -0.7321  0.0397
19317TIP3    H279443   1.277   1.955  15.044 -0.3378 -1.8504  2.2062
19318TIP3   OH279444   5.018   5.113  17.238 -0.6234 -0.5310 -0.1362
19318TIP3    H179445   5.030   5.199  17.198 -0.4127 -0.4119  0.1750
19318TIP3    H279446   4.948   5.072  17.188 -0.4949 -0.3083 -0.4994
19319TIP3   OH279447   1.372   0.314   5.020  0.1664  0.1394  0.0720
19319TIP3    H179448   1.416   0.243   4.974 -1.7147 -2.5510  2.0812
19319TIP3    H279449   1.400   0.304   5.111 -0.0619  2.1056  0.3949
19320TIP3   OH279450   0.925   1.603   0.007  0.0218  0.1430 -0.1559
19320TIP3    H179451   0.983   1.604   0.083  0.6195 -1.0240 -0.5673
19320TIP3    H279452   0.983   1.612  -0.069 -0.5016  0.6367 -0.5087
19321TIP3   OH279453   4.821   3.206  14.858  0.2860 -0.1518 -0.2418
19321TIP3    H179454   4.772   3.209  14.776 -1.2489  0.7220  0.6443
19321TIP3    H279455   4.805   3.291  14.899  2.8997  0.3226 -0.0355
19322TIP3   OH279456   3.272   4.172  16.887 -0.1406 -0.1279 -0.7202
19322TIP3    H179457   3.261   4.112  16.960 -0.8331  1.2629  0.3514
19322TIP3    H279458   3.366   4.192  16.887 -0.0638 -0.4779 -0.5056
19323TIP3   OH279459   6.193   6.809  15.953  0.3087  0.2941 -0.1223
19323TIP3    H179460   6.126   6.767  15.900  0.8740 -1.0443  0.1828
19323TIP3    H279461   6.179   6.903  15.939 -0.1549  0.0085 -1.8727
19324TIP3   OH279462   3.536   3.505   0.348 -0.6250  0.5480  0.2237
19324TIP3    H179463   3.596   3.441   0.387  1.5282  1.6442 -1.1269
19324TIP3    H279464   3.483   3.453   0.288 -0.1308 -0.2493  0.4485
19325TIP3   OH279465   2.218   3.443  12.232 -0.0956 -0.5310 -0.0286
19325TIP3    H179466   2.202   3.350  12.216 -0.0060 -0.2566 -1.8615
19325TIP3    H279467   2.264   3.445  12.316 -1.7166 -1.9841  0.9616
19326TIP3   OH279468   3.476   5.130  17.031 -0.1395  0.0103  0.1169
19326TIP3    H179469   3.461   5.225  17.029  3.5754  0.7858  0.3515
19326TIP3    H279470   3.431   5.100  17.109 -2.3411  1.3188 -0.5562
19327TIP3   OH279471   3.054   1.457  13.153  0.0500 -0.2477 -0.1429
19327TIP3    H179472   3.059   1.457  13.057 -0.9716  0.5458 -0.2049
19327TIP3    H279473   3.062   1.549  13.178 -3.3543  0.0378  0.2794
19328TIP3   OH279474   1.278   1.022   4.633 -0.2813 -0.3626  0.4723
19328TIP3    H179475   1.230   1.004   4.552  2.1879 -1.9369 -0.7597
19328TIP3    H279476   1.291   0.936   4.672  1.5470 -0.0193  0.6980
19329TIP3   OH279477   0.550   0.520  16.052  0.0495 -0.3535 -0.3493
19329TIP3    H179478   0.482   0.582  16.078 -1.6053 -1.5478 -1.6457
19329TIP3    H279479   0.593   0.561  15.977  0.1875  0.0075 -0.0799
19330TIP3   OH279480   3.400   5.030  16.022  0.5654 -0.1683  0.2832
19330TIP3    H179481   3.345   4.982  16.084  1.8873 -2.0298  0.1184
19330TIP3    H279482   3.489   5.023  16.058  1.1590 -0.0797 -1.0883
19331TIP3   OH279483   2.855   3.102   0.712  0.1321  0.2671  0.5143
19331TIP3    H179484   2.833   3.111   0.619 -1.0685 -1.2918  0.6124
19331TIP3    H279485   2.807   3.173   0.754  0.2622  0.6688 -0.0042
19332TIP3   OH279486   4.224   3.597  16.761 -0.3914  0.1406  0.1927
19332TIP3    H179487   4.227   3.501  16.757  0.5361  0.0364  2.1609
19332TIP3    H279488   4.214   3.624  16.670 -1.0742 -1.8264 -0.3766
19333TIP3   OH279489   0.057   3.288  14.171  0.0297  0.2530  0.1756
19333TIP3    H179490  -0.002   3.362  14.181  0.6593  0.8586 -0.4751
19333TIP3    H279491   0.116   3.314  14.100 -0.6250 -1.4375 -1.0558
19334TIP3   OH279492   5.186   1.920  14.906  0.8344 -0.1693  0.1058
19334TIP3    H179493   5.257   1.923  14.970 -0.8026  0.2077  2.0059
19334TIP3    H279494   5.176   2.010  14.877  0.6156 -0.0829  0.4448
19335TIP3   OH279495   5.401   2.231  15.007  0.1257 -0.4038 -0.1616
19335TIP3    H179496   5.475   2.201  14.954 -0.1068 -4.3529  1.3999
19335TIP3    H279497   5.330   2.246  14.945  1.1383 -0.3520 -1.3344
19336TIP3   OH279498   2.212   6.473   1.087  0.3110  0.3202 -0.1368
19336TIP3    H179499   2.229   6.453   1.179 -0.3817  0.1441 -0.0426
19336TIP3    H279500   2.274   6.418   1.039 -0.0842 -0.4401  0.1918
19337TIP3   OH279501   3.823   5.870   4.262 -0.2452 -0.2073 -0.2367
19337TIP3    H179502   3.751   5.922   4.225 -0.1407  0.8958  1.0409
19337TIP3    H279503   3.779   5.804   4.316 -0.3354 -0.3706 -0.5096
19338TIP3   OH279504   5.384   1.182  13.143  0.3405 -0.0024  0.5523
19338TIP3    H179505   5.393   1.275  13.122  0.3819  0.2958  1.8100
19338TIP3    H279506   5.355   1.142  13.061  0.3725  1.1053 -0.0233
19339TIP3   OH279507   3.788   2.820  17.153  0.1577 -0.1785  0.0574
19339TIP3    H179508   3.799   2.725  17.152  0.9436 -0.1125 -1.5640
19339TIP3    H279509   3.710   2.835  17.206  1.1663 -1.5705  2.0485
19340TIP3   OH279510   6.559   5.083   2.212  0.4860  0.0940 -0.2216
19340TIP3    H179511   6.614   5.161   2.225  0.2742  0.3321 -0.6926
19340TIP3    H279512   6.572   5.031   2.291  0.2682  0.8328  0.3156
19341TIP3   OH279513   1.202   5.544   1.988  0.2674 -0.4548  0.1637
19341TIP3    H179514   1.286   5.539   1.942  0.4910 -0.5328  0.5806
19341TIP3    H279515   1.149   5.474   1.950 -0.2225  0.6338 -1.3172
19342TIP3   OH279516   4.666   0.887   3.994 -0.1467 -0.2145 -0.4141
19342TIP3    H179517   4.587   0.880   3.940 -0.2663 -0.1567 -0.2448
19342TIP3    H279518   4.661   0.813   4.054 -0.2445 -0.0152 -0.1754
19343TIP3   OH279519   3.545   0.053   1.372 -0.1777  0.0116 -0.3083
19343TIP3    H179520   3.450   0.057   1.372 -0.2471 -1.1315 -0.3580
19343TIP3    H279521   3.571   0.101   1.293 -0.9458 -2.7567 -2.4282
19344TIP3   OH279522   1.485   3.020   3.531  0.2388 -0.8522 -0.3696
19344TIP3    H179523   1.409   3.074   3.557 -0.5549 -1.9816 -0.2747
19344TIP3    H279524   1.559   3.061   3.575 -0.2623  0.4164 -0.6344
19345TIP3   OH279525   2.493   3.928   6.411 -0.1159  0.0297  0.0457
19345TIP3    H179526   2.453   4.014   6.420 -0.4659 -0.0945 -0.2910
19345TIP3    H279527   2.427   3.875   6.367  0.8896  0.1697 -1.7405
19346TIP3   OH279528   3.655   0.403  13.959 -0.6686  0.0272  0.8265
19346TIP3    H179529   3.618   0.482  13.921 -0.9008 -0.7967 -0.7393
19346TIP3    H279530   3.625   0.403  14.050 -2.3422  0.7068  0.3041
19347TIP3   OH279531   5.935   0.148   0.650 -0.5112  0.8112 -0.2369
19347TIP3    H179532   5.914   0.237   0.678  1.4014  1.3652 -0.4074
19347TIP3    H279533   5.936   0.153   0.555 -1.1128  0.4204 -0.2642
19348TIP3   OH279534   2.064   6.681   4.252  0.1776 -0.2522 -0.1907
19348TIP3    H179535   2.079   6.734   4.330  0.5796  1.5054 -1.3735
19348TIP3    H279536   1.992   6.725   4.206 -0.0750 -1.2573 -0.7884
19349TIP3   OH279537   4.401   3.644   3.506  0.3951  0.2056  0.5401
19349TIP3    H179538   4.314   3.612   3.483  0.3573  1.5964 -1.6154
19349TIP3    H279539   4.459   3.604   3.441  0.8247  1.7996 -0.1252
19350TIP3   OH279540   2.228   4.960   1.208 -0.4871  0.4135  0.2719
19350TIP3    H179541   2.191   4.892   1.151 -0.5540  1.0430 -0.4557
19350TIP3    H279542   2.170   5.035   1.196  1.1981  1.5609 -1.1891
19351TIP3   OH279543   5.090   5.660  11.277 -0.0695  0.0614  0.3967
19351TIP3    H179544   5.092   5.565  11.279 -0.0133  0.0660  0.5536
19351TIP3    H279545   4.999   5.683  11.293  0.1882  0.0758  1.9640
19352TIP3   OH279546   3.614   2.587  12.067 -0.0741  0.1849 -0.4565
19352TIP3    H179547   3.663   2.656  12.023  0.3319 -0.4952 -1.1141
19352TIP3    H279548   3.677   2.547  12.127 -0.3354  0.4418 -0.0055
19353TIP3   OH279549   1.946   4.930   2.977 -0.0617  0.2024 -0.1588
19353TIP3    H179550   2.039   4.921   2.998  0.2158  1.0249 -0.9747
19353TIP3    H279551   1.903   4.862   3.030  0.8586  0.6022  1.1730
19354TIP3   OH279552   6.096   0.561   0.556 -0.1986 -0.1842 -0.0672
19354TIP3    H179553   6.065   0.651   0.565  2.8046  1.1621 -1.5898
19354TIP3    H279554   6.095   0.544   0.462 -0.2565 -1.5963  0.1632
19355TIP3   OH279555   6.608   2.029  17.034  0.1860  0.5605  0.0007
19355TIP3    H179556   6.556   1.991  17.104  2.5142 -0.5148  1.2534
19355TIP3    H279557   6.656   2.101  17.075 -2.3483  3.5840 -1.8023
19356TIP3   OH279558   3.622   0.692  11.289  0.1542  0.5393 -0.2767
19356TIP3    H179559   3.614   0.667  11.197  0.1854 -0.0043 -0.1359
19356TIP3    H279560   3.715   0.713  11.300 -0.1113  2.0265 -0.7141
19357TIP3   OH279561   4.077   6.309  14.149 -0.1451 -0.2475 -0.6829
19357TIP3    H179562   4.027   6.239  14.190 -0.0092 -0.3091 -0.6204
19357TIP3    H279563   4.015   6.352  14.090 -0.7721  0.8078  0.6928
19358TIP3   OH279564   2.466   3.107   3.444 -0.0107 -0.2184  0.0821
19358TIP3    H179565   2.395   3.044   3.434 -0.7535  0.5130  0.5329
19358TIP3    H279566   2.423   3.184   3.482  1.1424  0.0204  0.9331
19359TIP3   OH279567   5.628   1.835  14.548  0.0294 -0.4638 -0.2076
19359TIP3    H179568   5.690   1.785  14.494 -0.4059 -1.4020  0.1312
19359TIP3    H279569   5.582   1.892  14.486 -0.0850 -1.1339 -0.7493
19360TIP3   OH279570   3.221   0.236  15.107  0.4619  0.0660 -0.0572
19360TIP3    H179571   3.204   0.318  15.060 -0.1980  0.1664  0.3478
19360TIP3    H279572   3.155   0.234  15.177  0.6353 -0.6900  0.0915
19361TIP3   OH279573   4.343   3.796   2.481 -0.1290  0.1374 -0.0359
19361TIP3    H179574   4.277   3.840   2.429 -0.7688 -1.0138 -0.2155
19361TIP3    H279575   4.426   3.831   2.448 -0.5865  0.7530 -0.5757
19362TIP3   OH279576   4.565   5.318   1.031  0.4855  0.0311 -0.5656
19362TIP3    H179577   4.654   5.307   1.065  0.7777 -0.4618 -1.4531
19362TIP3    H279578   4.536   5.229   1.014 -0.1926  0.1921 -0.2626
19363TIP3   OH279579   0.046   3.710  17.153  0.1703  0.4776 -0.1552
19363TIP3    H179580   0.078   3.798  17.136 -0.1316  0.5061 -0.5912
19363TIP3    H279581  -0.002   3.686  17.074  2.1156 -0.9305 -1.0071
19364TIP3   OH279582   2.021   3.629   4.022 -0.3487  0.2574 -0.7298
19364TIP3    H179583   2.030   3.537   3.996 -1.9950 -0.2758  0.4266
19364TIP3    H279584   1.945   3.660   3.973  0.0722  0.9658 -0.9556
19365TIP3   OH279585   5.143   2.700  16.589  0.3797  0.2293 -0.2177
19365TIP3    H179586   5.081   2.704  16.661  0.9094  0.7945  0.2271
19365TIP3    H279587   5.144   2.788  16.553  1.5752  0.4876  0.3673
19366TIP3   OH279588   2.328   3.863   0.381 -0.3763  0.3351 -0.3422
19366TIP3    H179589   2.413   3.899   0.407 -0.5293  0.4256  0.0364
19366TIP3    H279590   2.264   3.925   0.416 -0.6034  0.2209 -0.5517
19367TIP3   OH279591   1.197   1.670  13.203  0.0590  0.2769  0.4032
19367TIP3    H179592   1.104   1.692  13.198 -0.1633 -0.7234 -0.2384
19367TIP3    H279593   1.199   1.575  13.209  1.0764 -0.0505 -2.7566
19368TIP3   OH279594   0.148   3.171   5.799  0.1393  0.3863  0.5272
19368TIP3    H179595   0.060   3.181   5.762  0.3385  0.0958 -0.0317
19368TIP3    H279596   0.195   3.249   5.769  0.5819 -0.3215 -0.6471
19369TIP3   OH279597   1.238   0.266   3.180  0.8092  0.1276  0.1043
19369TIP3    H179598   1.313   0.324   3.193  1.2258 -0.3568 -0.0748
19369TIP3    H279599   1.254   0.192   3.240  0.5512 -0.0493 -0.0419
19370TIP3   OH279600   0.519   6.499  15.791  0.3414 -0.2869 -0.0145
19370TIP3    H179601   0.457   6.562  15.756 -0.0819 -0.1688  0.9075
19370TIP3    H279602   0.564   6.464  15.714  0.2250  0.7546 -0.5798
19371TIP3   OH279603   5.065   0.829  11.715 -0.6706 -0.2200 -0.0546
19371TIP3    H179604   4.976   0.818  11.680 -0.6200  0.5052 -0.4211
19371TIP3    H279605   5.058   0.800  11.806 -1.7385  1.5306  0.4771
19372TIP3   OH279606   2.258   3.604  10.883 -0.3804 -0.6375  0.2887
19372TIP3    H179607   2.289   3.595  10.793 -1.5361 -0.6153 -0.1386
19372TIP3    H279608   2.194   3.534  10.893  0.2945 -1.1213  1.3596
19373TIP3   OH279609   5.252   3.387   5.058  0.0992  0.4503 -0.3452
19373TIP3    H179610   5.239   3.292   5.062 -0.5617  0.5426 -0.2455
19373TIP3    H279611   5.290   3.409   5.143  2.8172 -0.0847 -1.3174
19374TIP3   OH279612   5.892   3.133  15.077 -0.0258  0.6950  0.3614
19374TIP3    H179613   5.900   3.134  15.173 -0.2315  0.4574  0.3810
19374TIP3    H279614   5.942   3.210  15.049 -0.9539  1.4494  0.7306
19375TIP3   OH279615   6.604   4.631  14.737 -0.4014  0.2743 -0.0862
19375TIP3    H179616   6.548   4.617  14.814 -0.3513  1.5371  0.2030
19375TIP3    H279617   6.687   4.591  14.761 -0.0616  1.5071  0.9555
19376TIP3   OH279618   1.459   1.073  11.769 -0.7681 -0.4737 -0.2191
19376TIP3    H179619   1.461   1.159  11.727 -0.8836 -1.2641 -1.9383
19376TIP3    H279620   1.411   1.017  11.708 -0.9001 -1.7215  0.9669
19377TIP3   OH279621   3.647   3.441   2.900  0.7517 -0.2027 -0.2599
19377TIP3    H179622   3.660   3.348   2.919  0.8688 -0.1560 -0.1158
19377TIP3    H279623   3.630   3.444   2.806  0.9215 -0.3499 -0.2941
19378TIP3   OH279624   4.756   4.976  10.847  0.5024  0.3087  0.0629
19378TIP3    H179625   4.669   4.953  10.813  1.1700 -1.9481 -0.2951
19378TIP3    H279626   4.742   5.058  10.895 -2.0527 -0.5138  0.9002
19379TIP3   OH279627   2.652   6.500   2.648  0.5087 -0.7701  0.8144
19379TIP3    H179628   2.634   6.471   2.737 -0.4295 -0.2071  0.8298
19379TIP3    H279629   2.721   6.566   2.657  0.8900 -1.1968  1.0459
19380TIP3   OH279630   6.483   5.591   2.857 -0.6106  0.0899  0.2024
19380TIP3    H179631   6.441   5.671   2.888 -2.1348 -1.0517  1.2410
19380TIP3    H279632   6.574   5.598   2.888 -0.5270  1.7074 -0.3464
19381TIP3   OH279633   3.754   0.383  16.040 -0.0699  0.0263 -0.3702
19381TIP3    H179634   3.788   0.297  16.018 -0.8380  0.5766 -4.4270
19381TIP3    H279635   3.820   0.445  16.008 -0.8258  0.9773 -0.1549
19382TIP3   OH279636   6.533   5.343   3.266 -0.2614 -0.0450  0.3567
19382TIP3    H179637   6.563   5.426   3.229 -0.2684  0.6860  1.9440
19382TIP3    H279638   6.518   5.287   3.189  1.2641  0.8725 -0.6584
19383TIP3   OH279639   0.948   1.891  13.564  0.0490  0.5002  0.1444
19383TIP3    H179640   0.881   1.884  13.497 -0.2553 -0.4841  0.5266
19383TIP3    H279641   1.028   1.915  13.516  0.1816 -1.6356 -0.8105
19384TIP3   OH279642   5.906   6.617   5.874  0.1219 -0.5593 -0.1617
19384TIP3    H179643   5.842   6.553   5.844  1.6737 -1.8604 -0.8216
19384TIP3    H279644   5.855   6.681   5.923 -1.2545 -3.6623  2.8650
19385TIP3   OH279645   0.013   2.600  16.598  0.2896 -0.4198 -1.0046
19385TIP3    H179646  -0.037   2.665  16.549  1.4513  2.0289  0.8603
19385TIP3    H279647  -0.049   2.528  16.614 -2.6064  2.2621  0.8526
19386TIP3   OH279648   2.123   6.407  11.921  0.2624  0.1433 -0.1895
19386TIP3    H179649   2.168   6.382  12.001  1.1753  1.6173 -0.1995
19386TIP3    H279650   2.030   6.393  11.941  0.5459 -0.6710  0.6724
19387TIP3   OH279651   6.205   5.801  13.127 -0.8872  0.2339  0.1911
19387TIP3    H179652   6.250   5.880  13.096  0.6797 -0.9595 -0.7548
19387TIP3    H279653   6.258   5.770  13.200 -0.5196 -0.8019 -0.4832
19388TIP3   OH279654   3.906   6.409  12.485 -0.0897  0.2236  0.7775
19388TIP3    H179655   3.962   6.331  12.477 -0.0653  0.2954  0.2313
19388TIP3    H279656   3.967   6.483  12.476 -0.5018  0.3310 -1.9623
19389TIP3   OH279657   1.674   6.269   2.713  0.1887  0.2126  0.3625
19389TIP3    H179658   1.622   6.284   2.634  1.0300 -1.0970 -0.4734
19389TIP3    H279659   1.615   6.291   2.785 -0.8802  0.6117 -0.6094
19390TIP3   OH279660   6.183   6.050   0.644  0.0711  0.0112 -0.2843
19390TIP3    H179661   6.162   6.010   0.559 -0.6671  1.9720 -1.0936
19390TIP3    H279662   6.244   5.989   0.685 -1.8717 -2.5149 -0.8833
19391TIP3   OH279663   6.278   4.659  12.695 -0.0307  0.3364 -0.1321
19391TIP3    H179664   6.235   4.582  12.734 -2.2107  1.9326  0.8430
19391TIP3    H279665   6.329   4.697  12.767  0.5214  0.1790 -0.4355
19392TIP3   OH279666   4.515   6.467  16.064 -0.2284 -0.4201 -0.3861
19392TIP3    H179667   4.433   6.457  16.015 -0.6509 -1.0456  0.4205
19392TIP3    H279668   4.541   6.557  16.048 -1.9433  0.3077  0.6297
19393TIP3   OH279669   0.970   0.569  16.966 -0.2013 -0.3106 -0.1007
19393TIP3    H179670   0.911   0.626  16.915  0.6180  2.1294  1.5036
19393TIP3    H279671   0.911   0.516  17.019 -0.9983 -0.1400 -0.7851
19394TIP3   OH279672   6.330   3.354  13.642 -0.0986 -0.6523 -0.2115
19394TIP3    H179673   6.237   3.360  13.619 -0.0491 -1.0210 -0.5106
19394TIP3    H279674   6.332   3.296  13.718 -0.0844 -0.8668 -0.3763
19395TIP3   OH279675   3.993   5.458  10.401  0.1436  0.0068  0.8268
19395TIP3    H179676   4.023   5.439  10.490 -3.1678 -0.4569  2.0183
19395TIP3    H279677   4.051   5.528  10.370  0.6397  1.1101  3.8739
19396TIP3   OH279678   2.953   5.794  16.033 -0.3648  0.8278  0.1987
19396TIP3    H179679   2.921   5.709  16.004 -0.7413  1.6568 -2.0382
19396TIP3    H279680   3.040   5.802  15.993  0.5026  0.7548  1.9534
19397TIP3   OH279681   4.385   0.878   2.130 -0.2449 -0.0396 -0.7364
19397TIP3    H179682   4.432   0.918   2.203 -1.6877 -1.0380  0.8074
19397TIP3    H279683   4.382   0.947   2.063 -1.1850  1.9031  1.1837
19398TIP3   OH279684   4.331   6.230  12.366  0.0833  0.5681 -0.9116
19398TIP3    H179685   4.352   6.311  12.319  0.2793  0.1801 -1.4967
19398TIP3    H279686   4.252   6.252  12.416  1.4499  1.8324  0.8073
19399TIP3   OH279687   0.554   3.855  14.282  0.2784 -0.5711 -0.3874
19399TIP3    H179688   0.462   3.837  14.267  0.4894 -0.9775 -1.3098
19399TIP3    H279689   0.565   3.850  14.377 -0.9382  0.9959 -0.1348
19400TIP3   OH279690   4.677   4.211  12.137 -0.2458 -0.3068 -0.3348
19400TIP3    H179691   4.641   4.178  12.219  0.7186  0.3693  0.3858
19400TIP3    H279692   4.624   4.288  12.117 -0.6124 -0.5884 -0.4639
19401TIP3   OH279693   0.885   4.717  15.871  0.0253 -0.0672  0.2708
19401TIP3    H179694   0.941   4.782  15.913  1.2237 -0.8018 -0.1227
19401TIP3    H279695   0.845   4.763  15.798  2.0545 -0.1097 -0.9392
19402TIP3   OH279696   2.464   0.700   4.229 -0.1099  0.7782 -0.0891
19402TIP3    H179697   2.471   0.795   4.238  0.4531  0.5609  2.5508
19402TIP3    H279698   2.448   0.668   4.318  2.9970 -1.8026 -0.2416
19403TIP3   OH279699   3.899   2.515  11.756 -0.0054  0.4383 -0.0387
19403TIP3    H179700   3.948   2.597  11.760  0.6741  0.0106  0.5201
19403TIP3    H279701   3.807   2.542  11.761  0.2425  1.0690  2.0921
19404TIP3   OH279702   1.473   5.386   2.144 -0.3672 -0.2008 -0.0660
19404TIP3    H179703   1.539   5.319   2.161 -1.3678 -1.4062 -0.7585
19404TIP3    H279704   1.390   5.341   2.156 -1.1252  0.1215 -3.1657
19405TIP3   OH279705   3.850   1.163   3.560 -0.3735 -0.2815  0.3035
19405TIP3    H179706   3.812   1.191   3.477  0.7483 -1.1015 -0.5365
19405TIP3    H279707   3.930   1.215   3.568 -1.0105  0.5687  1.4400
19406TIP3   OH279708   3.383   5.590  12.383 -0.5650  0.1749 -0.6301
19406TIP3    H179709   3.422   5.636  12.309  0.2018  0.3406 -0.1278
19406TIP3    H279710   3.385   5.654  12.454  2.1842 -1.1400  0.6093
19407TIP3   OH279711   0.916   0.840   1.538 -0.2631 -0.0503 -0.4870
19407TIP3    H179712   0.921   0.849   1.442 -0.0439 -0.8446 -0.5571
19407TIP3    H279713   0.936   0.748   1.554 -1.6931 -0.2599  0.2235
19408TIP3   OH279714   2.934   4.184   0.779  0.7262 -0.3223 -0.5273
19408TIP3    H179715   3.016   4.233   0.774  0.4065  0.3163  0.2857
19408TIP3    H279716   2.953   4.113   0.840  0.9075 -0.6627 -0.9721
19409TIP3   OH279717   1.050   5.954  14.804  0.2872  0.6496  0.0110
19409TIP3    H179718   1.102   5.910  14.870 -0.9216  0.1026  0.6241
19409TIP3    H279719   1.108   6.023  14.771  1.5506 -0.2174  0.3281
19410TIP3   OH279720   2.756   3.690   3.207  0.1279  0.3391  0.5301
19410TIP3    H179721   2.785   3.649   3.289  0.4238 -0.2460  0.1392
19410TIP3    H279722   2.785   3.781   3.214 -0.6705  0.5395  1.4767
19411TIP3   OH279723   1.842   0.043  11.515 -0.5739  0.9404  0.4475
19411TIP3    H179724   1.863   0.028  11.423 -0.5557 -2.5082  0.8733
19411TIP3    H279725   1.926   0.065  11.555 -0.2200  0.5653 -0.0718
19412TIP3   OH279726   1.288   0.720   0.904  0.3335  0.1211 -0.2707
19412TIP3    H179727   1.220   0.787   0.898  0.3295  0.6619  3.2857
19412TIP3    H279728   1.247   0.640   0.870  0.1898  1.6753 -4.2014
19413TIP3   OH279729   4.987   2.199   0.250 -0.2454 -0.6806 -0.1362
19413TIP3    H179730   5.056   2.245   0.202 -0.4215 -1.3179 -1.0226
19413TIP3    H279731   4.965   2.124   0.194 -2.1562 -0.0938 -0.2119
19414TIP3   OH279732   2.790   2.481   3.890  0.4689 -0.4434 -0.4342
19414TIP3    H179733   2.879   2.500   3.921 -0.3774  2.3796  0.5600
19414TIP3    H279734   2.733   2.506   3.963 -1.2001 -1.4997 -1.3135
19415TIP3   OH279735   4.927   5.717   3.351 -0.2099 -0.3301  0.2550
19415TIP3    H179736   4.944   5.780   3.281  2.3773  0.6018  1.6007
19415TIP3    H279737   4.831   5.706   3.351 -0.7273  3.0967 -0.4726
19416TIP3   OH279738   6.676   3.239   6.732  0.2602  0.5060  0.4047
19416TIP3    H179739   6.705   3.174   6.796 -1.4574 -0.4103  0.3358
19416TIP3    H279740   6.727   3.220   6.654 -0.9594 -1.5942  0.0211
19417TIP3   OH279741   1.388   0.791   0.341 -0.4508  0.5434  0.0965
19417TIP3    H179742   1.296   0.817   0.342 -0.7395 -0.4187 -0.3146
19417TIP3    H279743   1.391   0.716   0.281  0.7372  1.0506 -0.4999
19418TIP3   OH279744   4.504   3.363  16.783  0.0708  0.4336  0.3481
19418TIP3    H179745   4.429   3.351  16.725  1.7684  0.7824 -2.0606
19418TIP3    H279746   4.552   3.280  16.778  0.8868  0.9009  0.2900
19419TIP3   OH279747   0.623   2.568   6.586  0.2695  0.4397 -0.1135
19419TIP3    H179748   0.643   2.475   6.592  1.9799  0.8218  0.4052
19419TIP3    H279749   0.604   2.582   6.493  0.8584 -0.2475 -0.3431
19420TIP3   OH279750   2.815   4.853   5.307 -0.1460  0.6206  0.6332
19420TIP3    H179751   2.804   4.805   5.389 -1.9532  1.9356  1.2097
19420TIP3    H279752   2.787   4.791   5.239 -2.5322  0.8008  1.3718
19421TIP3   OH279753   5.284   0.148  11.479 -0.4544 -0.1864  0.3817
19421TIP3    H179754   5.223   0.074  11.488  0.6296 -1.1275  0.2395
19421TIP3    H279755   5.354   0.129  11.542  1.0944 -0.5841 -1.3746
19422TIP3   OH279756   3.360   2.394  12.764  0.2098  0.1851  0.1207
19422TIP3    H179757   3.307   2.420  12.839  2.2441  3.6376  0.6294
19422TIP3    H279758   3.327   2.308  12.738 -4.2436  1.2445  1.4952
19423TIP3   OH279759   6.184   1.533  11.995  0.3817 -0.4666  0.3154
19423TIP3    H179760   6.187   1.625  12.021 -1.5838 -0.9684  2.5992
19423TIP3    H279761   6.122   1.531  11.922  0.4330  0.0161  0.2525
19424TIP3   OH279762   1.059   3.274   0.255 -0.0466 -0.6959 -0.9102
19424TIP3    H179763   1.100   3.360   0.245  0.6355 -1.2962 -4.2360
19424TIP3    H279764   1.127   3.220   0.294 -0.1889 -0.0227  0.3598
19425TIP3   OH279765   0.656   0.735  16.365  0.7114  0.3184  0.0489
19425TIP3    H179766   0.686   0.645  16.353  0.7270 -0.0591  2.3878
19425TIP3    H279767   0.733   0.782  16.399 -0.5437 -0.1478  4.0081
19426TIP3   OH279768   4.593   4.489  15.789  0.1518 -0.2069 -0.0542
19426TIP3    H179769   4.679   4.494  15.832  0.6171  1.0949 -1.0697
19426TIP3    H279770   4.612   4.453  15.703 -0.2596  0.4599 -0.4297
19427TIP3   OH279771   0.719   0.699   2.085  0.5257 -0.3299 -0.1100
19427TIP3    H179772   0.741   0.626   2.028  0.3888  2.4874 -4.1783
19427TIP3    H279773   0.803   0.732   2.116  0.6854 -1.0994  0.3008
19428TIP3   OH279774   3.405   5.133  15.098 -0.0278 -0.7090 -0.3119
19428TIP3    H179775   3.417   5.139  15.004 -0.5214  1.7930 -0.2717
19428TIP3    H279776   3.331   5.074  15.109 -0.3124 -0.6031 -1.5183
19429TIP3   OH279777   2.976   0.539  12.248 -0.3925  0.2408  0.6317
19429TIP3    H179778   2.957   0.537  12.342 -1.2442  0.2732  0.4637
19429TIP3    H279779   2.948   0.626  12.219 -1.8089 -0.3906  0.0167
19430TIP3   OH279780   2.844   4.700   3.802 -0.5141  0.1180 -0.3793
19430TIP3    H179781   2.871   4.764   3.868  0.3582 -0.8731  0.2589
19430TIP3    H279782   2.759   4.731   3.771 -0.7390  0.8366  0.9033
19431TIP3   OH279783   6.752   4.334  14.490 -0.2452 -0.6251  0.1202
19431TIP3    H179784   6.830   4.292  14.453 -1.4868 -1.1286 -2.1020
19431TIP3    H279785   6.682   4.269  14.479 -1.7023  1.0627 -1.1521
19432TIP3   OH279786   5.838   0.666   1.433  0.1346  0.3557 -0.4810
19432TIP3    H179787   5.882   0.751   1.433 -1.2707  1.1322 -1.3039
19432TIP3    H279788   5.809   0.654   1.524  1.1254  0.3043 -0.1583
19433TIP3   OH279789   5.152   1.113   6.355 -0.0094  0.3041 -0.6288
19433TIP3    H179790   5.204   1.065   6.418  0.6105 -1.0185 -2.0868
19433TIP3    H279791   5.077   1.146   6.405  1.5899  1.2920  1.2638
19434TIP3   OH279792   2.871   3.507   0.011  0.1890  0.1089 -0.6358
19434TIP3    H179793   2.921   3.558   0.074 -0.2926  0.4769 -0.5466
19434TIP3    H279794   2.935   3.447  -0.027 -0.0237 -2.0296  2.1023
19435TIP3   OH279795   6.180   6.693  15.436 -0.4671  0.2222  0.3781
19435TIP3    H179796   6.132   6.611  15.443 -0.0966 -0.1844 -1.4223
19435TIP3    H279797   6.256   6.681  15.493 -1.2748 -0.0061  1.4432
19436TIP3   OH279798   5.038   2.735   3.295  0.0118  0.3736  0.5539
19436TIP3    H179799   4.981   2.790   3.350 -2.1383  0.8683 -1.9551
19436TIP3    H279800   4.981   2.664   3.266  1.3123 -0.3351 -0.3335
19437TIP3   OH279801   1.491   0.159  12.482 -0.2393  0.4242  0.0753
19437TIP3    H179802   1.492   0.162  12.386  0.6529 -3.1647 -0.1825
19437TIP3    H279803   1.555   0.225  12.509  0.8494  0.2569 -1.9119
19438TIP3   OH279804   2.905   2.745   0.662  0.2367 -0.4304  0.1225
19438TIP3    H179805   2.903   2.824   0.608  2.1620 -0.9397 -0.7758
19438TIP3    H279806   2.930   2.776   0.749 -3.9912  0.5576  1.2277
19439TIP3   OH279807   3.730   6.799  12.692 -0.0758  0.6710 -0.1088
19439TIP3    H179808   3.805   6.848  12.659  0.1053  1.3171  1.2233
19439TIP3    H279809   3.768   6.725  12.739 -0.2190  1.5264  1.3958
19440TIP3   OH279810   2.469   0.171   1.133  0.4185 -0.0093  0.2246
19440TIP3    H179811   2.440   0.083   1.157  1.6452 -0.1689  1.2112
19440TIP3    H279812   2.547   0.186   1.187 -0.3913  2.1103  0.9126
19441TIP3   OH279813   1.076   3.098   4.499  0.1508  0.1082 -0.0919
19441TIP3    H179814   1.060   3.026   4.438  0.2018  0.2184 -0.2352
19441TIP3    H279815   1.074   3.177   4.445  1.9044  0.0871 -0.2439
19442TIP3   OH279816   2.960   6.041  16.297  0.4158  0.0676 -0.3659
19442TIP3    H179817   3.020   5.983  16.344  0.0823  0.2446  0.2915
19442TIP3    H279818   3.003   6.058  16.214  1.3038  0.2353  0.1223
19443TIP3   OH279819   2.474   3.640  11.804 -0.6142 -0.1043  0.2082
19443TIP3    H179820   2.534   3.711  11.826 -0.0976 -1.0266  1.8677
19443TIP3    H279821   2.433   3.616  11.887 -1.8569 -0.7822 -0.5741
19444TIP3   OH279822   3.673   2.699  11.795  0.2404  0.3150  0.2833
19444TIP3    H179823   3.578   2.710  11.798  0.3104  1.1212 -0.1679
19444TIP3    H279824   3.706   2.785  11.770  0.9968 -0.4030 -1.2723
19445TIP3   OH279825   0.240   6.784  14.601 -0.5134 -0.3275  1.2649
19445TIP3    H179826   0.221   6.702  14.646 -3.0878  1.0416  2.9287
19445TIP3    H279827   0.283   6.838  14.668  1.4221 -0.3284  0.1090
19446TIP3   OH279828   0.317   1.282  16.764 -0.1664 -0.3164  0.5673
19446TIP3    H179829   0.365   1.280  16.681 -0.7924  0.5478  0.1697
19446TIP3    H279830   0.258   1.356  16.755 -0.6513 -0.5720  1.5687
19447TIP3   OH279831   1.959   2.693  11.828 -0.3582 -0.2907 -0.6779
19447TIP3    H179832   2.013   2.765  11.860  0.1010 -0.0779 -1.8789
19447TIP3    H279833   1.960   2.629  11.899 -0.0877  0.5320  0.0655
19448TIP3   OH279834   5.048   2.387   3.751  0.6689  0.2040 -0.0722
19448TIP3    H179835   5.062   2.466   3.698 -0.7185  0.4140 -0.1548
19448TIP3    H279836   4.969   2.405   3.801  2.2391  0.2617  2.5947
19449TIP3   OH279837   1.444   5.345  14.764  0.5909  0.0527 -0.2566
19449TIP3    H179838   1.428   5.398  14.686  0.2566 -1.0106 -0.9320
19449TIP3    H279839   1.456   5.256  14.731 -1.1314 -0.7091  1.0068
19450TIP3   OH279840   5.360   5.045  11.932  0.1742  0.4048  0.0539
19450TIP3    H179841   5.291   5.021  11.870  0.4523  1.2269 -0.5887
19450TIP3    H279842   5.441   5.034  11.883  0.5827 -1.3589  1.0603
19451TIP3   OH279843   5.867   6.014  12.517  0.0230 -0.4751  0.0531
19451TIP3    H179844   5.848   5.997  12.609  0.7521 -1.7208 -0.0045
19451TIP3    H279845   5.904   6.103  12.516 -2.7188  0.7620  0.5343
19452TIP3   OH279846   4.013   6.709   5.394  0.0469 -0.2686 -0.0509
19452TIP3    H179847   3.945   6.644   5.379  0.3126 -0.6397  0.3218
19452TIP3    H279848   4.066   6.708   5.313  0.9175 -1.5824  0.5045
19453TIP3   OH279849   3.880   5.970  13.600  0.7515 -0.0149 -0.3989
19453TIP3    H179850   3.844   5.911  13.667 -0.0174 -1.6765 -2.1650
19453TIP3    H279851   3.840   6.055  13.618 -0.1137 -0.6340  0.7197
19454TIP3   OH279852   0.811   0.094  13.483  0.0790  0.0463 -0.4761
19454TIP3    H179853   0.842   0.004  13.493 -0.5600 -0.2361 -0.9565
19454TIP3    H279854   0.722   0.086  13.449  0.6925  0.8686 -2.4161
19455TIP3   OH279855   5.363   1.120   1.046 -0.5011  0.4318  0.1200
19455TIP3    H179856   5.393   1.210   1.031  1.1941 -0.0613  0.3271
19455TIP3    H279857   5.277   1.130   1.086 -1.0123  1.9332 -1.2334
19456TIP3   OH279858   0.754   3.937  13.748  0.2789  0.2616  0.4192
19456TIP3    H179859   0.785   3.877  13.816  2.3377  0.6965 -0.0646
19456TIP3    H279860   0.703   4.003  13.796  0.0880 -0.4961  1.2779
19457TIP3   OH279861   0.832   1.538  13.924  0.5089 -0.0433 -0.0797
19457TIP3    H179862   0.908   1.551  13.981  1.9614  0.6407 -2.0670
19457TIP3    H279863   0.864   1.483  13.852 -0.7148  0.7089 -1.2547
19458TIP3   OH279864   5.934   4.513  12.379 -0.2588 -0.2375  0.2586
19458TIP3    H179865   6.014   4.498  12.429 -0.0584 -0.0131  0.0108
19458TIP3    H279866   5.863   4.489  12.438  0.0078 -0.9018  0.3223
19459TIP3   OH279867   6.217   4.640   1.063  0.4791 -0.4856 -0.2711
19459TIP3    H179868   6.150   4.600   1.008  0.2365 -0.9706  0.3499
19459TIP3    H279869   6.281   4.677   1.002  0.4849 -1.4498 -0.8791
19460TIP3   OH279870   5.840   0.211  12.063  0.0926 -0.7486 -0.5034
19460TIP3    H179871   5.825   0.130  12.112  3.5072 -2.1615 -1.4744
19460TIP3    H279872   5.862   0.276  12.129 -1.1907 -0.9613  0.1767
19461TIP3   OH279873   1.381   0.399   0.773 -0.2156  0.1242  0.3215
19461TIP3    H179874   1.474   0.410   0.754 -0.1991 -0.7612 -0.1428
19461TIP3    H279875   1.373   0.423   0.866  0.7802 -1.3420  0.8266
19462TIP3   OH279876   2.276   2.994  16.864 -0.4388 -0.8657  0.1012
19462TIP3    H179877   2.189   3.027  16.889 -0.2208 -1.1005  1.1930
19462TIP3    H279878   2.322   3.071  16.830 -0.2255 -0.1982  1.8446
19463TIP3   OH279879   2.157   0.212   2.463 -0.0293  0.0916  0.5022
19463TIP3    H179880   2.102   0.287   2.486 -1.2196 -0.4884 -0.4018
19463TIP3    H279881   2.203   0.239   2.384  2.0161  1.0498  1.9114
19464TIP3   OH279882   4.035   4.947  12.550  0.0238  0.3541 -0.4111
19464TIP3    H179883   4.129   4.959  12.545  0.1359 -0.4361 -0.3280
19464TIP3    H279884   4.012   4.974  12.639  0.5929 -2.0043  0.5327
19465TIP3   OH279885   2.082   3.445  13.720 -0.0135  0.7409 -0.2488
19465TIP3    H179886   2.158   3.498  13.697 -0.0233  1.0566  0.4094
19465TIP3    H279887   2.007   3.494  13.687  0.0518  0.5692 -0.6517
19466TIP3   OH279888   3.911   5.693  14.940 -0.0292 -0.3269 -0.1623
19466TIP3    H179889   3.942   5.633  14.873  1.8614  1.0498 -0.5945
19466TIP3    H279890   3.902   5.777  14.896 -0.3965  0.2392  0.9326
19467TIP3   OH279891   0.493   0.531  16.641  0.4566  0.1343 -0.1570
19467TIP3    H179892   0.587   0.540  16.624  0.7388 -1.0533  0.6566
19467TIP3    H279893   0.453   0.541  16.555  1.4987 -1.3302 -0.8557
19468TIP3   OH279894   5.192   0.298  13.412  0.2442 -0.7289 -1.0877
19468TIP3    H179895   5.137   0.369  13.445 -0.8061 -2.4694  1.1429
19468TIP3    H279896   5.145   0.267  13.334 -1.0866 -1.0648 -0.1995
19469TIP3   OH279897   5.771   2.270  13.676  0.7198 -0.5274  0.6699
19469TIP3    H179898   5.825   2.237  13.605  0.9751  0.4186  0.4082
19469TIP3    H279899   5.682   2.241  13.654  0.6103  0.6550 -0.6408
19470TIP3   OH279900   3.139   1.429   5.454 -0.7672  0.1602  0.3160
19470TIP3    H179901   3.119   1.349   5.405 -0.0975 -0.6537  1.3195
19470TIP3    H279902   3.233   1.425   5.468 -0.5611  1.6637 -0.4945
19471TIP3   OH279903   1.893   6.185   1.854  0.9190 -0.0422 -0.4536
19471TIP3    H179904   1.870   6.258   1.911  3.8232 -0.7703  1.8634
19471TIP3    H279905   1.851   6.109   1.894  1.1516 -0.2238 -0.5515
19472TIP3   OH279906   5.372   5.486  14.546 -0.1809 -0.7654  0.4221
19472TIP3    H179907   5.284   5.482  14.508 -0.6202  2.2930  0.8943
19472TIP3    H279908   5.359   5.519  14.635  1.4248 -0.7514  0.6926
19473TIP3   OH279909   0.382   1.721   0.773 -0.3917  0.0445  0.5352
19473TIP3    H179910   0.388   1.734   0.867 -0.6055 -2.5916  0.9906
19473TIP3    H279911   0.299   1.763   0.748 -0.7872 -0.0343  1.6761
19474TIP3   OH279912   6.237   3.668  15.867 -0.1157  0.8395  0.2729
19474TIP3    H179913   6.309   3.715  15.907  1.1214 -0.2107 -0.6484
19474TIP3    H279914   6.242   3.691  15.774  0.8249 -1.4434 -0.2827
19475TIP3   OH279915   6.674   5.389   2.237 -0.8312  0.1449  0.5932
19475TIP3    H179916   6.718   5.470   2.265 -0.6828 -0.3897  2.0106
19475TIP3    H279917   6.612   5.371   2.308 -1.0629 -0.8262  0.1492
19476TIP3   OH279918   5.386   5.040  13.737  0.0258 -0.9547  0.3475
19476TIP3    H179919   5.425   4.990  13.665 -0.5894  2.0414 -2.3097
19476TIP3    H279920   5.306   4.993  13.759  0.4985 -2.2309 -0.5515
19477TIP3   OH279921   3.261   1.888  11.623 -0.1580 -0.1295 -0.3425
19477TIP3    H179922   3.212   1.904  11.542  0.8504  0.5049 -0.8515
19477TIP3    H279923   3.202   1.835  11.677 -0.3819 -1.6690 -1.9946
19478TIP3   OH279924   2.441   5.014   1.954  0.2148 -0.6763  0.5265
19478TIP3    H179925   2.501   4.974   2.017  0.1972 -0.7244  0.5129
19478TIP3    H279926   2.457   4.967   1.872  0.6394 -0.2287  0.3491
19479TIP3   OH279927   4.868   2.072  16.193 -0.0763  0.4158  0.1073
19479TIP3    H179928   4.953   2.049  16.155  0.3440 -1.8526  2.1771
19479TIP3    H279929   4.889   2.101  16.282 -1.4341  0.0469  0.5663
19480TIP3   OH279930   6.088   3.478  12.609 -0.5735  0.3925  0.7863
19480TIP3    H179931   6.175   3.489  12.571 -0.6049  1.6098  1.0223
19480TIP3    H279932   6.090   3.529  12.690 -0.9806 -0.9603  1.6821
19481TIP3   OH279933   4.266   4.775  14.743 -0.3406  0.1523 -0.2997
19481TIP3    H179934   4.191   4.803  14.795 -0.6476 -0.2453 -0.5224
19481TIP3    H279935   4.228   4.738  14.663  0.1023  0.2038 -0.5404
19482TIP3   OH279936   1.560   1.878  14.031  0.9773 -0.4165 -0.0413
19482TIP3    H179937   1.585   1.806  13.972  2.4894 -0.4524  0.5879
19482TIP3    H279938   1.629   1.943  14.018  1.0390 -0.1980  1.2744
19483TIP3   OH279939   1.032   0.373   0.920 -0.2387 -0.1522  0.1215
19483TIP3    H179940   0.947   0.334   0.939 -0.3887 -0.4530 -1.0983
19483TIP3    H279941   1.060   0.332   0.838  1.6015 -0.9037  1.0639
19484TIP3   OH279942   6.304   3.291   1.556  0.0971 -0.5657 -0.2109
19484TIP3    H179943   6.336   3.377   1.580  0.0205 -0.6080  0.0400
19484TIP3    H279944   6.383   3.238   1.544  0.1715 -0.2715 -1.0856
19485TIP3   OH279945   6.662   4.609   0.650  0.6509 -0.1161  0.3733
19485TIP3    H179946   6.577   4.568   0.670  1.2365 -1.3560  0.3429
19485TIP3    H279947   6.688   4.649   0.733  0.6367 -0.8462  0.7388
19486TIP3   OH279948   0.834   5.504  15.734 -0.0679  0.5307 -0.7644
19486TIP3    H179949   0.921   5.475  15.763  0.0602  1.4841 -0.1466
19486TIP3    H279950   0.817   5.453  15.656 -0.2261 -1.8256  0.7030
19487TIP3   OH279951   3.252   3.062  11.583  0.5041 -0.1382 -0.2015
19487TIP3    H179952   3.250   3.130  11.650 -0.6359 -0.2061 -0.1616
19487TIP3    H279953   3.256   3.111  11.500 -0.7057 -0.0014 -0.1906
19488TIP3   OH279954   0.992   3.304  11.029 -0.1688 -0.1974  0.4842
19488TIP3    H179955   0.911   3.277  10.985 -0.5582  2.2018 -0.4418
19488TIP3    H279956   1.048   3.334  10.958  1.0625 -0.6226  1.2480
19489TIP3   OH279957   2.836   5.644   4.833  0.0369  0.0074  0.3753
19489TIP3    H179958   2.781   5.701   4.886  1.2312  0.2347  1.4041
19489TIP3    H279959   2.919   5.690   4.827  0.3656 -0.6809 -0.5216
19490TIP3   OH279960   5.837   2.386  15.094  0.4522 -0.1475 -0.1510
19490TIP3    H179961   5.743   2.372  15.101  0.3792  0.2989 -0.1872
19490TIP3    H279962   5.855   2.457  15.156  0.8365 -0.5368  0.1862
19491TIP3   OH279963   3.212   3.807  16.983 -0.0988 -0.3006 -0.2920
19491TIP3    H179964   3.225   3.896  17.016  0.5070 -0.4059 -0.2352
19491TIP3    H279965   3.208   3.752  17.061  2.3020 -0.6788 -0.3786
19492TIP3   OH279966   2.368   6.614   2.159 -0.0763 -0.2831  0.0089
19492TIP3    H179967   2.448   6.601   2.210  0.6953  0.4276 -0.9915
19492TIP3    H279968   2.390   6.584   2.071 -1.4372 -1.6390  0.0923
19493TIP3   OH279969   5.652   1.338   5.417  0.0872  0.1379  0.0850
19493TIP3    H179970   5.637   1.429   5.443  0.0699  0.9172 -2.4061
19493TIP3    H279971   5.584   1.288   5.461 -1.8103  1.7821 -0.8586
19494TIP3   OH279972   2.499   2.779  15.898 -0.0810  0.0227  0.1768
19494TIP3    H179973   2.583   2.807  15.862 -0.7494 -0.0470 -1.5331
19494TIP3    H279974   2.482   2.840  15.969  1.2111  0.2966  0.2740
19495TIP3   OH279975   6.776   1.004   4.153 -0.2629 -0.3574 -0.0043
19495TIP3    H179976   6.684   0.977   4.150 -0.2631 -0.2992 -1.0104
19495TIP3    H279977   6.806   0.996   4.062  0.0112  2.0087 -0.1958
19496TIP3   OH279978   3.522   6.744  17.073  0.0471 -0.0418 -0.0459
19496TIP3    H179979   3.485   6.758  16.985 -0.3128  0.4135  0.1686
19496TIP3    H279980   3.594   6.683  17.059 -0.9105 -1.1347 -0.4662
19497TIP3   OH279981   6.583   2.824   6.324 -0.3505  0.5936  0.1214
19497TIP3    H179982   6.613   2.738   6.355  1.0460  1.5591  1.5732
19497TIP3    H279983   6.576   2.814   6.229 -0.2295 -1.1140  0.2531
19498TIP3   OH279984   0.347   3.001  16.522  0.1987  0.2160 -0.6341
19498TIP3    H179985   0.338   3.038  16.434  1.4690 -1.8109 -1.6879
19498TIP3    H279986   0.412   3.056  16.565 -0.3380  1.1443 -0.9649
19499TIP3   OH279987   0.595   1.034  15.823  0.3486 -0.1456 -0.0311
19499TIP3    H179988   0.613   0.960  15.764 -0.1134 -1.1200  1.0172
19499TIP3    H279989   0.640   1.013  15.904 -1.3544 -0.2333  0.9396
19500TIP3   OH279990   1.652   4.554   0.281  0.2263 -0.6674 -0.1114
19500TIP3    H179991   1.614   4.642   0.283  1.2532 -0.2185  0.1461
19500TIP3    H279992   1.741   4.567   0.249  0.1010 -1.7333 -0.9393
19501TIP3   OH279993   4.246   0.071   1.360  0.0573 -0.5526 -0.1215
19501TIP3    H179994   4.188   0.146   1.350 -0.3280 -1.0251 -1.6598
19501TIP3    H279995   4.326   0.108   1.398 -0.5766  0.4128  0.3113
19502TIP3   OH279996   2.936   6.347  17.237 -0.2140  0.2290 -0.4153
19502TIP3    H179997   2.907   6.282  17.301  0.7844  0.8491  0.7139
19502TIP3    H279998   2.857   6.395  17.214 -0.5974 -0.0370  0.3172
19503TIP3   OH279999   2.316   5.003  15.906  0.9192 -0.1331  0.3096
19503TIP3    H180000   2.373   5.078  15.921  1.5233 -0.7874  1.4063
19503TIP3    H280001   2.244   5.037  15.853  1.3727  1.1217  0.4769
19504TIP3   OH280002   5.790   2.205  13.391 -0.3296 -0.6898 -0.1613
19504TIP3    H180003   5.771   2.115  13.365  1.4295 -0.4600 -2.6188
19504TIP3    H280004   5.771   2.257  13.314  1.3632  0.6393  0.2456
19505TIP3   OH280005   0.458   2.748   2.595  0.0628  0.4239 -0.1092
19505TIP3    H180006   0.479   2.840   2.612 -0.5023  0.3588  1.0428
19505TIP3    H280007   0.542   2.708   2.571  0.4189  1.1049 -0.0235
19506TIP3   OH280008   5.098   6.642  13.996 -0.0411  0.2147  0.0287
19506TIP3    H180009   5.027   6.707  14.000  0.2758  0.6438 -0.9219
19506TIP3    H280010   5.119   6.624  14.088 -0.1434  1.4582  0.3162
19507TIP3   OH280011   1.175   2.558   3.505 -0.2506 -0.7238  0.5306
19507TIP3    H180012   1.243   2.512   3.554 -0.7109 -0.6646  1.2317
19507TIP3    H280013   1.116   2.593   3.572 -1.5089 -1.5884 -0.0849
19508TIP3   OH280014   3.708   3.819   3.045  0.0762  0.0920 -0.5372
19508TIP3    H180015   3.664   3.886   2.993  0.8810  1.3438  0.3478
19508TIP3    H280016   3.751   3.867   3.116  0.3897 -1.3954  0.3352
19509TIP3   OH280017   4.243   4.951   1.343  0.7279  0.5755  0.0391
19509TIP3    H180018   4.302   5.017   1.379  0.0793  1.3122 -0.2218
19509TIP3    H280019   4.281   4.868   1.370  1.2098  1.0692  0.9214
19510TIP3   OH280020   0.877   4.960   0.274 -0.5754  0.1966  0.5012
19510TIP3    H180021   0.905   4.903   0.346  0.4812  2.1888  1.7454
19510TIP3    H280022   0.828   5.030   0.317  0.0709  1.4300 -0.6934
19511TIP3   OH280023   5.696   5.342   4.042  0.5930  0.9025 -0.2599
19511TIP3    H180024   5.746   5.315   4.119 -0.9931  1.1895  0.9166
19511TIP3    H280025   5.741   5.420   4.010  1.6829  0.3678 -0.0698
19512TIP3   OH280026   2.983   3.151   3.180 -0.1809  0.3032 -0.0601
19512TIP3    H180027   2.928   3.143   3.257 -0.3292 -0.2862 -0.2241
19512TIP3    H280028   3.055   3.090   3.195  0.8630  1.6428  0.5110
19513TIP3   OH280029   2.198   5.188   2.870 -0.1070 -0.0819 -0.1834
19513TIP3    H180030   2.212   5.125   2.800  2.5688 -0.2478  0.3638
19513TIP3    H280031   2.237   5.269   2.837 -0.6528  0.4033  0.3458
19514TIP3   OH280032   5.982   4.122   2.622  0.4154 -0.5550 -0.0111
19514TIP3    H180033   5.914   4.072   2.669  0.9597 -2.9771 -1.6171
19514TIP3    H280034   6.060   4.113   2.677  0.6090 -1.8701 -0.4785
19515TIP3   OH280035   1.565   5.944  12.339  0.7533  0.1692 -0.4242
19515TIP3    H180036   1.491   5.935  12.399  0.6088 -0.8739 -0.7302
19515TIP3    H280037   1.606   5.857  12.339 -0.2237 -0.3767 -3.0499
19516TIP3   OH280038   0.785   1.761  16.824  0.1491 -0.7034  0.2493
19516TIP3    H180039   0.827   1.810  16.894 -0.1877  0.5002 -0.3682
19516TIP3    H280040   0.820   1.672  16.832  1.8188 -0.0505  0.5414
19517TIP3   OH280041   1.847   4.854   3.415  0.1305  0.2829  0.1174
19517TIP3    H180042   1.832   4.800   3.493  1.9764 -0.7265 -0.1601
19517TIP3    H280043   1.830   4.944   3.444 -1.5939 -0.2767  0.9883
19518TIP3   OH280044   0.622   3.924   0.619  0.0222  0.3541  0.0642
19518TIP3    H180045   0.536   3.886   0.636  0.5140 -1.5116 -1.3548
19518TIP3    H280046   0.661   3.867   0.553  1.2203  2.7951 -1.4912
19519TIP3   OH280047   0.698   4.687   0.292 -0.1895 -0.6435 -0.6001
19519TIP3    H180048   0.747   4.702   0.212  1.4056  1.3400  0.6534
19519TIP3    H280049   0.748   4.620   0.339  1.8753  1.8280  0.9674
19520TIP3   OH280050   4.645   5.772   0.547 -0.3056 -0.0590 -0.0055
19520TIP3    H180051   4.566   5.721   0.527 -0.2935  0.8744 -2.9348
19520TIP3    H280052   4.613   5.861   0.564  0.0384  0.1278 -0.3137
19521TIP3   OH280053   4.382   4.686   4.494 -0.1062  0.3414 -0.6153
19521TIP3    H180054   4.408   4.764   4.544 -0.7755  0.2791 -0.1469
19521TIP3    H280055   4.429   4.694   4.411  0.8251  0.5831 -0.0795
19522TIP3   OH280056   5.486   2.984  11.654  0.3141  0.1784 -0.2975
19522TIP3    H180057   5.448   3.004  11.569 -0.1217 -0.6940 -0.3172
19522TIP3    H280058   5.577   2.959  11.635 -0.6576 -3.4834 -1.0084
19523TIP3   OH280059   6.002   5.656  16.288 -0.4271 -0.5138  0.1241
19523TIP3    H180060   6.084   5.679  16.331  0.3275 -2.2397 -0.3262
19523TIP3    H280061   5.958   5.598  16.350 -0.7220 -0.6066 -0.1707
19524TIP3   OH280062   4.721   0.854  12.139  0.6813  0.5635  0.1469
19524TIP3    H180063   4.756   0.846  12.227 -0.1798 -0.0716  0.4438
19524TIP3    H280064   4.747   0.942  12.110  1.3124  0.6196  0.8712
19525TIP3   OH280065   2.161   4.637  13.608 -0.4568  0.4120 -0.5749
19525TIP3    H180066   2.239   4.669  13.561 -0.3587  0.1961 -0.5571
19525TIP3    H280067   2.095   4.627  13.540  0.2057 -1.6417 -0.9840
19526TIP3   OH280068   3.109   3.705  13.649 -0.1387  0.2150 -0.0204
19526TIP3    H180069   3.157   3.771  13.701 -1.6111  1.3086  0.0004
19526TIP3    H280070   3.162   3.626  13.658  0.7909  0.9336  1.3860
19527TIP3   OH280071   5.726   5.561  13.975  0.0891  0.0333  0.1232
19527TIP3    H180072   5.651   5.561  13.916 -1.3196 -0.8855  1.8298
19527TIP3    H280073   5.795   5.517  13.926 -1.0503 -0.7297 -0.8403
19528TIP3   OH280074   6.603   1.298   5.877  0.1357 -0.4092 -0.9708
19528TIP3    H180075   6.582   1.276   5.786 -4.3134 -0.6039 -0.1193
19528TIP3    H280076   6.584   1.218   5.926 -1.8031  0.8691  0.5262
19529TIP3   OH280077   1.694   1.618   5.440  0.2091  0.1791  0.0496
19529TIP3    H180078   1.694   1.523   5.452 -0.8269  0.1697  0.1487
19529TIP3    H280079   1.631   1.633   5.369  0.2718  0.7940  0.1188
19530TIP3   OH280080   2.126   3.927   5.802  0.2939  0.0911 -0.6661
19530TIP3    H180081   2.137   4.016   5.836 -0.8097  1.2718 -3.0951
19530TIP3    H280082   2.059   3.936   5.734  0.5010 -2.5348 -1.3145
19531TIP3   OH280083   0.565   3.467   3.785 -0.5401 -0.1243  0.1013
19531TIP3    H180084   0.525   3.393   3.831  0.4620  0.4371  1.9721
19531TIP3    H280085   0.515   3.543   3.814 -1.8922 -0.0461 -2.2067
19532TIP3   OH280086   1.145   4.921  15.576 -0.7407  0.6256  0.1820
19532TIP3    H180087   1.184   4.841  15.611  1.5158  1.8926  0.7674
19532TIP3    H280088   1.172   4.923  15.485 -0.2526  1.0309  0.3337
19533TIP3   OH280089   1.305   4.101   4.523 -0.2182 -0.1031 -0.0630
19533TIP3    H180090   1.323   4.169   4.589 -0.7311  0.1528 -0.1798
19533TIP3    H280091   1.310   4.147   4.440 -0.3813 -0.2533 -0.1554
19534TIP3   OH280092   0.501   2.597   4.769  0.3141  0.5469 -0.0723
19534TIP3    H180093   0.459   2.627   4.688  1.0353 -1.2069 -1.1529
19534TIP3    H280094   0.434   2.608   4.837 -0.4654  1.6188 -0.9857
19535TIP3   OH280095   3.760   1.432   2.717  0.6387 -0.3821 -0.1928
19535TIP3    H180096   3.669   1.459   2.724  0.6669 -0.2754 -0.2318
19535TIP3    H280097   3.759   1.337   2.730  0.4419 -0.4810 -0.8907
19536TIP3   OH280098   2.583   6.260   0.830 -0.7274  0.2041 -0.0887
19536TIP3    H180099   2.582   6.249   0.735  1.2500 -3.9923  0.1162
19536TIP3    H280100   2.667   6.303   0.848 -1.1809  1.1578 -0.2265
19537TIP3   OH280101   5.918   0.825   2.619  0.5046 -0.5155 -0.0428
19537TIP3    H180102   5.979   0.880   2.667  1.1359 -0.1774 -1.1996
19537TIP3    H280103   5.831   0.855   2.648  0.8598  0.0235  0.4897
19538TIP3   OH280104   0.674   4.267   1.419 -0.4463 -0.1482 -0.3376
19538TIP3    H180105   0.659   4.214   1.497  0.6127 -0.3315 -0.2418
19538TIP3    H280106   0.613   4.232   1.354  0.2117 -1.5013 -0.2657
19539TIP3   OH280107   0.709   5.260  14.889  0.3228  0.0314  0.2882
19539TIP3    H180108   0.650   5.303  14.827 -1.5715  0.2781  2.1499
19539TIP3    H280109   0.694   5.166  14.876 -1.4096  0.0974  1.5020
19540TIP3   OH280110   3.721   6.758  13.832  0.7273 -0.0422 -0.3956
19540TIP3    H180111   3.714   6.847  13.797 -3.5976  0.1184  0.3797
19540TIP3    H280112   3.736   6.703  13.755  1.3235  1.1417 -1.1524
19541TIP3   OH280113   1.453   2.961  15.063  0.5482  0.2067 -0.1132
19541TIP3    H180114   1.467   3.045  15.107  0.9554  0.5250 -0.8325
19541TIP3    H280115   1.363   2.965  15.031  1.0910  1.0947 -1.6309
19542TIP3   OH280116   1.528   4.295  12.014  0.2388 -0.3495 -0.3907
19542TIP3    H180117   1.523   4.390  12.025 -2.1847 -0.4932  0.2909
19542TIP3    H280118   1.457   4.273  11.953  0.6782 -1.7344 -0.4535
19543TIP3   OH280119   0.497   5.285   4.409  0.1255  0.4323 -0.2176
19543TIP3    H180120   0.530   5.333   4.484  0.6254 -0.3614  0.0887
19543TIP3    H280121   0.543   5.201   4.412  1.3567  0.9662 -2.3156
19544TIP3   OH280122   5.321   5.020   0.985 -0.5518 -0.2160 -0.1662
19544TIP3    H180123   5.335   5.008   0.891 -1.2521  1.7120 -0.5699
19544TIP3    H280124   5.260   4.950   1.009  3.0935 -3.6828 -0.0561
19545TIP3   OH280125   2.518   4.475  15.198  0.0986  0.0265 -0.3602
19545TIP3    H180126   2.434   4.429  15.195  0.6961 -1.3758  1.8392
19545TIP3    H280127   2.559   4.455  15.114 -1.3368 -0.0687 -1.0728
19546TIP3   OH280128   2.297   1.240   4.760 -0.2309  0.0021 -0.1819
19546TIP3    H180129   2.256   1.154   4.756  0.2573 -0.2011 -1.0294
19546TIP3    H280130   2.252   1.291   4.693 -0.2135  0.2774  0.0145
19547TIP3   OH280131   6.418   4.835  12.869 -0.0254  0.3343 -0.3395
19547TIP3    H180132   6.391   4.890  12.943 -1.5789  1.6186 -1.7453
19547TIP3    H280133   6.448   4.898  12.803 -0.1624 -0.6369 -1.3522
19548TIP3   OH280134   5.318   0.786   4.366  0.0317  0.4390 -0.5657
19548TIP3    H180135   5.295   0.829   4.448 -1.2412 -0.1431 -0.5914
19548TIP3    H280136   5.269   0.835   4.299  0.8326  0.7323 -0.9461
19549TIP3   OH280137   1.515   6.529  15.880 -0.4441 -0.3077  0.0454
19549TIP3    H180138   1.436   6.558  15.925  1.1199  1.7411  1.7335
19549TIP3    H280139   1.559   6.610  15.853  0.4871 -1.4084 -2.0073
19550TIP3   OH280140   3.839   0.870   5.125  0.3809 -0.5246 -1.1113
19550TIP3    H180141   3.889   0.884   5.206 -0.0255  1.0489 -1.1040
19550TIP3    H280142   3.805   0.781   5.133 -0.3096 -0.1355  0.8211
19551TIP3   OH280143   6.378   2.141  11.902  0.3994 -0.4336 -0.0644
19551TIP3    H180144   6.319   2.175  11.969 -0.0963 -1.4665  0.0403
19551TIP3    H280145   6.330   2.070  11.861  0.9253 -0.1861 -1.1356
19552TIP3   OH280146   5.421   3.061   4.870 -0.3763  0.0065 -0.2959
19552TIP3    H180147   5.400   3.150   4.840 -1.4438 -0.3216 -0.5657
19552TIP3    H280148   5.488   3.031   4.809  0.2110  0.7339 -0.0192
19553TIP3   OH280149   1.069   0.997   3.940  0.2088 -0.6242  0.3811
19553TIP3    H180150   1.103   1.074   3.893 -0.2110  0.4784  1.8061
19553TIP3    H280151   1.050   1.030   4.028 -0.9254 -2.1377  0.7321
19554TIP3   OH280152   4.379   0.427  13.399  0.0348 -0.1698 -0.5559
19554TIP3    H180153   4.320   0.444  13.473  1.4108 -0.2273  0.6007
19554TIP3    H280154   4.364   0.335  13.377  0.9703 -0.7184  0.9537
19555TIP3   OH280155   3.498   0.657   6.197 -0.7510  0.1753 -0.1708
19555TIP3    H180156   3.442   0.641   6.273 -0.0238  0.5349  0.4568
19555TIP3    H280157   3.471   0.742   6.165 -0.2383  0.5809  0.4413
19556TIP3   OH280158   0.607   4.053   4.174 -0.0741 -0.2069 -0.6116
19556TIP3    H180159   0.619   3.963   4.204  0.4015  0.0534  0.0018
19556TIP3    H280160   0.688   4.075   4.129 -0.5366 -0.3772 -1.5559
19557TIP3   OH280161   3.378   3.664  13.784 -0.0534  0.3468  0.0490
19557TIP3    H180162   3.424   3.583  13.761  1.3326  0.9896  0.4647
19557TIP3    H280163   3.309   3.635  13.845  0.1550 -0.5653 -0.1259
19558TIP3   OH280164   0.995   5.255  12.103  0.3938  0.0142  0.3790
19558TIP3    H180165   0.955   5.296  12.180 -2.2678 -0.2044 -0.8059
19558TIP3    H280166   1.087   5.282  12.108 -0.4031  2.9273  1.7297
19559TIP3   OH280167   5.888   1.344  13.806 -0.2318  0.4730  0.1116
19559TIP3    H180168   5.925   1.341  13.717  0.2023  1.9632  0.2124
19559TIP3    H280169   5.963   1.326  13.863 -0.3690  0.1824  0.1985
19560TIP3   OH280170   0.628   5.624   4.904  0.4476  0.0462 -0.0727
19560TIP3    H180171   0.696   5.680   4.868  0.6398 -0.1789 -0.0684
19560TIP3    H280172   0.586   5.585   4.828 -0.1929  0.7739 -0.1031
19561TIP3   OH280173   6.457   6.563  13.073  0.0469  0.5875  0.0851
19561TIP3    H180174   6.464   6.504  12.998  3.2375  0.3122  0.4349
19561TIP3    H280175   6.494   6.646  13.041 -1.5691  1.4967  0.4731
19562TIP3   OH280176   0.474   6.200  14.710  0.1235  0.1750 -1.1671
19562TIP3    H180177   0.403   6.186  14.647  1.3054  0.6043 -2.6596
19562TIP3    H280178   0.504   6.289  14.693  1.1709 -0.0790 -0.7469
19563TIP3   OH280179   6.143   5.678   1.800 -0.0207 -0.3652  0.1785
19563TIP3    H180180   6.180   5.699   1.714 -1.0210 -1.6109 -0.5920
19563TIP3    H280181   6.210   5.707   1.863 -0.4185  3.2013 -0.8089
19564TIP3   OH280182   6.434   4.085   3.460 -0.2208 -0.4447 -0.7610
19564TIP3    H180183   6.398   4.049   3.541 -0.3407  0.7938 -0.2460
19564TIP3    H280184   6.475   4.010   3.417  1.2542 -0.8513  1.2131
19565TIP3   OH280185   1.378   0.526  15.551  0.1943 -0.0306  0.4016
19565TIP3    H180186   1.401   0.543  15.642 -0.8109  0.3338  0.6071
19565TIP3    H280187   1.457   0.490  15.512  0.2025 -1.6712  1.8033
19566TIP3   OH280188   3.558   5.793   4.679  0.4451  0.6039 -0.4891
19566TIP3    H180189   3.474   5.747   4.677  0.7546  0.0453 -0.6215
19566TIP3    H280190   3.534   5.885   4.669 -0.3833  0.7585  2.1816
19567TIP3   OH280191   5.151   5.583   0.745  0.4054  0.3716  0.7335
19567TIP3    H180192   5.063   5.614   0.766 -0.3426 -0.2105 -1.3494
19567TIP3    H280193   5.139   5.524   0.671  2.5873  0.4370  0.2547
19568TIP3   OH280194   2.407   3.311  11.905 -0.0827 -0.1744 -0.7044
19568TIP3    H180195   2.384   3.219  11.916 -0.7352  0.1684  1.0651
19568TIP3    H280196   2.480   3.325  11.966 -2.0879  1.1845  1.5708
19569TIP3   OH280197   0.888   5.213   4.393 -0.6904  0.0805  0.0432
19569TIP3    H180198   0.813   5.175   4.348 -1.6667  1.9192  0.0305
19569TIP3    H280199   0.891   5.304   4.363  2.9304 -0.4251 -1.6932
19570TIP3   OH280200   2.912   6.457  13.845 -0.4423 -0.3673  0.9911
19570TIP3    H180201   2.996   6.424  13.815 -0.5216 -0.0395  0.3750
19570TIP3    H280202   2.933   6.514  13.919  0.0265  0.7753  0.0052
19571TIP3   OH280203   0.438   2.741   1.344 -0.0617 -0.9920 -0.9700
19571TIP3    H180204   0.416   2.832   1.327 -0.2307 -0.9323 -0.4575
19571TIP3    H280205   0.401   2.692   1.270  0.7698 -0.5605 -1.6877
19572TIP3   OH280206   0.267   0.712   4.969 -0.3124  0.0443  0.4497
19572TIP3    H180207   0.320   0.791   4.957 -1.2656  0.3234 -2.8828
19572TIP3    H280208   0.191   0.742   5.019 -0.1703  0.9881  0.1132
19573TIP3   OH280209   4.558   0.982  14.215  0.3342 -0.1086 -0.1263
19573TIP3    H180210   4.607   0.916  14.166 -1.0211 -0.5704 -0.9084
19573TIP3    H280211   4.493   1.014  14.153  1.1987  2.3062  0.0835
19574TIP3   OH280212   0.352   2.300   2.690  0.6296  0.0713 -0.1540
19574TIP3    H180213   0.350   2.351   2.770 -0.4350  0.5074 -0.4481
19574TIP3    H280214   0.443   2.306   2.660  0.9313  0.2692  0.7747
19575TIP3   OH280215   2.189   3.712   1.190  0.1919 -0.7160 -0.7716
19575TIP3    H180216   2.102   3.751   1.181  0.0124 -0.7770  0.5278
19575TIP3    H280217   2.247   3.772   1.142 -0.1963  0.7352  0.4957
19576TIP3   OH280218   5.943   0.444   2.607 -0.5059 -0.6197 -0.2605
19576TIP3    H180219   5.860   0.491   2.596 -1.1267 -1.9267 -1.4263
19576TIP3    H280220   5.997   0.475   2.534  0.0139  0.1616  0.4455
19577TIP3   OH280221   2.243   4.252   5.106  0.1813  0.2680 -0.0184
19577TIP3    H180222   2.221   4.233   5.014 -0.6123  1.2539 -0.0386
19577TIP3    H280223   2.163   4.286   5.144  0.6701  0.4280  0.8970
19578TIP3   OH280224   0.759   1.217  10.671 -0.3831 -0.2715 -0.1658
19578TIP3    H180225   0.726   1.135  10.633 -3.0708  0.9215 -0.6801
19578TIP3    H280226   0.683   1.255  10.715  1.1123  1.3507  1.1629
19579TIP3   OH280227   3.209   4.934  12.818 -0.4165 -0.1547  0.0272
19579TIP3    H180228   3.291   4.912  12.774 -1.9243 -1.3424 -2.3801
19579TIP3    H280229   3.186   5.021  12.785  0.8932  1.1947  2.4182
19580TIP3   OH280230   5.449   2.700   3.870  0.0018 -0.0896  0.1150
19580TIP3    H180231   5.442   2.605   3.862  1.2820 -0.2526  0.7299
19580TIP3    H280232   5.466   2.730   3.781  1.6750 -0.6648  0.2040
19581TIP3   OH280233   2.490   5.173   1.617  0.2470 -0.7509  0.3469
19581TIP3    H180234   2.553   5.101   1.610  1.2718  0.2383 -1.0541
19581TIP3    H280235   2.493   5.216   1.532  2.0214  2.8327  2.0174
19582TIP3   OH280236   2.367   3.454  12.457  0.0046 -0.1012 -0.1560
19582TIP3    H180237   2.338   3.543  12.479  3.5951  1.1796  0.0138
19582TIP3    H280238   2.380   3.411  12.542  2.0580  0.6564 -0.0268
19583TIP3   OH280239   0.424   4.160   0.009  0.0937 -0.6102 -0.1964
19583TIP3    H180240   0.520   4.160   0.014  0.0758 -2.5064  1.3132
19583TIP3    H280241   0.403   4.087  -0.049 -0.4629 -0.1562 -0.5838
19584TIP3   OH280242   3.847   6.549  14.839  0.3717 -0.3163 -0.4821
19584TIP3    H180243   3.851   6.644  14.841  0.6944 -0.3365 -0.1403
19584TIP3    H280244   3.819   6.528  14.750 -1.3194  0.1496 -0.0985
19585TIP3   OH280245   1.333   4.300   4.322 -0.3149  0.3171  0.2073
19585TIP3    H180246   1.378   4.305   4.238 -0.3856  0.2849  0.1681
19585TIP3    H280247   1.302   4.389   4.338  0.7221  0.6003  0.7607
19586TIP3   OH280248   2.625   1.873  11.570  0.0185  0.2979  0.0860
19586TIP3    H180249   2.672   1.815  11.629 -0.1011 -0.8984 -0.9634
19586TIP3    H280250   2.662   1.856  11.484 -0.2047  1.5973 -0.3010
19587TIP3   OH280251   1.387   2.442  11.200  0.1612 -0.0626  0.3236
19587TIP3    H180252   1.308   2.459  11.148  0.2414  0.2354  0.3004
19587TIP3    H280253   1.458   2.437  11.136 -0.0454 -1.8169  0.1795
19588TIP3   OH280254   4.849   3.595   1.168 -0.1249 -0.2064  0.1097
19588TIP3    H180255   4.827   3.563   1.081  0.5228 -0.8750  0.1766
19588TIP3    H280256   4.905   3.671   1.153 -0.1852 -0.1971 -0.0642
19589TIP3   OH280257   4.693   5.841   4.530 -0.1795  0.3124  0.4983
19589TIP3    H180258   4.625   5.788   4.489 -0.1274  0.4781  0.1930
19589TIP3    H280259   4.645   5.909   4.578 -0.2364  0.2588  0.5161
19590TIP3   OH280260   4.259   4.959  11.332 -0.1373  0.2614  0.1600
19590TIP3    H180261   4.319   5.031  11.314  0.9889 -0.8554 -0.7092
19590TIP3    H280262   4.279   4.893  11.266 -2.0373 -0.3433  0.1102
19591TIP3   OH280263   1.836   0.573   0.022  0.1042  0.4544  0.0565
19591TIP3    H180264   1.911   0.608   0.072  1.0079  1.6718 -2.0240
19591TIP3    H280265   1.794   0.651  -0.015 -1.5754 -0.3042  0.2768
19592TIP3   OH280266   3.940   0.188   2.611 -0.3692 -0.3159 -0.3710
19592TIP3    H180267   4.031   0.195   2.582 -0.1452 -0.0880  0.3511
19592TIP3    H280268   3.927   0.264   2.669 -1.1331 -0.1387 -0.7632
19593TIP3   OH280269   2.756   3.584   2.829  0.7028  0.0026 -0.1711
19593TIP3    H180270   2.775   3.637   2.752  2.3300 -0.0896  0.1337
19593TIP3    H280271   2.773   3.494   2.801  2.3137  0.0492  0.5437
19594TIP3   OH280272   3.802   4.048   0.897 -0.2165  0.4419  0.3419
19594TIP3    H180273   3.787   3.960   0.862 -0.6803  0.7425 -0.2283
19594TIP3    H280274   3.733   4.101   0.858  0.3192  1.1524  0.3550
19595TIP3   OH280275   3.947   5.036  12.829 -0.2473 -0.0313  0.0951
19595TIP3    H180276   3.999   5.109  12.865  0.1230 -0.2931  0.0935
19595TIP3    H280277   3.929   4.981  12.905 -0.3830 -0.0255  0.0665
19596TIP3   OH280278   4.195   1.928  14.045  0.3945 -0.2721 -0.1341
19596TIP3    H180279   4.174   2.007  14.094  0.7172  0.5202 -1.2477
19596TIP3    H280280   4.135   1.862  14.079  0.0245  0.4822  0.7103
19597TIP3   OH280281   1.911   5.230   4.043 -0.9693  0.6764 -0.1642
19597TIP3    H180282   1.948   5.298   3.986 -0.0735 -0.5456 -1.0665
19597TIP3    H280283   1.968   5.154   4.031 -1.1677  0.1484  1.8431
19598TIP3   OH280284   5.838   0.265  12.412  0.3827  0.0861 -0.2803
19598TIP3    H180285   5.798   0.350  12.395  0.6968  0.3196  0.1093
19598TIP3    H280286   5.770   0.201  12.391 -0.1483  0.4652  0.2580
19599TIP3   OH280287   0.793   5.185   0.945 -0.1893  0.1369 -0.1224
19599TIP3    H180288   0.811   5.274   0.915  1.5048 -0.6040 -1.4721
19599TIP3    H280289   0.826   5.183   1.035  1.4984  0.3962 -0.7005
19600TIP3   OH280290   5.954   2.257  13.996  0.4244 -0.5364  0.3870
19600TIP3    H180291   5.961   2.321  14.067 -0.3262  0.9161 -0.7880
19600TIP3    H280292   5.861   2.259  13.972  0.7850 -0.4388 -1.0909
19601TIP3   OH280293   1.000   5.661  15.389 -0.7710  0.3400  0.3380
19601TIP3    H180294   1.045   5.580  15.414 -0.2545  0.5874  0.2328
19601TIP3    H280295   1.070   5.726  15.381 -1.1495  0.7343  0.1631
19602TIP3   OH280296   6.036   4.299  13.727 -0.3162 -0.3274 -0.1383
19602TIP3    H180297   6.099   4.345  13.783 -0.4801  0.6470 -0.7205
19602TIP3    H280298   5.951   4.336  13.750 -0.5323 -0.7891 -0.1818
19603TIP3   OH280299   5.096   5.473  14.411  0.3558 -0.1857  0.7054
19603TIP3    H180300   5.047   5.425  14.344  2.1094 -1.1288  0.0336
19603TIP3    H280301   5.106   5.561  14.374  1.9811 -0.8995 -0.7174
19604TIP3   OH280302   1.181   2.796  16.392 -0.7383 -0.0481 -0.0149
19604TIP3    H180303   1.209   2.885  16.369 -1.5099  0.2737  0.2674
19604TIP3    H280304   1.241   2.769  16.462 -0.6445  0.3345  0.0525
19605TIP3   OH280305   0.594   2.985  15.532 -0.1124  0.6192 -0.3066
19605TIP3    H180306   0.533   2.914  15.553 -1.1269  1.4120 -0.4656
19605TIP3    H280307   0.618   3.021  15.618 -0.0567  0.4559 -0.2533
19606TIP3   OH280308   2.147   1.588  14.759 -0.2459 -0.2085 -0.1662
19606TIP3    H180309   2.235   1.606  14.727 -0.4487 -1.0813 -1.2960
19606TIP3    H280310   2.100   1.672  14.749  0.3630  0.1744  0.1505
19607TIP3   OH280311   5.165   4.771   1.019  0.0668  0.4389 -0.0907
19607TIP3    H180312   5.104   4.722   0.964  1.2141  0.5786 -1.5374
19607TIP3    H280313   5.109   4.823   1.076 -1.1621 -0.3234 -0.5644
19608TIP3   OH280314   1.378   5.214   4.241 -0.4487  0.3366 -0.1671
19608TIP3    H180315   1.386   5.263   4.323  0.9883 -1.4087  0.7913
19608TIP3    H280316   1.347   5.128   4.267  0.1071 -0.2843 -1.4609
19609TIP3   OH280317   3.892   0.151   4.607  0.3347  0.2923  0.8257
19609TIP3    H180318   3.948   0.196   4.544  0.0003  1.3961  1.2863
19609TIP3    H280319   3.938   0.160   4.690 -0.4555  1.1569  1.1989
19610TIP3   OH280320   2.613   6.431  15.498  0.5150  0.5108  0.0449
19610TIP3    H180321   2.595   6.465  15.585 -0.3649  0.2577 -0.0295
19610TIP3    H280322   2.692   6.378  15.508 -0.0312 -0.1549  0.8496
19611TIP3   OH280323   3.590   4.113   2.705 -0.5837 -0.0074  0.0336
19611TIP3    H180324   3.678   4.113   2.741 -1.2037 -0.8463  1.6628
19611TIP3    H280325   3.544   4.181   2.753 -1.0297 -0.1128 -0.2347
19612TIP3   OH280326   3.624   3.407   1.939 -0.0801 -0.2810  0.1853
19612TIP3    H180327   3.544   3.355   1.939  1.2785 -2.5233 -0.8689
19612TIP3    H280328   3.668   3.386   2.021  0.4078 -0.7390 -0.1816
19613TIP3   OH280329   5.863   5.445  15.182 -0.0483 -0.0359 -0.2142
19613TIP3    H180330   5.828   5.534  15.181 -0.7016 -0.2559  1.0747
19613TIP3    H280331   5.910   5.439  15.266  0.1934 -0.8349 -0.3958
19614TIP3   OH280332   1.427   4.382  12.340 -0.0350 -0.3716  0.5386
19614TIP3    H180333   1.476   4.301  12.327 -1.9762 -1.4735 -0.1964
19614TIP3    H280334   1.347   4.371  12.289 -0.1220  2.2545 -0.0338
19615TIP3   OH280335   6.224   4.863   5.032  0.0575 -0.7244 -0.0774
19615TIP3    H180336   6.140   4.908   5.044 -0.6005 -1.5089 -1.5015
19615TIP3    H280337   6.208   4.774   5.065  0.3892 -0.8161 -0.1663
19616TIP3   OH280338   3.478   5.952  11.706  0.6449  0.1414 -0.4338
19616TIP3    H180339   3.530   6.032  11.698  0.5008  0.3151  0.2981
19616TIP3    H280340   3.393   5.982  11.738 -0.1307 -0.0676 -2.1633
19617TIP3   OH280341   5.970   0.633  12.430 -0.1069 -0.3641  0.3415
19617TIP3    H180342   6.050   0.619  12.380 -0.7223 -1.3033 -0.4207
19617TIP3    H280343   5.902   0.591  12.378 -1.0315  0.0695  1.1745
19618TIP3   OH280344   3.990   4.756  11.218 -0.3028  0.7606 -0.0346
19618TIP3    H180345   4.027   4.712  11.141 -0.2748  2.5219 -1.0797
19618TIP3    H280346   3.917   4.808  11.184 -1.0649  0.6406  1.3388
19619TIP3   OH280347   2.380   1.845  16.171  0.2072  0.4763  0.8408
19619TIP3    H180348   2.375   1.755  16.140 -1.2923  1.2022 -1.2154
19619TIP3    H280349   2.467   1.875  16.142  0.8791 -0.3769  1.8857
19620TIP3   OH280350   0.743   5.943  12.474  0.2011  0.1046 -0.2734
19620TIP3    H180351   0.699   5.974  12.394  0.0448  0.1851 -0.1563
19620TIP3    H280352   0.676   5.893  12.520  0.3870 -0.2156 -0.3512
19621TIP3   OH280353   1.069   5.321  12.965 -0.1386  0.0875 -0.5347
19621TIP3    H180354   0.996   5.360  12.918 -0.5326  0.8306  0.6540
19621TIP3    H280355   1.086   5.381  13.038  2.3972  0.5432 -1.4000
19622TIP3   OH280356   2.202   2.971   0.817 -0.4161  0.2800  0.4339
19622TIP3    H180357   2.153   3.052   0.833 -1.1486 -0.4267  2.0797
19622TIP3    H280358   2.150   2.923   0.753  0.4392  1.4281 -1.1717
19623TIP3   OH280359   4.798   5.369  11.674 -0.1304  0.2048  0.3671
19623TIP3    H180360   4.807   5.456  11.636 -2.1493  0.9156  1.4002
19623TIP3    H280361   4.714   5.371  11.720 -0.5061 -2.4639 -0.0477
19624TIP3   OH280362   3.956   0.319  14.893  0.3277 -0.1824 -0.3654
19624TIP3    H180363   3.894   0.363  14.834 -0.4172 -2.3338 -1.2760
19624TIP3    H280364   4.018   0.276  14.834  0.5379 -1.0183  0.4496
19625TIP3   OH280365   4.600   6.733  16.770 -0.3770  0.2739 -0.2929
19625TIP3    H180366   4.508   6.710  16.781  0.1418 -0.8410  2.4514
19625TIP3    H280367   4.617   6.797  16.840  0.9820  0.3615 -0.6821
19626TIP3   OH280368   5.482   0.220  14.505  0.5538 -0.0532 -0.0997
19626TIP3    H180369   5.570   0.256  14.492  0.8140 -0.7132 -0.2026
19626TIP3    H280370   5.496   0.138  14.551 -0.0083 -0.1829 -0.1501
19627TIP3   OH280371   0.186   0.701  14.642  0.0459  0.1772  0.2611
19627TIP3    H180372   0.185   0.662  14.729  0.1937 -2.5402 -0.8622
19627TIP3    H280373   0.095   0.696  14.612  0.2937 -0.6003 -0.4063
19628TIP3   OH280374   5.395   2.823   6.409  0.0846  0.0053 -0.2264
19628TIP3    H180375   5.456   2.785   6.472  0.5485 -0.1604 -0.7687
19628TIP3    H280376   5.437   2.905   6.382 -0.9392  0.9833  0.9911
19629TIP3   OH280377   3.492   5.737   6.359  0.0180 -0.5044 -0.3799
19629TIP3    H180378   3.472   5.669   6.422 -0.6084  0.5070  0.5420
19629TIP3    H280379   3.415   5.739   6.301 -0.5077  0.1982  0.3157
19630TIP3   OH280380   6.816   4.973  12.930 -0.0037 -0.3890  0.0035
19630TIP3    H180381   6.762   4.922  12.989 -1.3384 -0.0630 -0.8901
19630TIP3    H280382   6.842   5.050  12.981 -0.8298 -0.2893  0.2894
19631TIP3   OH280383   0.435   3.371   1.713 -0.2491  0.8566  0.1944
19631TIP3    H180384   0.353   3.405   1.749 -1.9227  0.4453 -2.9296
19631TIP3    H280385   0.469   3.443   1.659  0.3749  0.2938 -0.1768
19632TIP3   OH280386   4.780   5.885  11.057  0.3355 -0.2254 -0.0081
19632TIP3    H180387   4.848   5.862  10.993  0.0974  1.0687 -0.7526
19632TIP3    H280388   4.807   5.969  11.092  0.3621 -0.8339  1.5000
19633TIP3   OH280389   2.034   2.774   3.077  0.3037 -0.2964  0.1631
19633TIP3    H180390   2.040   2.712   3.149 -0.1803  0.0774  0.5358
19633TIP3    H280391   2.099   2.841   3.097  0.8904 -0.7226 -0.2862
19634TIP3   OH280392   2.035   4.088  15.464 -0.5653  0.1252  0.2749
19634TIP3    H180393   2.116   4.044  15.440 -0.3905  0.8996 -0.5977
19634TIP3    H280394   2.055   4.181  15.457 -2.0466  0.3625 -1.8979
19635TIP3   OH280395   0.278   5.197  11.069 -0.0950 -0.3615 -0.4957
19635TIP3    H180396   0.337   5.272  11.075 -0.4929 -0.1676  1.9439
19635TIP3    H280397   0.214   5.222  11.003  1.7587 -0.0793 -2.3246
19636TIP3   OH280398   6.302   3.619  12.469  0.3509  0.1268  0.7078
19636TIP3    H180399   6.266   3.584  12.387  0.2233 -0.0141  0.8212
19636TIP3    H280400   6.373   3.559  12.492  0.5974  0.3496  0.5345
19637TIP3   OH280401   1.008   0.853  17.118  0.4163  0.5677 -0.7361
19637TIP3    H180402   1.076   0.795  17.082  1.2966  1.1554 -0.0661
19637TIP3    H280403   1.054   0.905  17.183 -0.4017  1.8805 -1.1755
19638TIP3   OH280404   2.425   6.167  11.875 -0.0264  0.1982  0.0755
19638TIP3    H180405   2.331   6.159  11.890 -0.0348 -1.6194 -0.7392
19638TIP3    H280406   2.435   6.251  11.831 -1.3322  0.1473 -0.3549
19639TIP3   OH280407   1.907   3.635   1.155  0.2200  0.1408 -0.4992
19639TIP3    H180408   1.917   3.543   1.180 -0.7707  0.3685  0.8312
19639TIP3    H280409   1.865   3.676   1.230 -0.3636  1.4625 -1.5095
19640TIP3   OH280410   0.125   5.281  13.565 -0.7813 -0.3772  0.3942
19640TIP3    H180411   0.193   5.255  13.626 -0.8067  0.4855  0.7993
19640TIP3    H280412   0.075   5.200  13.548  0.8452 -1.2248 -0.5974
19641TIP3   OH280413   5.528   4.884   2.797 -0.2513  0.3866  0.3491
19641TIP3    H180414   5.619   4.896   2.825  0.1120 -1.4190  0.0681
19641TIP3    H280415   5.501   4.970   2.766  2.0507  0.5300 -1.5413
19642TIP3   OH280416   2.370   3.411   5.636 -0.5451  0.7478  0.0155
19642TIP3    H180417   2.466   3.421   5.637 -0.3321 -0.5959  2.5099
19642TIP3    H280418   2.352   3.358   5.559  0.8563  0.1699  0.0445
19643TIP3   OH280419   6.017   5.136   5.751  0.6498 -0.0408  0.2416
19643TIP3    H180420   5.934   5.094   5.770  1.1299 -1.0946  0.1066
19643TIP3    H280421   6.008   5.168   5.661 -0.3326  1.7187  0.9413
19644TIP3   OH280422   3.325   2.852   2.914 -0.5769  0.2620  0.5812
19644TIP3    H180423   3.236   2.824   2.930  0.0923 -2.8436 -0.5102
19644TIP3    H280424   3.317   2.917   2.843 -1.8814 -1.2146 -0.6977
19645TIP3   OH280425   3.374   0.364  16.386  0.2266  0.5059 -0.1669
19645TIP3    H180426   3.450   0.384  16.332  2.1636 -1.4846  1.6317
19645TIP3    H280427   3.350   0.275  16.361 -1.1224  0.8740 -0.2379
19646TIP3   OH280428   1.732   2.353   6.063  0.0419 -0.1339  0.0150
19646TIP3    H180429   1.777   2.316   5.987  0.4441 -0.1051  0.2406
19646TIP3    H280430   1.644   2.315   6.058 -0.0003  0.0299 -0.5819
19647TIP3   OH280431   0.608   1.331   3.777 -0.5427 -0.0259  0.0386
19647TIP3    H180432   0.621   1.256   3.720  1.7375 -0.3394  0.8725
19647TIP3    H280433   0.625   1.407   3.721  1.3135 -0.3170  0.1353
19648TIP3   OH280434   3.474   2.707  15.913  0.2492 -0.4287 -0.2306
19648TIP3    H180435   3.471   2.614  15.890  2.2186 -0.6880  0.3827
19648TIP3    H280436   3.451   2.753  15.832  0.0038 -1.4151 -0.7388
19649TIP3   OH280437   2.300   4.398   5.672  0.3571  0.0921 -0.0364
19649TIP3    H180438   2.333   4.353   5.749 -1.9397 -1.5762  0.0725
19649TIP3    H280439   2.217   4.437   5.700  0.6445  1.5316 -1.0572
19650TIP3   OH280440   3.284   2.864   4.461 -0.7380  0.0441 -0.1222
19650TIP3    H180441   3.268   2.798   4.394 -0.1353  0.0057 -0.2330
19650TIP3    H280442   3.215   2.929   4.449 -0.3602  0.2776 -1.0800
19651TIP3   OH280443   4.319   5.730   1.072  0.1845 -0.6352  0.3064
19651TIP3    H180444   4.296   5.794   1.005 -1.7083 -1.1306  0.4392
19651TIP3    H280445   4.358   5.657   1.023  0.2038 -0.3628 -0.0843
19652TIP3   OH280446   6.113   6.373  14.836  0.2385  0.1767 -0.0425
19652TIP3    H180447   6.059   6.393  14.912 -1.2823 -1.4744 -0.6226
19652TIP3    H280448   6.168   6.299  14.865  0.3021  0.1381 -0.2611
19653TIP3   OH280449   1.055   5.058  12.867 -0.8139 -0.0039 -0.0959
19653TIP3    H180450   1.139   5.013  12.865 -1.1855 -0.7665  0.8011
19653TIP3    H280451   1.077   5.151  12.853  0.4086  0.1063  2.0788
19654TIP3   OH280452   6.090   3.932   4.773  0.3345 -0.3420 -0.2801
19654TIP3    H180453   6.071   3.838   4.775  1.7901 -0.6725  1.1424
19654TIP3    H280454   6.013   3.973   4.812  0.3090 -1.1247  0.5461
19655TIP3   OH280455   6.614   4.009  12.863  0.3261  0.3336  0.7044
19655TIP3    H180456   6.529   3.963  12.862 -0.2820  1.3045 -2.2949
19655TIP3    H280457   6.592   4.099  12.887  0.0609  1.0944 -2.0124
19656TIP3   OH280458   5.195   5.833  14.420  0.4852  0.0068 -0.0365
19656TIP3    H180459   5.102   5.813  14.423  0.6248 -0.5619  1.3656
19656TIP3    H280460   5.210   5.865  14.332 -0.8958 -0.6249 -0.5296
19657TIP3   OH280461   5.892   6.181  16.373 -0.0976  0.8505 -0.2124
19657TIP3    H180462   5.846   6.185  16.289  0.2153  1.1085 -0.3735
19657TIP3    H280463   5.959   6.249  16.367  2.4785 -1.5446 -1.2834
19658TIP3   OH280464   1.142   4.423   1.065 -0.1057 -0.5675 -0.2888
19658TIP3    H180465   1.191   4.421   0.982 -1.9917 -0.0341 -1.4699
19658TIP3    H280466   1.071   4.485   1.049 -1.6753 -1.9398  1.0718
19659TIP3   OH280467   2.023   3.127  16.871 -0.3517  0.2026 -0.0924
19659TIP3    H180468   2.019   3.187  16.796 -0.9443  1.2526  0.7565
19659TIP3    H280469   1.945   3.072  16.861 -0.5335  0.4675 -0.1563
19660TIP3   OH280470   0.988   6.057  12.327 -0.0561 -0.1063  0.5114
19660TIP3    H180471   1.050   6.077  12.397  1.8390  0.0188 -1.1288
19660TIP3    H280472   0.963   6.142  12.291 -0.9119 -0.1784  0.8997
19661TIP3   OH280473   6.712   2.689  13.624 -0.1684 -0.1071 -0.4423
19661TIP3    H180474   6.674   2.712  13.539  0.5576  0.5100 -0.6078
19661TIP3    H280475   6.646   2.634  13.665 -0.6602 -0.1670 -1.2836
19662TIP3   OH280476   2.752   5.969  12.723  0.5013 -0.2824 -0.2816
19662TIP3    H180477   2.797   5.967  12.639  0.5514  2.4075 -0.4096
19662TIP3    H280478   2.822   5.964  12.788  0.6991  0.3324 -0.4420
19663TIP3   OH280479   4.584   5.734  14.317 -0.2805 -0.2506 -0.7928
19663TIP3    H180480   4.639   5.701  14.388  0.2207  0.0566 -1.0280
19663TIP3    H280481   4.640   5.797  14.271 -1.0146  0.4605 -0.7256
19664TIP3   OH280482   2.442   0.637  12.127  0.0436 -0.5308 -0.3606
19664TIP3    H180483   2.383   0.565  12.150 -1.6351  0.6709 -0.6470
19664TIP3    H280484   2.483   0.662  12.210  0.4211 -1.6205 -0.2109
19665TIP3   OH280485   3.309   5.398   1.009 -0.2532 -0.0606 -0.0590
19665TIP3    H180486   3.290   5.465   1.075  1.1143 -0.1987  0.5054
19665TIP3    H280487   3.382   5.348   1.046  0.9892  0.2659 -1.9472
19666TIP3   OH280488   3.348   6.084  17.208  0.3086 -0.2643 -0.2398
19666TIP3    H180489   3.391   6.159  17.250 -0.8233  0.0998  0.3065
19666TIP3    H280490   3.290   6.123  17.142 -1.2833 -0.5343  0.9375
19667TIP3   OH280491   3.208   1.409  16.987  0.5460 -0.0291 -0.2635
19667TIP3    H180492   3.231   1.481  17.046  0.6304 -0.5964  0.3933
19667TIP3    H280493   3.116   1.424  16.966  0.7051  0.5791 -0.5730
19668TIP3   OH280494   6.524   1.250   3.344 -0.1902 -0.8903  0.6849
19668TIP3    H180495   6.583   1.191   3.297 -1.1901 -0.3177 -1.4385
19668TIP3    H280496   6.437   1.219   3.321 -0.7606  1.4068 -0.6300
19669TIP3   OH280497   1.475   3.522  12.593 -0.0249 -0.6181 -0.1941
19669TIP3    H180498   1.514   3.593  12.542 -0.9686 -0.9594 -1.4363
19669TIP3    H280499   1.392   3.503  12.549 -1.1903 -0.5237  1.8377
19670TIP3   OH280500   5.663   3.484  12.588 -0.4662 -0.6504 -0.2790
19670TIP3    H180501   5.611   3.525  12.657 -0.8328 -0.6748 -0.5398
19670TIP3    H280502   5.676   3.394  12.618  0.8631 -0.1932  0.5863
19671TIP3   OH280503   6.334   1.657   4.057  0.0947 -0.4193 -0.4828
19671TIP3    H180504   6.365   1.666   3.967 -1.2967 -0.9425 -1.0334
19671TIP3    H280505   6.363   1.570   4.084 -1.6182 -1.3057 -1.3336
19672TIP3   OH280506   3.780   0.407   2.316 -0.0682 -0.0308  0.1053
19672TIP3    H180507   3.770   0.456   2.235 -2.0014  0.9888  0.9129
19672TIP3    H280508   3.875   0.402   2.329  0.2407  0.8750 -1.5447
19673TIP3   OH280509   5.716   4.228  15.165 -0.3305 -0.6473 -0.5184
19673TIP3    H180510   5.624   4.206  15.150 -0.6957 -0.6178  1.3828
19673TIP3    H280511   5.713   4.301  15.227  0.9709  0.6020 -1.8633
19674TIP3   OH280512   3.184   2.142   3.430  0.5277 -0.2016 -0.1110
19674TIP3    H180513   3.185   2.124   3.337  0.5525 -0.2280 -0.1057
19674TIP3    H280514   3.110   2.092   3.464  1.7306 -1.8530  0.2148
19675TIP3   OH280515   6.141   3.656   4.572  0.0795 -0.0662 -0.4186
19675TIP3    H180516   6.066   3.662   4.632 -0.5827  1.2411 -1.3431
19675TIP3    H280517   6.131   3.731   4.514  3.4274  1.5955  0.9213
19676TIP3   OH280518   4.166   2.956  11.376 -0.0105 -0.0129 -0.0224
19676TIP3    H180519   4.097   2.904  11.335 -0.4238  0.2219  0.3639
19676TIP3    H280520   4.154   3.044  11.341  1.5936 -0.4412 -1.8038
19677TIP3   OH280521   5.730   3.387  13.978  0.2456  0.2473  0.1336
19677TIP3    H180522   5.643   3.350  13.967  0.4273 -0.0574 -0.3275
19677TIP3    H280523   5.723   3.443  14.055 -0.6437  1.0910 -0.5418
19678TIP3   OH280524   0.474   4.994  15.513  0.2129 -0.0338 -0.2885
19678TIP3    H180525   0.390   4.965  15.549  0.2485  0.3606  0.1320
19678TIP3    H280526   0.492   4.934  15.441  0.7000 -1.6250  1.0726
19679TIP3   OH280527   0.422   0.458  14.972  0.1441 -0.2010  0.0995
19679TIP3    H180528   0.508   0.500  14.976 -0.0046  0.2667 -1.1877
19679TIP3    H280529   0.360   0.531  14.968 -0.2195 -0.5290 -0.4717
19680TIP3   OH280530   5.674   3.140   5.444 -0.4440 -0.0753 -0.2585
19680TIP3    H180531   5.586   3.174   5.427  0.0762  0.2880 -2.6889
19680TIP3    H280532   5.704   3.110   5.358  1.7996 -0.2197  0.5189
19681TIP3   OH280533   6.441   5.749  13.667 -0.4228 -0.6825  0.3049
19681TIP3    H180534   6.483   5.777  13.749 -0.9190 -0.3214  0.4437
19681TIP3    H280535   6.350   5.732  13.692 -0.9745  0.9327 -0.4602
19682TIP3   OH280536   1.189   2.321   4.910 -0.4745  0.2104 -0.6814
19682TIP3    H180537   1.150   2.235   4.890 -0.4857  0.1396 -0.3517
19682TIP3    H280538   1.232   2.347   4.828  0.2503 -0.4910 -0.5352
19683TIP3   OH280539   6.395   2.505  15.387  0.1902  0.6475  0.1900
19683TIP3    H180540   6.461   2.462  15.332 -0.3473 -0.6152  0.4910
19683TIP3    H280541   6.343   2.433  15.422 -0.8852  1.5796  0.5649
19684TIP3   OH280542   0.222   1.945   1.966 -0.2283  0.0919  0.2512
19684TIP3    H180543   0.181   2.023   1.929 -1.1109 -0.7543 -0.5974
19684TIP3    H280544   0.163   1.918   2.037 -0.0866  0.0300  0.3463
19685TIP3   OH280545   4.552   4.018  15.673 -0.4247 -0.2882 -0.0582
19685TIP3    H180546   4.645   3.996  15.673 -0.0869  1.0467 -0.0220
19685TIP3    H280547   4.550   4.114  15.674 -1.7999 -0.2813 -0.6899
19686TIP3   OH280548   4.013   2.764   2.120  0.4422 -0.7735  0.4102
19686TIP3    H180549   4.007   2.790   2.028 -1.4111 -1.8821  0.1681
19686TIP3    H280550   4.066   2.684   2.119 -1.2376 -1.9321 -0.0018
19687TIP3   OH280551   4.928   4.864  15.901 -0.4795 -0.3001 -0.0542
19687TIP3    H180552   4.953   4.884  15.811  0.0342  2.3079  0.5980
19687TIP3    H280553   5.005   4.823  15.939 -0.9973 -2.2561 -0.9849
19688TIP3   OH280554   2.580   5.655  11.294  0.5377  0.2952 -0.2008
19688TIP3    H180555   2.497   5.644  11.340  0.4980  1.3652  0.0167
19688TIP3    H280556   2.589   5.749  11.284 -0.0594  0.1035 -3.5393
19689TIP3   OH280557   1.198   4.403  10.733  0.0977 -0.0558 -0.1566
19689TIP3    H180558   1.114   4.394  10.688 -0.3208  1.5534  0.2412
19689TIP3    H280559   1.219   4.314  10.762 -0.8111 -0.7014 -1.4050
19690TIP3   OH280560   6.471   6.148   4.120 -0.0790 -0.0472  0.5742
19690TIP3    H180561   6.458   6.209   4.192 -0.3669  0.4302  0.1244
19690TIP3    H280562   6.385   6.107   4.108 -0.7995  1.8431 -1.2597
19691TIP3   OH280563   0.241   3.472   0.319 -0.0320  0.3661 -0.2613
19691TIP3    H180564   0.243   3.376   0.314 -0.2249  0.3584 -0.2080
19691TIP3    H280565   0.191   3.499   0.242  0.2348  0.4372 -0.4102
19692TIP3   OH280566   0.205   5.689   1.542 -0.0247 -0.7734  0.7076
19692TIP3    H180567   0.193   5.667   1.635  0.8953 -2.9805  0.3579
19692TIP3    H280568   0.258   5.618   1.507 -0.6707 -0.1889 -1.6273
19693TIP3   OH280569   0.675   2.035   4.330  0.3486 -0.2546 -0.3218
19693TIP3    H180570   0.682   1.945   4.297  0.8486 -0.4225  0.2167
19693TIP3    H280571   0.635   2.026   4.416 -0.6898  0.1537 -0.7517
19694TIP3   OH280572   3.570   3.786   4.586  0.3253  0.0700  0.1820
19694TIP3    H180573   3.543   3.874   4.563  2.8311  0.7841 -0.3406
19694TIP3    H280574   3.570   3.785   4.682 -2.4299 -0.3559  0.2620
19695TIP3   OH280575   3.370   5.728   4.467  0.2805 -0.4006 -0.1693
19695TIP3    H180576   3.345   5.713   4.376 -0.4063 -0.6598  0.0574
19695TIP3    H280577   3.396   5.641   4.499 -1.2129 -0.6513  0.3977
19696TIP3   OH280578   5.695   2.874   2.978  0.0284 -0.4634 -0.0048
19696TIP3    H180579   5.679   2.897   3.069 -0.3785 -0.8436  0.0244
19696TIP3    H280580   5.788   2.891   2.965 -0.2533  1.2077 -0.0055
19697TIP3   OH280581   2.330   1.233  15.193  0.1269  0.0533  0.6017
19697TIP3    H180582   2.285   1.235  15.277  1.1701  1.2311  1.1841
19697TIP3    H280583   2.293   1.307  15.145  0.2764  0.0228  0.4396
19698TIP3   OH280584   3.094   4.197   3.444  0.4290 -0.7138  0.0951
19698TIP3    H180585   3.076   4.230   3.356  1.8145 -0.0655  0.0303
19698TIP3    H280586   3.123   4.273   3.493  0.1331 -1.1645  0.9852
19699TIP3   OH280587   4.381   0.375  15.332  0.1052 -0.4361  0.0890
19699TIP3    H180588   4.386   0.411  15.243  0.9085 -0.1049  0.2620
19699TIP3    H280589   4.292   0.341  15.339  0.7402 -2.6863 -1.7020
19700TIP3   OH280590   5.850   6.581   2.989  0.2489  0.1335  0.0612
19700TIP3    H180591   5.903   6.613   3.061 -0.9493  0.4000  0.8529
19700TIP3    H280592   5.836   6.658   2.933  2.2222 -0.3408 -1.1724
19701TIP3   OH280593   3.015   0.504  11.700  0.2573  0.4688 -0.6319
19701TIP3    H180594   2.954   0.498  11.773  0.8931  0.5779 -0.0773
19701TIP3    H280595   3.089   0.450  11.726  0.7251  0.9338 -0.9591
19702TIP3   OH280596   1.904   1.517  10.990  0.3848 -0.1386 -0.1403
19702TIP3    H180597   1.884   1.554  10.905  0.1302 -2.3711 -1.1198
19702TIP3    H280598   1.975   1.454  10.973  1.4376  0.4959  1.5753
19703TIP3   OH280599   3.479   3.776   0.303  0.2915 -0.0660 -0.3562
19703TIP3    H180600   3.491   3.682   0.288  0.8083  0.0888 -0.9155
19703TIP3    H280601   3.486   3.816   0.216 -0.9564  0.3939 -0.2779
19704TIP3   OH280602   2.517   1.379  16.930 -0.4550  0.1234 -0.2605
19704TIP3    H180603   2.572   1.401  16.855 -0.8464 -0.1080 -0.6207
19704TIP3    H280604   2.446   1.327  16.893 -2.6062  2.8993 -0.3347
19705TIP3   OH280605   4.151   1.497  16.253 -0.6802  0.3890  0.2501
19705TIP3    H180606   4.102   1.526  16.176  0.4793  0.4044 -0.5112
19705TIP3    H280607   4.099   1.425  16.289 -0.9580  0.0020 -0.8918
19706TIP3   OH280608   1.353   6.142   5.423  0.3142 -0.8214 -0.6124
19706TIP3    H180609   1.293   6.067   5.427 -1.6845  0.6703 -0.8972
19706TIP3    H280610   1.331   6.193   5.501  2.3678 -0.9910  0.1306
19707TIP3   OH280611   1.445   1.166  10.524  0.1561  0.1901 -0.6150
19707TIP3    H180612   1.392   1.128  10.454 -1.1988  1.4777 -0.3292
19707TIP3    H280613   1.430   1.260  10.518  0.9605  0.4334  0.6674
19708TIP3   OH280614   1.046   6.439  13.561  0.1079 -0.2747  0.1313
19708TIP3    H180615   0.957   6.438  13.527  0.9421  1.1937 -2.3223
19708TIP3    H280616   1.036   6.456  13.655 -2.1688 -0.6676  0.0052
19709TIP3   OH280617   6.054   4.052   5.716 -0.6514  0.2779 -0.2067
19709TIP3    H180618   6.053   4.017   5.627  1.3877 -0.7412  0.0899
19709TIP3    H280619   6.016   3.982   5.769 -0.5140  0.2671 -0.1209
19710TIP3   OH280620   0.925   3.893  11.793  0.1510  0.0679 -0.2864
19710TIP3    H180621   0.973   3.856  11.719 -2.7133 -0.4429 -2.0496
19710TIP3    H280622   0.973   3.974  11.814  1.6944 -0.3433 -1.9460
19711TIP3   OH280623   1.092   5.700   5.213 -0.0090 -0.6066 -0.2286
19711TIP3    H180624   1.033   5.727   5.284  1.3380 -2.0812  1.5168
19711TIP3    H280625   1.056   5.617   5.183  1.3745 -1.7731  1.1903
19712TIP3   OH280626   0.687   4.983  14.903  0.1189  0.5169 -0.6788
19712TIP3    H180627   0.752   4.939  14.958  0.5175  1.1103 -0.6554
19712TIP3    H280628   0.639   4.913  14.860 -0.8760 -0.0167  1.1803
19713TIP3   OH280629   4.109   2.645  17.239 -0.8736 -0.2968 -0.1107
19713TIP3    H180630   4.051   2.714  17.272 -0.9831 -0.5697  0.2733
19713TIP3    H280631   4.110   2.579  17.308  2.1176  0.9423  1.2188
19714TIP3   OH280632   5.889   1.054   6.845  0.2947 -0.3152 -0.2208
19714TIP3    H180633   5.848   1.037   6.929  1.2309  0.6249  0.4614
19714TIP3    H280634   5.952   0.982   6.834  0.5315 -0.1690  0.1398
19715TIP3   OH280635   0.254   3.652   1.583 -0.5726  0.2478  0.3165
19715TIP3    H180636   0.213   3.608   1.658 -0.4780 -0.3212  0.0378
19715TIP3    H280637   0.271   3.741   1.614 -0.2166 -0.0804  1.0906
19716TIP3   OH280638   3.755   5.974   3.956  0.2884  0.2252 -0.6584
19716TIP3    H180639   3.722   5.916   4.024  0.9160  0.4964 -0.1062
19716TIP3    H280640   3.778   5.915   3.884  1.1577 -0.2635 -0.0137
19717TIP3   OH280641   5.080   0.523  12.582  0.6376 -0.1507 -0.0313
19717TIP3    H180642   5.048   0.498  12.668 -1.0254 -1.5418 -0.9825
19717TIP3    H280643   5.169   0.554  12.597  0.7618 -1.3539  2.0295
19718TIP3   OH280644   6.697   2.276  15.295 -0.0214  1.0663 -0.2357
19718TIP3    H180645   6.740   2.222  15.229 -0.9872  0.3799 -0.3393
19718TIP3    H280646   6.690   2.363  15.256 -2.9821  0.0740 -2.2238
19719TIP3   OH280647   5.973   5.371  12.229 -1.0545 -0.1051 -0.3867
19719TIP3    H180648   5.890   5.353  12.272 -1.1100 -1.0305 -0.8535
19719TIP3    H280649   5.962   5.337  12.140 -0.7747  1.3222 -1.0089
19720TIP3   OH280650   4.496   0.689   3.015 -0.1472  0.4126  1.1158
19720TIP3    H180651   4.488   0.648   2.929  0.7709  1.2056  0.6322
19720TIP3    H280652   4.569   0.644   3.058 -0.0371  0.6006  1.1296
19721TIP3   OH280653   4.302   0.835  12.749  0.6952 -0.1905 -0.0894
19721TIP3    H180654   4.208   0.856  12.752  1.1862  2.1477  2.0481
19721TIP3    H280655   4.327   0.850  12.658 -0.5548  1.4555 -0.2098
19722TIP3   OH280656   2.374   0.102  13.000  0.0844 -0.5845 -0.3796
19722TIP3    H180657   2.310   0.173  12.990 -0.2734 -0.6465  1.1875
19722TIP3    H280658   2.322   0.022  12.997  0.5282 -0.8587 -2.4879
19723TIP3   OH280659   1.076   5.728  13.357 -0.0388  0.1743 -0.0651
19723TIP3    H180660   1.071   5.820  13.333 -0.5846  0.2147  0.1872
19723TIP3    H280661   1.136   5.725  13.431  1.4807  0.0767 -1.2424
19724TIP3   OH280662   6.576   6.632  12.546 -0.3985 -0.7786  0.3585
19724TIP3    H180663   6.642   6.669  12.487  1.7449 -2.5773  1.4510
19724TIP3    H280664   6.558   6.700  12.610  0.5750 -0.3126  0.1464
19725TIP3   OH280665   2.193   0.303  12.963  0.1529  0.2155  0.0876
19725TIP3    H180666   2.100   0.281  12.972 -0.8632  2.2722 -3.3658
19725TIP3    H280667   2.199   0.394  12.989  0.9444  0.4188 -0.7521
19726TIP3   OH280668   4.807   5.850  16.923  0.4619  0.5767  0.0096
19726TIP3    H180669   4.832   5.927  16.873 -1.8766  0.8428 -0.8858
19726TIP3    H280670   4.712   5.857  16.932  0.0710 -2.4146 -0.5507
19727TIP3   OH280671   6.822   2.649   1.506  0.3060 -0.2447  0.0842
19727TIP3    H180672   6.770   2.611   1.435 -2.8323  0.6376  1.7208
19727TIP3    H280673   6.828   2.581   1.572  0.1769  0.0547  0.4093
19728TIP3   OH280674   3.134   6.502  12.297 -0.5523  0.5317  0.3430
19728TIP3    H180675   3.085   6.425  12.269  0.5375  0.7992 -2.7324
19728TIP3    H280676   3.068   6.569  12.313 -1.4117 -0.5305  1.4699
19729TIP3   OH280677   2.304   3.021  12.548 -0.5548 -0.1765 -0.0121
19729TIP3    H180678   2.385   2.992  12.589 -0.1732  0.1715 -0.5066
19729TIP3    H280679   2.300   3.115  12.565  1.0741  0.5874 -3.1163
19730TIP3   OH280680   4.245   4.756  15.625 -0.2407  0.2421  0.1632
19730TIP3    H180681   4.316   4.774  15.687 -0.1117  3.2330 -0.6828
19730TIP3    H280682   4.166   4.752  15.679  0.1055  0.8752  0.7421
19731TIP3   OH280683   5.586   6.532  15.889  0.5913  0.4490 -0.0225
19731TIP3    H180684   5.644   6.499  15.958  0.5195 -1.6025 -0.8677
19731TIP3    H280685   5.642   6.541  15.813  0.1862  0.2898 -0.3433
19732TIP3   OH280686   2.756   5.997  14.665 -0.6700  0.3745 -0.3140
19732TIP3    H180687   2.670   6.037  14.678 -1.4898 -1.0180 -1.2028
19732TIP3    H280688   2.737   5.905  14.644  1.0869 -0.2427  0.5701
19733TIP3   OH280689   4.196   3.209   2.549  0.8060 -0.1222 -0.4416
19733TIP3    H180690   4.252   3.284   2.533  1.3821 -0.5773 -0.5850
19733TIP3    H280691   4.149   3.196   2.467 -0.9767  1.4336  0.2465
19734TIP3   OH280692   2.536   0.799   5.163  0.3939 -0.3261  0.8800
19734TIP3    H180693   2.462   0.744   5.191  0.7899 -1.1302  0.3969
19734TIP3    H280694   2.496   0.883   5.141 -0.3856 -0.7337  0.6694
19735TIP3   OH280695   1.926   2.779  13.694 -0.3707 -0.0655  0.5712
19735TIP3    H180696   1.932   2.811  13.604  1.7211  0.6512  0.9101
19735TIP3    H280697   1.959   2.689  13.690 -1.8386 -0.6184  0.3832
19736TIP3   OH280698   0.934   0.842   1.273  0.0702  0.0671  0.0405
19736TIP3    H180699   0.913   0.760   1.227 -1.0900 -0.1157  0.8548
19736TIP3    H280700   0.871   0.905   1.239 -0.5049  0.0411  1.0323
19737TIP3   OH280701   3.799   5.116  13.584  0.3327 -0.4531 -0.3577
19737TIP3    H180702   3.819   5.166  13.505 -0.2832 -1.6624 -1.3279
19737TIP3    H280703   3.768   5.031  13.551 -0.1923 -0.8975  1.1814
19738TIP3   OH280704   4.060   0.290  16.925 -0.0245  0.2865 -0.4206
19738TIP3    H180705   3.968   0.306  16.907 -0.0828  0.3425 -0.0876
19738TIP3    H280706   4.078   0.339  17.006  0.3163  0.3402 -0.5237
19739TIP3   OH280707   0.709   5.722  16.460  0.4459 -0.6804 -0.1118
19739TIP3    H180708   0.661   5.738  16.379  1.6284 -1.1493 -0.9421
19739TIP3    H280709   0.763   5.800  16.472 -0.3887 -0.2285  0.7190
19740TIP3   OH280710   2.652   2.369  13.367 -0.2274 -0.6669  0.1550
19740TIP3    H180711   2.634   2.281  13.334  0.4976 -1.1763  1.0753
19740TIP3    H280712   2.695   2.414  13.294  0.2927 -1.3903  0.0077
19741TIP3   OH280713   0.685   0.931  14.656  0.0384  0.1378 -0.0523
19741TIP3    H180714   0.719   0.882  14.582  2.4933 -1.4654  1.9639
19741TIP3    H280715   0.604   0.887  14.679 -2.2861  2.2771 -3.2091
19742TIP3   OH280716   3.829   2.836   4.036 -0.0615 -0.2949 -0.2321
19742TIP3    H180717   3.886   2.813   3.962  2.9247  3.4706  0.5105
19742TIP3    H280718   3.797   2.924   4.014 -1.1829 -0.1355  1.8294
19743TIP3   OH280719   1.330   1.676  14.304  0.0310 -0.6966 -0.0054
19743TIP3    H180720   1.377   1.596  14.280  1.0003 -0.6077  1.4003
19743TIP3    H280721   1.400   1.737  14.328 -0.7665 -0.4263  1.7886
19744TIP3   OH280722   0.493   1.880   0.199 -0.1080 -0.1567 -0.3940
19744TIP3    H180723   0.562   1.878   0.133 -0.1794 -0.4784 -0.4628
19744TIP3    H280724   0.453   1.966   0.190  1.9666  1.1011  1.3961
19745TIP3   OH280725   5.336   3.735   4.321  0.5083  0.0794  0.3460
19745TIP3    H180726   5.308   3.825   4.305  1.0283  0.3018  0.6808
19745TIP3    H280727   5.417   3.743   4.372 -0.4034 -0.5961  1.9641
19746TIP3   OH280728   2.767   3.551  12.526  0.1750  0.4549 -0.5218
19746TIP3    H180729   2.842   3.559  12.584  0.9720 -1.2827 -1.2511
19746TIP3    H280730   2.746   3.641  12.501  2.7411  0.9381 -1.2165
19747TIP3   OH280731   0.114   0.645  13.970 -0.2647  0.0575  0.5106
19747TIP3    H180732   0.047   0.623  13.905 -1.0368 -1.2795  1.6892
19747TIP3    H280733   0.153   0.727  13.938 -0.7891 -0.4081 -1.4630
19748TIP3   OH280734   1.237   1.861   4.031 -0.1641  0.0255 -0.4991
19748TIP3    H180735   1.207   1.896   4.114  1.6579  2.0584 -0.6028
19748TIP3    H280736   1.264   1.771   4.051  0.2843  0.4866  1.1421
19749TIP3   OH280737   5.160   3.979  11.050 -0.6042 -0.1128  0.2815
19749TIP3    H180738   5.114   4.051  11.005  1.6911 -0.2277 -2.4947
19749TIP3    H280739   5.165   3.909  10.985  0.4626 -1.4131  1.6952
19750TIP3   OH280740   2.673   4.035   2.910 -0.0557 -0.4367  0.2310
19750TIP3    H180741   2.743   4.020   2.847 -0.2378 -0.5099  0.0425
19750TIP3    H280742   2.712   4.092   2.976  0.0532 -0.1130 -0.1068
19751TIP3   OH280743   3.324   3.062  13.441 -0.1823 -0.1284 -0.3576
19751TIP3    H180744   3.343   3.028  13.528  0.6459 -2.7831 -1.4520
19751TIP3    H280745   3.250   3.010  13.410  0.8578 -0.7336 -1.9691
19752TIP3   OH280746   5.134   1.129  15.823 -0.0743 -0.1835 -0.5700
19752TIP3    H180747   5.079   1.122  15.745 -1.2379  0.6274  0.1367
19752TIP3    H280748   5.073   1.121  15.896  1.0095 -1.0263  0.2765
19753TIP3   OH280749   4.893   3.015   5.604 -0.1795 -0.1394  0.0040
19753TIP3    H180750   4.908   3.024   5.699  1.8890 -2.0830 -0.0569
19753TIP3    H280751   4.908   2.923   5.587 -1.9543 -0.1139 -2.0511
19754TIP3   OH280752   0.129   6.816  13.998 -0.0609 -0.2849 -0.1428
19754TIP3    H180753   0.067   6.747  13.975  0.2398 -0.7822  0.5060
19754TIP3    H280754   0.210   6.770  14.018 -0.0848  0.1745  1.1187
19755TIP3   OH280755   3.951   2.350  14.017 -0.0154  0.1001 -0.1933
19755TIP3    H180756   3.953   2.278  14.080  0.9583 -0.3123 -0.6816
19755TIP3    H280757   3.952   2.429  14.071 -2.4439 -0.2021  0.4027
19756TIP3   OH280758   0.382   4.402  15.235 -0.1307 -0.4164  0.1119
19756TIP3    H180759   0.307   4.383  15.291  1.0873  0.3099  2.0552
19756TIP3    H280760   0.459   4.380  15.288  1.0752 -2.2898 -2.2362
19757TIP3   OH280761   3.772   6.409   3.711 -0.5451 -0.3171 -0.2710
19757TIP3    H180762   3.691   6.362   3.733 -1.0274  0.7188  0.1904
19757TIP3    H280763   3.804   6.443   3.794 -1.2305  1.7937 -0.8067
19758TIP3   OH280764   1.836   2.183  10.799  0.0006 -0.3556  0.0992
19758TIP3    H180765   1.810   2.265  10.755  1.7274  0.8307  1.1534
19758TIP3    H280766   1.896   2.211  10.867  0.2232 -2.5020  0.8545
19759TIP3   OH280767   2.847   2.295   5.784 -0.5435  0.1620 -0.5593
19759TIP3    H180768   2.867   2.212   5.741  0.8583  0.3917 -0.3781
19759TIP3    H280769   2.854   2.276   5.878 -0.2245  0.4747 -0.5170
19760TIP3   OH280770   1.369   4.163  11.801 -0.0965  0.0382  0.2349
19760TIP3    H180771   1.422   4.191  11.726  0.2615  2.0481  1.1709
19760TIP3    H280772   1.315   4.239  11.822 -0.4723 -0.6224  1.7777
19761TIP3   OH280773   0.582   5.700  15.427  0.1735 -0.3351  0.0875
19761TIP3    H180774   0.519   5.659  15.486 -0.0045 -0.9733 -0.5372
19761TIP3    H280775   0.612   5.778  15.474  0.6591 -1.2656  1.3821
19762TIP3   OH280776   1.352   3.756   4.648  0.9618  0.3622  0.4177
19762TIP3    H180777   1.311   3.829   4.602 -0.6250  0.1814  1.4798
19762TIP3    H280778   1.378   3.696   4.578 -0.9711  0.3116 -0.3179
19763TIP3   OH280779   3.368   0.017   2.704 -0.4619  0.9110  0.0299
19763TIP3    H180780   3.432   0.086   2.720  2.5488 -1.3838 -1.3013
19763TIP3    H280781   3.411  -0.063   2.731 -2.1155 -0.9549 -2.4146
19764TIP3   OH280782   4.117   1.402  16.871 -0.3691  0.4766 -0.3573
19764TIP3    H180783   4.079   1.449  16.797 -1.0361  2.3492  1.0876
19764TIP3    H280784   4.179   1.464  16.910 -1.0448  0.0976  1.4315
19765TIP3   OH280785   1.412   5.406   1.819 -0.3776 -0.3952  0.1686
19765TIP3    H180786   1.508   5.402   1.819 -0.3587  0.1014  0.6633
19765TIP3    H280787   1.388   5.374   1.732  0.1338 -2.8071  0.8207
19766TIP3   OH280788   0.999   6.169  16.270  0.3415 -0.2409  0.2548
19766TIP3    H180789   1.085   6.189  16.307  0.2364 -0.7639  0.8058
19766TIP3    H280790   1.018   6.113  16.195  0.7025  2.5030 -1.8720
19767TIP3   OH280791   3.234   5.920   1.138  0.3927  0.4572 -0.7738
19767TIP3    H180792   3.293   5.847   1.157  1.9898  1.8575 -0.0729
19767TIP3    H280793   3.166   5.882   1.083  0.7414 -1.7217  0.1723
19768TIP3   OH280794   6.075   6.803  14.343  0.1286 -0.3179  0.0693
19768TIP3    H180795   6.111   6.797  14.431 -0.5410 -0.2323  0.3553
19768TIP3    H280796   5.982   6.784  14.354  0.1208 -0.7506 -0.6856
19769TIP3   OH280797   4.263   1.926  14.422  0.4816  0.2161  0.5934
19769TIP3    H180798   4.169   1.942  14.423 -0.0940 -2.1778 -2.0532
19769TIP3    H280799   4.300   2.001  14.376 -0.4603  0.1592 -0.2950
19770TIP3   OH280800   4.932   0.738  11.949 -0.3558 -0.0561  0.1736
19770TIP3    H180801   4.906   0.647  11.935 -0.1423 -0.1632  0.4617
19770TIP3    H280802   4.862   0.775  12.003 -0.8936  0.2014 -0.6840
19771TIP3   OH280803   2.006   2.978   0.394  0.1602  0.4696 -0.1523
19771TIP3    H180804   1.938   2.931   0.347  1.3119 -3.3742  1.6136
19771TIP3    H280805   1.974   2.984   0.484  0.9705  1.1852  0.1087
19772TIP3   OH280806   6.235   2.563   2.090  0.0423  0.1984  0.4001
19772TIP3    H180807   6.174   2.630   2.061  0.0863 -0.7664 -2.2399
19772TIP3    H280808   6.322   2.602   2.077  0.0431  0.1314  0.1955
19773TIP3   OH280809   0.813   0.066  15.795  0.2558 -0.1144 -0.5170
19773TIP3    H180810   0.798   0.040  15.886 -0.3212 -1.3189 -0.9387
19773TIP3    H280811   0.906   0.092  15.792 -0.0184  1.1128  0.6644
19774TIP3   OH280812   3.228   3.758  14.917  0.3919 -0.0115  0.1646
19774TIP3    H180813   3.248   3.673  14.955 -0.3030 -0.4738 -0.4944
19774TIP3    H280814   3.180   3.804  14.985 -1.2158 -0.9886 -0.2671
19775TIP3   OH280815   2.130   6.567  14.155  0.6726  0.3607  0.2779
19775TIP3    H180816   2.160   6.478  14.135 -2.8915 -1.3616  1.6884
19775TIP3    H280817   2.160   6.582  14.245  3.5625  1.8299 -0.8101
19776TIP3   OH280818   1.734   3.515   4.414 -0.0113  0.2125 -0.0380
19776TIP3    H180819   1.823   3.543   4.389  0.1367 -0.7521 -0.6539
19776TIP3    H280820   1.749   3.439   4.470 -0.4193  0.9751  1.1225
19777TIP3   OH280821   2.843   5.375  10.879 -0.4000  0.1154  0.5908
19777TIP3    H180822   2.754   5.353  10.851 -0.1960  1.9161 -1.8603
19777TIP3    H280823   2.899   5.337  10.811  0.2783  3.1116 -0.6806
19778TIP3   OH280824   5.851   5.303   0.081  0.0418 -0.2646  0.6616
19778TIP3    H180825   5.838   5.208   0.083  2.7362 -0.6887  1.9583
19778TIP3    H280826   5.936   5.317   0.122  0.7559  2.5650 -1.4782
19779TIP3   OH280827   0.115   2.408   5.004 -0.0634 -0.7045 -0.0819
19779TIP3    H180828   0.113   2.328   5.057 -1.3436 -0.4317  0.3199
19779TIP3    H280829   0.077   2.475   5.061 -1.0480 -0.2980 -1.1802
19780TIP3   OH280830   4.840   4.938   3.129 -0.4569 -0.1925 -0.2035
19780TIP3    H180831   4.764   4.982   3.091 -1.9080 -2.7724 -0.5026
19780TIP3    H280832   4.804   4.860   3.171  1.9064 -0.8438  0.7541
19781TIP3   OH280833   5.601   6.721  16.221  0.5324 -0.3258  0.3579
19781TIP3    H180834   5.654   6.764  16.288  0.3095  0.2505  0.1732
19781TIP3    H280835   5.645   6.741  16.139 -1.3811  2.5256 -0.1230
19782TIP3   OH280836   6.526   3.465  11.477  0.7911 -0.1072 -0.6140
19782TIP3    H180837   6.566   3.391  11.431 -0.3535 -0.4686 -1.0771
19782TIP3    H280838   6.587   3.537  11.464  1.3330 -0.6624 -1.2163
19783TIP3   OH280839   2.607   2.571  16.745  0.4300 -0.5742 -0.6128
19783TIP3    H180840   2.547   2.616  16.804 -0.8411  0.4649 -2.5978
19783TIP3    H280841   2.595   2.478  16.765  0.6997 -0.2482  1.3097
19784TIP3   OH280842   6.623   0.116  11.181  0.5381  0.0059 -0.5824
19784TIP3    H180843   6.548   0.129  11.123  1.3133  1.0288 -1.3946
19784TIP3    H280844   6.589   0.062  11.253 -0.5919 -0.7916 -1.6761
19785TIP3   OH280845   3.021   2.769  12.032 -0.0987  0.0381 -0.0954
19785TIP3    H180846   3.010   2.807  11.945  0.3573 -0.5185 -0.4053
19785TIP3    H280847   3.115   2.775  12.049 -0.3505  1.4002  0.9541
19786TIP3   OH280848   1.374   2.527   4.160 -0.0174  0.2346 -0.2548
19786TIP3    H180849   1.419   2.443   4.171  0.5722  0.5475 -0.2933
19786TIP3    H280850   1.369   2.539   4.065  1.1554  0.9171 -0.2390
19787TIP3   OH280851   5.819   4.211   2.971  0.1697 -0.0639  0.2802
19787TIP3    H180852   5.785   4.274   3.035  0.8474 -0.4472  1.0222
19787TIP3    H280853   5.761   4.136   2.978 -0.1840  0.1655 -0.0761
19788TIP3   OH280854   2.890   2.938   1.875 -0.6434  0.3656  0.6688
19788TIP3    H180855   2.977   2.929   1.836  0.1442 -0.3584  2.4450
19788TIP3    H280856   2.850   2.852   1.864 -1.7720  1.0858 -1.4202
19789TIP3   OH280857   1.346   1.990  12.325 -0.1016 -0.3399 -0.1682
19789TIP3    H180858   1.413   2.022  12.385 -0.4077  1.0202 -0.5070
19789TIP3    H280859   1.292   1.931  12.377 -0.5640  1.0713  1.0035
19790TIP3   OH280860   1.804   2.259   0.458 -0.1887  0.0160  0.0769
19790TIP3    H180861   1.809   2.249   0.553 -1.9124  1.4931  0.3762
19790TIP3    H280862   1.775   2.174   0.426 -1.3898  0.0168  1.0796
19791TIP3   OH280863   4.151   1.682  13.190 -0.6183 -0.4254 -0.7081
19791TIP3    H180864   4.116   1.597  13.162 -0.6582 -0.4079 -0.7124
19791TIP3    H280865   4.080   1.721  13.240 -0.9596  0.0274 -1.5378
19792TIP3   OH280866   6.801   5.653   2.250 -0.3329  0.1202 -0.1982
19792TIP3    H180867   6.872   5.677   2.190  0.1699  1.4036  0.8738
19792TIP3    H280868   6.820   5.701   2.330 -2.9679  1.3154 -0.2030
19793TIP3   OH280869   4.755   3.854  16.950  0.0980 -0.5992  0.0659
19793TIP3    H180870   4.827   3.802  16.986  2.0190  1.5988 -0.3225
19793TIP3    H280871   4.781   3.871  16.859 -2.2486 -1.9225 -0.9397
19794TIP3   OH280872   2.961   5.414   6.508 -0.6036 -0.6467  0.1322
19794TIP3    H180873   3.016   5.460   6.571 -3.1457 -0.2373  2.2439
19794TIP3    H280874   3.005   5.330   6.494  0.2398 -0.6119  2.2363
19795TIP3   OH280875   1.149   0.476   3.665  0.2153  0.5107 -0.1819
19795TIP3    H180876   1.224   0.532   3.644  0.5732  0.3101  0.5506
19795TIP3    H280877   1.087   0.534   3.709  0.2674  0.4974 -0.0920
19796TIP3   OH280878   6.441   3.879   1.855 -0.0307  0.3999 -0.3648
19796TIP3    H180879   6.408   3.967   1.873 -0.6029  0.4263 -1.4868
19796TIP3    H280880   6.418   3.862   1.764  1.6294 -0.2276 -0.7072
19797TIP3   OH280881   1.106   1.293   3.994 -0.3041  0.8137 -0.4784
19797TIP3    H180882   1.094   1.325   4.083 -1.3233 -0.8313  0.0159
19797TIP3    H280883   1.021   1.257   3.969  0.7528 -1.6197 -0.8985
19798TIP3   OH280884   5.376   3.551   2.604  0.0817  0.1826 -0.5348
19798TIP3    H180885   5.438   3.483   2.629  0.0160  0.8214  1.6241
19798TIP3    H280886   5.430   3.620   2.565  0.9718  1.1275  2.1485
19799TIP3   OH280887   1.802   0.221   1.037 -0.3293 -0.0578 -0.3872
19799TIP3    H180888   1.745   0.267   0.975 -0.0410  1.5497  0.4932
19799TIP3    H280889   1.890   0.232   1.000 -0.4221 -1.6663 -1.2071
19800TIP3   OH280890   4.321   5.097  10.707 -0.1231  0.1086  0.2592
19800TIP3    H180891   4.274   5.093  10.624 -1.0080  1.4585  0.6665
19800TIP3    H280892   4.301   5.184  10.742  0.5769 -0.2731  1.6884
19801TIP3   OH280893   0.438   6.513  14.962  0.0429 -0.2953  0.0413
19801TIP3    H180894   0.521   6.505  15.009  0.0140  2.6104  0.8033
19801TIP3    H280895   0.457   6.481  14.874  1.6928 -0.6072  0.4715
19802TIP3   OH280896   4.403   4.953  11.906 -0.6943 -0.9753 -0.2095
19802TIP3    H180897   4.455   4.939  11.826 -1.3482  0.4756 -0.9307
19802TIP3    H280898   4.449   5.022  11.953 -1.7646  0.1686 -0.7472
19803TIP3   OH280899   2.039   5.957  13.369  0.0592 -0.0321 -0.1699
19803TIP3    H180900   2.066   5.946  13.278 -2.7536 -0.7115 -1.0275
19803TIP3    H280901   1.989   6.039  13.369 -0.9878 -0.6606  0.4786
19804TIP3   OH280902   3.502   1.869  13.260 -0.2182  0.4046 -0.2185
19804TIP3    H180903   3.464   1.783  13.275  0.4056  0.4129  1.8196
19804TIP3    H280904   3.446   1.929  13.310 -0.5551  1.1695 -1.4768
19805TIP3   OH280905   6.271   6.725   6.039  0.1449 -0.1468 -0.3233
19805TIP3    H180906   6.361   6.753   6.055 -0.2196  0.4057  0.8390
19805TIP3    H280907   6.251   6.666   6.111 -0.8369  0.7353  0.1546
19806TIP3   OH280908   3.713   0.168   2.025 -0.1171  0.9480  0.3130
19806TIP3    H180909   3.783   0.231   2.010 -0.1090  0.8407 -0.1182
19806TIP3    H280910   3.755   0.097   2.074  0.2514  0.5670 -0.5280
19807TIP3   OH280911   1.695   5.527   5.128  0.4557 -0.5628 -0.1806
19807TIP3    H180912   1.676   5.434   5.137 -0.6278 -0.2592  0.8285
19807TIP3    H280913   1.786   5.535   5.156  0.6682 -1.3470 -0.5936
19808TIP3   OH280914   5.063   4.297  13.205 -0.1093 -0.1885  0.2595
19808TIP3    H180915   5.003   4.275  13.134  0.8583 -0.7903 -0.4024
19808TIP3    H280916   5.102   4.381  13.179  1.1858 -1.0165 -0.5904
19809TIP3   OH280917   3.107   5.700  10.644 -0.7481  0.1008 -0.7492
19809TIP3    H180918   3.021   5.659  10.652 -0.1867 -1.0372 -0.1645
19809TIP3    H280919   3.147   5.657  10.568  0.3156 -1.4210  0.5926
19810TIP3   OH280920   0.254   6.285   2.310  0.2055 -0.3197  0.3296
19810TIP3    H180921   0.164   6.263   2.334  0.3452 -0.9838  0.2511
19810TIP3    H280922   0.295   6.309   2.393 -0.8905  3.1914  0.0073
19811TIP3   OH280923   0.525   1.750  14.397  0.1054  0.5104  0.0745
19811TIP3    H180924   0.583   1.709  14.333 -0.3281 -1.5675  0.9082
19811TIP3    H280925   0.444   1.766  14.350 -0.0843 -0.6506 -0.0197
19812TIP3   OH280926   6.737   3.933   6.076  0.0555  0.5978 -0.7213
19812TIP3    H180927   6.735   3.953   6.170 -1.9447 -0.6752 -0.4278
19812TIP3    H280928   6.820   3.970   6.045  0.3624  1.8059  1.3616
19813TIP3   OH280929   0.257   4.880  13.622  0.5304 -0.1249 -0.4666
19813TIP3    H180930   0.239   4.903  13.713 -0.6670 -1.3580 -0.3697
19813TIP3    H280931   0.338   4.829  13.625  0.7447  0.2282 -0.1575
19814TIP3   OH280932   4.122   5.150  14.006  0.0365 -0.1817 -0.2235
19814TIP3    H180933   4.051   5.139  13.943 -0.9447  1.1209  0.6045
19814TIP3    H280934   4.116   5.073  14.062 -0.1270 -0.5302 -0.7131
19815TIP3   OH280935   0.256   3.989   0.437  0.1050 -0.4656  0.2729
19815TIP3    H180936   0.284   4.013   0.526  2.0435  0.7582 -0.5937
19815TIP3    H280937   0.338   3.985   0.387 -1.0567  0.5155 -1.8329
19816TIP3   OH280938   3.758   1.780  14.430  0.1973 -0.4553 -0.2896
19816TIP3    H180939   3.728   1.869  14.447  2.6126  0.7709 -1.8349
19816TIP3    H280940   3.679   1.733  14.403 -1.4870  0.6157  2.3761
19817TIP3   OH280941   5.053   5.856  13.402  0.1527 -0.2474 -0.0890
19817TIP3    H180942   4.969   5.864  13.448 -0.3536  0.0986 -1.0410
19817TIP3    H280943   5.045   5.776  13.351  0.5131 -0.3667  0.0434
19818TIP3   OH280944   4.580   0.540   6.166 -0.6533  0.2066 -0.3735
19818TIP3    H180945   4.551   0.505   6.081 -0.1883  2.0793 -1.3492
19818TIP3    H280946   4.675   0.544   6.159 -0.5627 -0.1976  0.4995
19819TIP3   OH280947   3.745   6.363  11.793 -0.4804  0.6531 -0.0813
19819TIP3    H180948   3.815   6.428  11.793 -0.3049  0.5042 -1.4743
19819TIP3    H280949   3.672   6.405  11.838 -0.4650  1.9460 -1.1991
19820TIP3   OH280950   2.174   1.753   1.813  0.3222 -0.7761  0.0681
19820TIP3    H180951   2.252   1.762   1.867  0.1049  1.0282  0.1354
19820TIP3    H280952   2.206   1.754   1.723  0.6455 -3.3829  0.0796
19821TIP3   OH280953   0.585   1.838   5.014 -0.1499 -0.2894 -0.6152
19821TIP3    H180954   0.579   1.912   5.075 -1.0058  0.5442 -1.6773
19821TIP3    H280955   0.679   1.823   5.005  0.0609  0.9507 -0.6959
19822TIP3   OH280956   5.215   0.108   1.765 -0.4460 -0.7646  0.3164
19822TIP3    H180957   5.146   0.062   1.716 -0.6766 -0.0460 -0.0416
19822TIP3    H280958   5.229   0.053   1.842  0.5137 -2.3808 -0.9311
19823TIP3   OH280959   1.920   1.353  11.724 -0.5962  0.6004  0.0576
19823TIP3    H180960   1.883   1.431  11.682  1.9400  1.5445 -0.6417
19823TIP3    H280961   1.973   1.312  11.655 -1.2271 -1.3304  0.6500
19824TIP3   OH280962   0.383   5.789  14.617 -0.4850 -0.2962 -0.2824
19824TIP3    H180963   0.476   5.775  14.636 -0.9571 -0.0668  2.5810
19824TIP3    H280964   0.337   5.748  14.690 -2.6827 -0.4769 -1.6785
19825TIP3   OH280965   2.759   0.521   3.705 -0.0075 -0.2756  0.0546
19825TIP3    H180966   2.768   0.485   3.793  1.0758  2.0394  0.9675
19825TIP3    H280967   2.834   0.487   3.657  0.4584 -0.0380  0.6011
19826TIP3   OH280968   0.145   6.688  11.215 -0.2881 -0.0282 -0.3143
19826TIP3    H180969   0.145   6.780  11.190 -1.0112  0.0175 -0.1638
19826TIP3    H280970   0.101   6.643  11.144  1.6106 -0.5261 -1.2525
19827TIP3   OH280971   5.855   5.877   1.587  0.0147  0.2088  0.2082
19827TIP3    H180972   5.904   5.795   1.576 -0.1064  0.2370 -0.5800
19827TIP3    H280973   5.769   5.857   1.551 -0.1985  0.5131  0.5470
19828TIP3   OH280974   6.363   2.859   1.631  0.1583 -0.1481  0.2613
19828TIP3    H180975   6.436   2.831   1.686  1.1484  0.6440 -0.6043
19828TIP3    H280976   6.391   2.838   1.542 -0.3067  0.9440 -0.1583
19829TIP3   OH280977   6.747   1.281   5.268 -0.2250  0.0249 -0.2440
19829TIP3    H180978   6.738   1.204   5.213 -1.7482  0.7959 -1.1376
19829TIP3    H280979   6.741   1.248   5.358 -1.2457 -0.8613 -0.6255
19830TIP3   OH280980   3.229   1.414  11.792 -0.5628  0.7465  0.1319
19830TIP3    H180981   3.204   1.338  11.844  0.3010 -0.4197 -1.1074
19830TIP3    H280982   3.323   1.404  11.778 -0.2885  2.4141  0.4986
19831TIP3   OH280983   3.446   0.279  15.229 -0.1599  0.1005  0.0181
19831TIP3    H180984   3.369   0.275  15.172 -0.3030 -0.4809  0.2430
19831TIP3    H280985   3.418   0.238  15.310  0.3713 -0.0675  0.1206
19832TIP3   OH280986   1.243   6.288  13.421  0.5460 -0.5794 -0.1343
19832TIP3    H180987   1.197   6.290  13.504  1.7996  1.8308  0.5935
19832TIP3    H280988   1.252   6.195  13.400 -0.1636 -1.2224  2.1891
19833TIP3   OH280989   0.571   3.768  16.422 -0.0542 -1.0166 -0.0890
19833TIP3    H180990   0.594   3.821  16.345 -1.7292  0.2052  0.1792
19833TIP3    H280991   0.523   3.693  16.386  1.6573 -1.9936 -0.4133
19834TIP3   OH280992   6.727   3.255   5.697 -0.2395 -0.1122 -0.0565
19834TIP3    H180993   6.723   3.326   5.761 -2.9457 -0.3008  0.1213
19834TIP3    H280994   6.655   3.274   5.637 -0.1564 -1.9872 -0.8054
19835TIP3   OH280995   5.110   6.807   0.763 -0.7261  0.0558  0.2908
19835TIP3    H180996   5.143   6.724   0.729  1.1090  1.4612 -1.6368
19835TIP3    H280997   5.068   6.849   0.688 -1.2002  1.0598  1.0935
19836TIP3   OH280998   2.991   0.626  12.853 -0.3465  0.3772  0.0699
19836TIP3    H180999   3.074   0.623  12.806  0.1128  0.2599  0.8692
19836TIP3    H281000   2.957   0.536  12.848  0.3772  0.0192  1.1180
19837TIP3   OH281001   3.601   5.453   3.571 -0.4953  0.0397  0.1270
19837TIP3    H181002   3.687   5.472   3.609 -0.3116  1.9401 -1.1095
19837TIP3    H281003   3.600   5.357   3.562  1.5962 -0.0159 -0.0666
19838TIP3   OH281004   3.176   6.000  16.955 -0.0768 -0.1921 -0.2114
19838TIP3    H181005   3.234   5.924  16.961 -0.6802 -0.8327 -1.9647
19838TIP3    H281006   3.103   5.978  17.013  0.8285  0.0986  1.0846
19839TIP3   OH281007   1.854   0.875  15.586  0.0695  0.3606  0.0780
19839TIP3    H181008   1.810   0.841  15.665  1.0389  1.3718  1.0977
19839TIP3    H281009   1.796   0.944  15.554  0.0413  0.4728  0.3670
19840TIP3   OH281010   3.342   6.429   2.946 -0.0328 -0.0738  0.1903
19840TIP3    H181011   3.365   6.349   2.994 -2.4492 -1.8827 -1.4463
19840TIP3    H281012   3.274   6.470   3.000  0.8527  0.7002  0.7728
19841TIP3   OH281013   1.726   2.270   5.745 -0.1916  0.5542  0.1316
19841TIP3    H181014   1.672   2.200   5.707  0.1588  0.3943 -0.0854
19841TIP3    H281015   1.672   2.348   5.740  0.1689  0.7348 -1.5750
19842TIP3   OH281016   2.793   1.363   4.210  0.5096 -0.4206  0.0425
19842TIP3    H181017   2.881   1.331   4.187  0.8466 -0.6578  1.5960
19842TIP3    H281018   2.743   1.353   4.129  1.8499 -0.4952 -0.8151
19843TIP3   OH281019   5.791   2.658   4.403  0.4975  0.3229 -0.2756
19843TIP3    H181020   5.710   2.611   4.425  0.8100  0.8298  2.2396
19843TIP3    H281021   5.819   2.619   4.320 -1.4004 -1.0632 -0.3418
19844TIP3   OH281022   0.139   2.249  13.566 -0.1108 -0.1286 -0.0120
19844TIP3    H181023   0.189   2.171  13.542  1.9945  0.9676  0.5578
19844TIP3    H281024   0.049   2.229  13.539  0.3166 -2.7802  0.2476
19845TIP3   OH281025   1.998   2.166   5.574 -0.1291  0.3495 -0.7946
19845TIP3    H181026   1.980   2.123   5.491  1.0122  0.8776 -1.3307
19845TIP3    H281027   1.975   2.101   5.640 -1.8482  0.2156 -1.4720
19846TIP3   OH281028   6.157   1.541  14.302 -0.2739  0.2464  0.5905
19846TIP3    H181029   6.076   1.589  14.291 -0.3862  0.9880  3.6462
19846TIP3    H281030   6.225   1.608  14.300 -0.1756  0.2276  2.1661
19847TIP3   OH281031   0.348   6.502  12.381  0.0827 -0.0916  0.2361
19847TIP3    H181032   0.362   6.407  12.373  0.4860 -0.2111  1.9800
19847TIP3    H281033   0.253   6.511  12.389  0.1317 -0.5471  1.7505
19848TIP3   OH281034   5.498   5.465  14.155  0.0510 -0.0291 -0.8701
19848TIP3    H181035   5.521   5.480  14.063  0.8046 -1.0379 -0.8602
19848TIP3    H281036   5.443   5.386  14.154  1.0500 -0.7472 -0.3463
19849TIP3   OH281037   3.617   0.857   4.704  0.7682  0.5067  0.0550
19849TIP3    H181038   3.589   0.772   4.736  0.5759  0.4435 -0.2681
19849TIP3    H281039   3.634   0.909   4.782  0.2991  0.3595  0.2577
19850TIP3   OH281040   2.506   1.371   4.945  0.2056 -0.1865  0.2220
19850TIP3    H181041   2.422   1.365   4.900 -1.3410  3.6728  2.1548
19850TIP3    H281042   2.567   1.403   4.879 -1.0890  1.6437 -0.1618
19851TIP3   OH281043   1.456   3.445   5.355 -0.0040 -0.4079  0.2426
19851TIP3    H181044   1.384   3.467   5.414  1.6324  0.8416  1.8632
19851TIP3    H281045   1.535   3.451   5.409  1.5564  0.4297 -1.9729
19852TIP3   OH281046   2.679   6.155  11.656  0.0512 -0.0135  0.2847
19852TIP3    H181047   2.602   6.123  11.609  0.7192 -1.2743  0.0226
19852TIP3    H281048   2.717   6.077  11.696  1.1284  0.6181  0.5270
19853TIP3   OH281049   3.666   5.718  15.983  0.0206 -0.6412  0.0625
19853TIP3    H181050   3.573   5.699  15.972 -0.0726 -0.0870 -0.1843
19853TIP3    H281051   3.672   5.813  15.971  0.4944 -0.5490  0.9222
19854TIP3   OH281052   3.466   1.139  16.293 -0.1686 -0.6993  0.0228
19854TIP3    H181053   3.392   1.106  16.345  0.1532 -0.3416  0.7165
19854TIP3    H281054   3.506   1.060  16.255 -0.6952 -0.9214 -0.0808
19855TIP3   OH281055   4.333   4.990   4.911  0.3593  0.2109 -0.6816
19855TIP3    H181056   4.275   4.977   4.986  1.4631 -1.8488 -0.1028
19855TIP3    H281057   4.405   4.928   4.926  1.6235  1.1799 -2.4422
19856TIP3   OH281058   1.476   4.425  16.096 -0.2176 -0.1926 -0.2849
19856TIP3    H181059   1.505   4.499  16.149 -1.1591  0.0733 -0.1189
19856TIP3    H281060   1.556   4.390  16.057  0.1022  1.8601 -1.6191
19857TIP3   OH281061   1.104   1.041   4.252 -0.1116 -0.0842  0.0863
19857TIP3    H181062   1.068   1.127   4.232  0.2720 -0.1644 -1.0197
19857TIP3    H281063   1.040   0.979   4.218  0.0966 -0.2342 -0.0360
19858TIP3   OH281064   4.235   6.279   5.954  0.8431  0.7049  0.3009
19858TIP3    H181065   4.229   6.371   5.926 -1.9744  0.2192 -1.0578
19858TIP3    H281066   4.286   6.237   5.885  0.6300  0.9468 -0.0092
19859TIP3   OH281067   2.726   5.624   0.373 -0.3382 -0.2226  0.2097
19859TIP3    H181068   2.693   5.571   0.301 -0.4664 -0.5363  0.5028
19859TIP3    H281069   2.669   5.605   0.446  0.4540 -0.7403  0.7073
19860TIP3   OH281070   1.690   4.805   1.477 -0.2326  0.2388  0.2875
19860TIP3    H181071   1.623   4.786   1.412  0.1391 -1.2342  0.2799
19860TIP3    H281072   1.757   4.853   1.429  0.4444 -1.5774 -0.6942
19861TIP3   OH281073   2.651   0.113  14.006 -0.5738 -0.5963  0.2200
19861TIP3    H181074   2.684   0.199  14.035 -3.6878  0.7521  0.1783
19861TIP3    H281075   2.727   0.055  14.013  1.4620  1.9438  1.0887
19862TIP3   OH281076   3.433   0.085   5.695  0.0519 -0.3496  0.0880
19862TIP3    H181077   3.391   0.092   5.609  0.4029 -2.0505 -0.2593
19862TIP3    H281078   3.408  -0.001   5.728 -0.4292  0.4396  1.9230
19863TIP3   OH281079   6.701   3.375  12.356 -0.1642  0.5510 -0.3391
19863TIP3    H181080   6.687   3.389  12.450 -3.1911  0.2395 -0.6346
19863TIP3    H281081   6.734   3.459  12.325  3.3774 -0.0408  1.2654
19864TIP3   OH281082   6.601   6.109  12.571  0.5318  0.0450  0.1274
19864TIP3    H181083   6.551   6.034  12.604  0.2550  0.6087  1.0361
19864TIP3    H281084   6.689   6.095  12.606  0.3740  0.3622  0.6509
19865TIP3   OH281085   0.257   3.350   3.614  0.1641  0.5656 -0.0053
19865TIP3    H181086   0.291   3.261   3.623  0.5678  0.5539 -1.4171
19865TIP3    H281087   0.334   3.406   3.619 -0.1560  0.9125  1.5178
19866TIP3   OH281088   0.511   2.302   3.343  0.0869  0.4233  0.7429
19866TIP3    H181089   0.483   2.393   3.349 -1.9500 -0.2583  2.7017
19866TIP3    H281090   0.471   2.271   3.261  0.2910  1.1073  0.3733
19867TIP3   OH281091   6.528   5.226  13.019  0.1441 -0.2066  0.3857
19867TIP3    H181092   6.524   5.134  13.045 -0.3346 -0.4049 -0.3716
19867TIP3    H281093   6.466   5.270  13.077  2.3593  0.1484  2.6844
19868TIP3   OH281094   6.282   5.387  11.418 -0.3926 -0.7188  0.2499
19868TIP3    H181095   6.207   5.328  11.415 -0.2327 -0.9348 -2.6226
19868TIP3    H281096   6.349   5.339  11.466 -1.4924 -1.2612  1.2797
19869TIP3   OH281097   5.559   6.433  14.527 -0.4994  0.2940 -0.1895
19869TIP3    H181098   5.552   6.416  14.433 -1.9640 -1.0081  0.1096
19869TIP3    H281099   5.635   6.381  14.555 -2.2659 -2.4038 -0.0727
19870TIP3   OH281100   0.800   6.445  13.467  0.3021 -0.4795 -0.0978
19870TIP3    H181101   0.731   6.389  13.503  0.1049 -0.1853 -0.0090
19870TIP3    H281102   0.752   6.509  13.413  0.5651 -0.7123 -0.6152
19871TIP3   OH281103   2.681   1.152  14.265 -0.2136  0.0059  0.0303
19871TIP3    H181104   2.712   1.199  14.343  1.2743  0.8871 -1.0412
19871TIP3    H281105   2.647   1.069  14.299 -1.4087  1.1533  1.7997
19872TIP3   OH281106   2.108   0.892   2.798  0.9198  0.6444 -0.1732
19872TIP3    H181107   2.181   0.857   2.849  1.1842  1.0816 -0.2474
19872TIP3    H281108   2.079   0.819   2.744  1.8107  0.6893 -0.7174
19873TIP3   OH281109   5.199   0.807  13.172 -0.4303  0.8029 -0.7998
19873TIP3    H181110   5.156   0.854  13.101 -1.1543 -0.7053 -1.4065
19873TIP3    H281111   5.291   0.801  13.145 -0.7637 -0.0696 -1.8195
19874TIP3   OH281112   2.543   3.455  10.852  0.0090  0.4536 -0.0673
19874TIP3    H181113   2.556   3.392  10.781  0.1063 -0.3151  0.6217
19874TIP3    H281114   2.554   3.541  10.810 -0.5828  0.0365 -1.1092
19875TIP3   OH281115   4.932   3.069   2.125 -0.2184  0.0221 -0.4075
19875TIP3    H181116   4.868   3.084   2.195 -1.0319 -1.1785 -0.8599
19875TIP3    H281117   4.938   3.153   2.079  0.7099  0.9947  1.3726
19876TIP3   OH281118   6.493   2.433   5.079 -0.1356  0.0874  0.4077
19876TIP3    H181119   6.421   2.461   5.136  0.1823 -0.2054  0.9546
19876TIP3    H281120   6.480   2.339   5.068 -1.5022  0.4564 -1.8487
19877TIP3   OH281121   6.135   5.284  16.478 -0.2849  0.1558  0.1268
19877TIP3    H181122   6.201   5.234  16.526  0.5647 -0.3838 -1.5330
19877TIP3    H281123   6.063   5.223  16.466 -0.5900  0.3552  0.8278
19878TIP3   OH281124   2.047   5.052  12.102 -0.0722  0.3389 -0.8204
19878TIP3    H181125   2.063   5.115  12.172 -3.4635  1.4357 -0.8527
19878TIP3    H281126   2.029   4.970  12.148  0.9992  0.2056 -0.6127
19879TIP3   OH281127   1.543   4.529   1.856  0.2711  0.1031  0.2097
19879TIP3    H181128   1.482   4.552   1.786 -0.5306 -2.2567  0.0348
19879TIP3    H281129   1.509   4.574   1.934 -0.4619  0.5096 -0.3329
19880TIP3   OH281130   2.817   0.488   5.222 -0.5583  0.4359 -0.2224
19880TIP3    H181131   2.839   0.572   5.181  0.2495  0.5154  0.3337
19880TIP3    H281132   2.892   0.432   5.204 -1.5932 -0.5651 -1.5828
19881TIP3   OH281133   0.881   0.878  12.824  0.0026 -0.2996 -0.2143
19881TIP3    H181134   0.862   0.822  12.750  2.8350 -0.2929 -1.0361
19881TIP3    H281135   0.936   0.948  12.788 -0.9514  1.3688  1.3630
19882TIP3   OH281136   3.769   3.551  13.770  0.1048  0.2409 -0.0753
19882TIP3    H181137   3.766   3.606  13.692  0.5093  0.5392  0.1135
19882TIP3    H281138   3.688   3.501  13.767 -0.8251  1.6639  0.3344
19883TIP3   OH281139   6.522   1.362   2.815  0.2804  0.2252 -0.1777
19883TIP3    H181140   6.485   1.403   2.737 -0.4301 -0.8175 -0.4138
19883TIP3    H281141   6.447   1.344   2.871  0.5890 -0.6090 -0.0203
19884TIP3   OH281142   2.551   2.304   4.892 -0.5634  0.8520 -0.2725
19884TIP3    H181143   2.619   2.266   4.836  0.5116  0.7689  1.0416
19884TIP3    H281144   2.594   2.377   4.937 -1.8891  2.0133 -0.8138
19885TIP3   OH281145   2.689   1.668   3.991  0.9145 -0.3588  0.0265
19885TIP3    H181146   2.631   1.686   4.065  3.4746  1.3005  1.7889
19885TIP3    H281147   2.686   1.748   3.937 -0.7294 -1.4536 -1.6268
19886TIP3   OH281148   6.445   1.667  15.705  0.1706  0.8403  0.0647
19886TIP3    H181149   6.427   1.591  15.759  1.8756  0.0396 -0.4098
19886TIP3    H281150   6.494   1.726  15.763  0.6479  0.6536 -0.1382
19887TIP3   OH281151   3.578   6.195   1.767  0.4777  0.3636 -0.3276
19887TIP3    H181152   3.621   6.265   1.815 -1.9235  0.9204  1.1761
19887TIP3    H281153   3.484   6.207   1.784 -0.1483 -2.2423 -1.3405
19888TIP3   OH281154   3.095   4.152  13.735 -0.3164 -0.2944  0.2567
19888TIP3    H181155   3.137   4.236  13.756 -1.5039  0.2476  0.5601
19888TIP3    H281156   3.011   4.177  13.696 -0.3163 -1.3494 -0.4619
19889TIP3   OH281157   3.442   3.891  12.183  0.2603  0.4644 -0.1514
19889TIP3    H181158   3.484   3.829  12.123  1.6638  2.1534 -0.9977
19889TIP3    H281159   3.369   3.927  12.134  0.3093  0.5271 -0.1778
19890TIP3   OH281160   2.108   6.643  15.911 -0.3320  0.4102  0.1225
19890TIP3    H181161   2.182   6.695  15.880  0.2243  1.4055  2.8486
19890TIP3    H281162   2.031   6.687  15.874  0.3233 -0.2566 -2.2001
19891TIP3   OH281163   4.432   5.039   3.985 -0.3463  0.2452  0.5050
19891TIP3    H181164   4.498   4.977   4.015  1.4077  1.7824 -0.0464
19891TIP3    H281165   4.399   5.000   3.904  0.3937 -0.1981  0.4074
19892TIP3   OH281166   5.904   0.808   4.553  0.0765  0.1241 -0.7435
19892TIP3    H181167   5.909   0.904   4.545  0.6788  0.1578 -0.1480
19892TIP3    H281168   5.920   0.775   4.465 -1.3547  0.5918 -1.2033
19893TIP3   OH281169   3.795   0.916   5.577  0.1684  0.1241 -0.0344
19893TIP3    H181170   3.815   0.935   5.669  0.3956 -0.1760 -0.0193
19893TIP3    H281171   3.720   0.857   5.581  1.2840 -1.3476  0.0397
19894TIP3   OH281172   1.275   0.071  11.044  0.2834  0.1141 -0.3608
19894TIP3    H181173   1.236   0.055  11.130  1.1369  0.5940  0.1351
19894TIP3    H281174   1.206   0.115  10.994  0.4485  1.7981  0.8017
19895TIP3   OH281175   6.241   4.912  17.036  0.5505 -0.2360  0.2120
19895TIP3    H181176   6.157   4.899  17.079 -0.9212  0.2422 -2.2981
19895TIP3    H281177   6.273   4.995  17.070 -0.2976 -0.1292  0.7598
19896TIP3   OH281178   2.854   1.344   1.235  0.2626 -0.0710 -0.1803
19896TIP3    H181179   2.834   1.388   1.152  1.8840 -0.7178 -0.9530
19896TIP3    H281180   2.808   1.260   1.229  2.6174 -1.3567 -1.7480
19897TIP3   OH281181   0.307   0.357  11.158 -0.2402  0.3530 -0.1507
19897TIP3    H181182   0.262   0.309  11.228  1.2586 -0.5298  0.2395
19897TIP3    H281183   0.259   0.439  11.151 -2.2005 -0.7218 -0.0647
19898TIP3   OH281184   6.083   1.221   3.022 -0.7755  0.3131  0.7251
19898TIP3    H181185   5.987   1.215   3.029 -0.6853 -0.4903  1.3665
19898TIP3    H281186   6.116   1.152   3.079  0.1863  0.0113 -0.1647
19899TIP3   OH281187   3.872   2.973  14.463 -0.1142  0.4926  0.2407
19899TIP3    H181188   3.890   3.066  14.475  1.3302  0.2232  0.3438
19899TIP3    H281189   3.862   2.939  14.552  0.8882  0.2766  0.2768
19900TIP3   OH281190   4.948   0.542  16.114 -0.2019 -0.3173 -0.0418
19900TIP3    H181191   4.968   0.523  16.023 -0.6701 -2.1173  0.2082
19900TIP3    H281192   4.944   0.638  16.118 -0.9766 -0.2161 -2.0841
19901TIP3   OH281193   4.075   0.631  11.986  0.2634  0.1823 -0.1604
19901TIP3    H181194   4.019   0.605  12.059  0.7819 -0.1714  0.1155
19901TIP3    H281195   4.152   0.576  11.994  0.5062  0.4325 -0.7365
19902TIP3   OH281196   0.042   1.442  15.032  0.4033  0.1361 -0.4186
19902TIP3    H181197   0.134   1.419  15.045  0.1677  0.1137  1.5577
19902TIP3    H281198   0.025   1.511  15.096 -0.5344  1.4186 -1.9577
19903TIP3   OH281199   4.673   6.232  10.913  0.1903  0.3340  0.2469
19903TIP3    H181200   4.670   6.327  10.920 -1.1349  0.3115  0.2757
19903TIP3    H281201   4.763   6.209  10.937  0.8234  1.6395 -0.7527
19904TIP3   OH281202   0.006   4.971   3.914  0.9700 -0.0289 -0.4845
19904TIP3    H181203   0.094   4.986   3.877  0.5030  0.0544 -1.6191
19904TIP3    H281204  -0.052   5.024   3.858  0.3707  1.3199  1.3187
19905TIP3   OH281205   0.182   0.196   0.529  0.0769  0.3770  0.4408
19905TIP3    H181206   0.132   0.276   0.515  0.0604  0.1485 -0.9525
19905TIP3    H281207   0.272   0.219   0.506 -0.1681 -0.3457 -1.4099
19906TIP3   OH281208   3.878   5.786   1.479 -0.2739 -0.9338  0.1417
19906TIP3    H181209   3.871   5.715   1.544 -2.3290 -0.1195  0.8714
19906TIP3    H281210   3.948   5.757   1.420  2.0535 -1.4922  2.9461
19907TIP3   OH281211   3.255   5.825   5.418  0.0257  0.3577 -0.2286
19907TIP3    H181212   3.266   5.753   5.481 -1.4277  0.9071  0.7076
19907TIP3    H281213   3.225   5.898   5.471  3.4939  2.4084 -0.7754
19908TIP3   OH281214   3.918   1.637   4.326  0.0215  0.6301  0.0439
19908TIP3    H181215   3.949   1.585   4.401 -0.2182  0.3256 -0.0645
19908TIP3    H281216   3.876   1.573   4.268  0.1657  0.8711 -0.3305
19909TIP3   OH281217   2.971   3.793   4.548 -0.2090  0.1993 -0.1758
19909TIP3    H181218   3.048   3.742   4.572  0.2370  1.8582  2.2847
19909TIP3    H281219   2.915   3.789   4.625 -1.0381  1.8011 -0.6576
19910TIP3   OH281220   0.123   6.046  11.805  0.5512  0.3238  0.3982
19910TIP3    H181221   0.128   6.005  11.891 -1.5412 -1.6276 -0.2932
19910TIP3    H281222   0.200   6.012  11.758  0.7288 -0.0406  0.9461
19911TIP3   OH281223   6.145   0.507   2.411  0.1427  0.6514  0.1077
19911TIP3    H181224   6.206   0.508   2.337  0.5239  0.3158  0.4176
19911TIP3    H281225   6.200   0.517   2.488 -0.0311 -0.9956  0.4885
19912TIP3   OH281226   3.625   4.492  15.962  0.3138  0.0675 -0.9798
19912TIP3    H181227   3.552   4.435  15.986  0.6220  0.0270 -0.1116
19912TIP3    H281228   3.693   4.472  16.026  1.6606 -0.9774 -2.6679
19913TIP3   OH281229   6.061   5.086   4.784 -0.2288 -0.5152  0.4495
19913TIP3    H181230   6.074   5.050   4.871 -2.0664 -0.6448  0.7210
19913TIP3    H281231   6.148   5.112   4.754  0.6110 -1.7612  1.7441
19914TIP3   OH281232   5.374   3.705   1.362 -0.1939  0.4225  0.3820
19914TIP3    H181233   5.396   3.775   1.300 -1.5828  1.5441  1.1172
19914TIP3    H281234   5.300   3.660   1.321 -1.5333  1.5606  1.4369
19915TIP3   OH281235   5.657   4.546   4.342 -0.0543 -0.1081 -0.4186
19915TIP3    H181236   5.676   4.568   4.433 -0.4761 -0.8546 -0.1445
19915TIP3    H281237   5.730   4.583   4.293 -0.2498  1.0345  0.1288
19916TIP3   OH281238   2.995   5.171  14.814 -0.2200  0.4223  0.0302
19916TIP3    H181239   3.053   5.096  14.829 -1.8819 -0.9929 -0.3784
19916TIP3    H281240   2.998   5.219  14.896  0.2118 -0.5568  0.6131
19917TIP3   OH281241   0.617   3.827   1.061 -0.3252  0.0831  0.0674
19917TIP3    H181242   0.560   3.867   1.127  0.4409  0.3043  0.6138
19917TIP3    H281243   0.579   3.740   1.046 -1.0261  0.3768  0.1301
19918TIP3   OH281244   5.223   4.731  15.115  0.2269  0.1595  0.6913
19918TIP3    H181245   5.271   4.800  15.069 -0.6012  0.2124 -0.1060
19918TIP3    H281246   5.132   4.741  15.087  0.1478 -1.4865  0.2841
19919TIP3   OH281247   6.793   3.589   2.429 -0.3542  0.4736 -0.2367
19919TIP3    H181248   6.770   3.637   2.508  1.2266  1.6494 -0.4494
19919TIP3    H281249   6.723   3.612   2.366 -0.2876  1.5180  0.0548
19920TIP3   OH281250   3.807   5.937  15.775  0.6005  0.0630  0.1334
19920TIP3    H181251   3.897   5.909  15.790  0.6217 -0.8567 -1.4121
19920TIP3    H281252   3.756   5.856  15.783  0.0466  0.3960  0.0153
19921TIP3   OH281253   2.822   3.491   0.763 -0.0854  0.0482 -0.4245
19921TIP3    H181254   2.752   3.427   0.773  2.4663 -2.8997  0.2455
19921TIP3    H281255   2.821   3.541   0.845 -2.0533  0.8746 -0.9113
19922TIP3   OH281256   5.545   0.557  13.499  0.0405 -0.3106  0.0619
19922TIP3    H181257   5.454   0.548  13.470 -0.2787 -1.0144  1.2034
19922TIP3    H281258   5.593   0.579  13.420 -1.0806 -0.2329 -0.6219
19923TIP3   OH281259   4.206   6.040   1.016 -0.2130  0.4293 -1.1099
19923TIP3    H181260   4.122   6.053   1.060  0.0991 -2.3154  0.5797
19923TIP3    H281261   4.188   6.055   0.923 -2.1389  1.5418 -0.6013
19924TIP3   OH281262   5.765   2.046   3.138 -0.2295  0.3803  0.0131
19924TIP3    H181263   5.759   2.005   3.052 -0.9477 -1.1301  0.7601
19924TIP3    H281264   5.835   1.999   3.183 -1.4083 -0.4089  1.0659
19925TIP3   OH281265   4.976   5.368   5.940 -0.2152  0.4242  0.6270
19925TIP3    H181266   4.930   5.325   5.868  1.3866 -1.0641  0.4215
19925TIP3    H281267   5.043   5.422   5.897 -0.5975  1.1864  0.9651
19926TIP3   OH281268   5.764   2.073   4.971  0.2725 -0.1227  0.1327
19926TIP3    H181269   5.689   2.130   4.989 -0.1845 -0.3137 -1.0189
19926TIP3    H281270   5.774   2.020   5.050 -1.1859 -0.4907  0.1029
19927TIP3   OH281271   4.212   3.141  10.103 -0.0683  0.6194  0.1066
19927TIP3    H181272   4.274   3.069  10.090 -1.3739 -0.6778  0.8002
19927TIP3    H281273   4.256   3.218  10.065  1.0614 -0.6686 -1.3150
19928TIP3   OH281274   0.582   4.273   4.368  0.2714 -0.4983 -0.6380
19928TIP3    H181275   0.643   4.273   4.441 -0.6375  0.1853  0.1506
19928TIP3    H281276   0.614   4.204   4.310  2.2263  0.3476 -0.6493
19929TIP3   OH281277   3.706   1.641   4.780  0.4060 -0.0677  0.0296
19929TIP3    H181278   3.690   1.733   4.757  0.5551 -0.3688 -1.4021
19929TIP3    H281279   3.622   1.597   4.765 -0.2455  0.1251  2.6187
19930TIP3   OH281280   6.171   2.297   5.147  0.1338 -0.3481 -0.6992
19930TIP3    H181281   6.241   2.249   5.103 -0.0598 -0.8044 -0.5172
19930TIP3    H281282   6.205   2.386   5.158  0.1605 -0.1997 -1.8272
19931TIP3   OH281283   5.397   2.387   1.838  0.0779  0.0156  0.7153
19931TIP3    H181284   5.363   2.394   1.748  0.1520  0.3628  0.7125
19931TIP3    H281285   5.323   2.354   1.889 -0.3728  1.0730  0.7687
19932TIP3   OH281286   1.030   0.532   6.050  0.1955  0.4630  0.2322
19932TIP3    H181287   1.044   0.615   6.003 -0.7473  0.1954 -0.5552
19932TIP3    H281288   1.036   0.465   5.982  2.0692 -0.2500  1.0308
19933TIP3   OH281289   1.175   1.022   0.055 -0.3790  0.1631  0.3340
19933TIP3    H181290   1.171   0.986   0.144  0.3058  1.7857  1.0669
19933TIP3    H281291   1.113   1.095   0.056  0.1825  0.6623 -0.2831
19934TIP3   OH281292   6.129   4.283  15.450  0.5084  0.3433 -0.5898
19934TIP3    H181293   6.175   4.274  15.534  0.5097 -0.5392 -0.6736
19934TIP3    H281294   6.125   4.377  15.435  1.0599  0.4878  0.1014
19935TIP3   OH281295   1.766   2.714  14.670  0.2399 -0.7667  0.1111
19935TIP3    H181296   1.695   2.740  14.729 -0.1870  1.0079 -1.0862
19935TIP3    H281297   1.722   2.675  14.595  0.6114 -0.7275 -0.1286
19936TIP3   OH281298   1.011   5.994   2.389  0.2764 -0.1684  0.2452
19936TIP3    H181299   0.974   5.922   2.338  1.2594 -0.7133  0.2917
19936TIP3    H281300   1.091   6.019   2.342  1.8677 -1.4815  2.0979
19937TIP3   OH281301   5.155   5.713   2.779 -0.2975 -0.5091 -0.2273
19937TIP3    H181302   5.073   5.678   2.813 -0.5249 -1.0519 -1.2783
19937TIP3    H281303   5.188   5.771   2.848 -1.0914 -1.0095  0.5823
19938TIP3   OH281304   3.529   6.349   2.126 -0.5636  0.2618 -0.3527
19938TIP3    H181305   3.443   6.312   2.104 -0.8127  0.8377 -0.3802
19938TIP3    H281306   3.517   6.444   2.115  0.1988  0.3154 -0.7853
19939TIP3   OH281307   1.891   5.180  15.625  0.4215 -0.1188  0.3434
19939TIP3    H181308   1.837   5.136  15.560 -1.2404  1.4609  0.5672
19939TIP3    H281309   1.901   5.269  15.592  1.7196  0.0116  1.0139
19940TIP3   OH281310   5.571   6.166   2.810  0.3514  0.0656  0.1718
19940TIP3    H181311   5.536   6.088   2.768  1.0029 -0.3682  0.4300
19940TIP3    H281312   5.664   6.147   2.825  0.1750  0.2404  1.7013
19941TIP3   OH281313   0.434   4.643   5.590  0.4555  0.6986  0.3104
19941TIP3    H181314   0.400   4.732   5.580  1.5330  1.2970  1.6561
19941TIP3    H281315   0.359   4.591   5.616  0.0750  1.4968  0.8470
19942TIP3   OH281316   1.402   6.809  13.189 -0.2844  0.4987 -0.5826
19942TIP3    H181317   1.435   6.740  13.247 -1.4803 -1.9049 -2.5639
19942TIP3    H281318   1.344   6.861  13.245 -0.4303 -0.9434  0.6829
19943TIP3   OH281319   2.202   2.833  11.895  0.5135 -0.1878  0.2424
19943TIP3    H181320   2.277   2.786  11.859  0.5051  0.3261 -0.4557
19943TIP3    H281321   2.239   2.915  11.928  0.3699 -0.2447  0.5533
19944TIP3   OH281322   1.673   4.089  14.957  0.6829 -0.6497  0.0867
19944TIP3    H181323   1.765   4.069  14.973  0.4397 -1.2788  0.7710
19944TIP3    H281324   1.626   4.040  15.025 -0.0582  0.8967  0.7310
19945TIP3   OH281325   4.672   5.665   0.824 -0.2671 -0.0781  0.0841
19945TIP3    H181326   4.645   5.681   0.734 -2.8303 -0.1617  0.7736
19945TIP3    H281327   4.734   5.735   0.843 -1.6363  1.4825 -0.9367
19946TIP3   OH281328   0.170   1.760   5.932 -0.6243 -0.3366  0.1169
19946TIP3    H181329   0.206   1.775   6.019  0.5665  0.8174 -0.5188
19946TIP3    H281330   0.186   1.667   5.914  0.6919 -0.2039  0.4781
19947TIP3   OH281331   3.323   2.529   0.661 -0.5238  0.9483  0.1628
19947TIP3    H181332   3.250   2.589   0.647 -1.7029  0.1373  2.4084
19947TIP3    H281333   3.375   2.569   0.731 -0.8250 -0.1547  1.0569
19948TIP3   OH281334   1.465   4.720  15.003 -0.3317  0.4060 -0.5995
19948TIP3    H181335   1.420   4.635  15.004 -0.5094  0.4957  0.6389
19948TIP3    H281336   1.498   4.731  15.092 -2.1363  2.5699 -0.0846
19949TIP3   OH281337   0.405   5.254  15.479 -0.6042  0.0796  0.0420
19949TIP3    H181338   0.332   5.247  15.418 -0.3629  0.4773 -0.2962
19949TIP3    H281339   0.436   5.164  15.490  0.2439  0.1533 -1.5191
19950TIP3   OH281340   6.668   4.659  16.013 -0.3609 -0.4201 -0.2779
19950TIP3    H181341   6.752   4.704  16.023  0.3064 -0.8244 -3.1458
19950TIP3    H281342   6.604   4.719  16.050  1.1687 -0.2907  2.4047
19951TIP3   OH281343   5.661   2.168   0.362  0.4367  0.3575  0.1844
19951TIP3    H181344   5.666   2.203   0.451  0.7243  1.3948 -0.2243
19951TIP3    H281345   5.617   2.236   0.312 -0.8051 -0.7111 -0.2468
19952TIP3   OH281346   5.578   6.598   4.893  0.2112  0.0395 -0.2642
19952TIP3    H181347   5.663   6.566   4.921 -0.0463  0.2806  0.8421
19952TIP3    H281348   5.589   6.692   4.886 -0.3806  0.2926  1.5661
19953TIP3   OH281349   3.361   1.578  11.355 -0.1886 -0.3807  0.1692
19953TIP3    H181350   3.322   1.495  11.328  0.2564 -0.3439 -0.6255
19953TIP3    H281351   3.430   1.593  11.291 -0.3893  0.6987  0.2002
19954TIP3   OH281352   6.395   0.950  13.775 -0.3005 -0.1640 -0.5111
19954TIP3    H181353   6.348   0.975  13.696 -0.5462  2.6575  0.4250
19954TIP3    H281354   6.358   1.005  13.844  1.8909 -0.4333  0.9818
19955TIP3   OH281355   6.324   5.226   4.091 -0.2344 -0.3963  0.6875
19955TIP3    H181356   6.359   5.139   4.109 -0.3333 -0.1117  2.4730
19955TIP3    H281357   6.395   5.286   4.113 -0.0077 -0.0149 -0.9726
19956TIP3   OH281358   1.058   4.086  10.854  0.2390  0.9094  0.1836
19956TIP3    H181359   1.029   4.010  10.803 -2.2266  1.8029  0.1266
19956TIP3    H281360   1.150   4.096  10.832  0.5278 -1.7877 -0.1377
19957TIP3   OH281361   6.480   6.643   3.769 -0.0530  0.0718  0.2328
19957TIP3    H181362   6.556   6.595   3.800 -0.4019 -0.3778  0.4085
19957TIP3    H281363   6.497   6.658   3.676 -1.1134 -2.8284 -0.5688
19958TIP3   OH281364   5.431   4.042   5.544 -0.0090  0.3709  0.1900
19958TIP3    H181365   5.399   3.956   5.518 -1.3154  0.8193  0.2037
19958TIP3    H281366   5.374   4.104   5.498  1.0168  1.2356  0.0438
19959TIP3   OH281367   3.418   5.017  13.505  0.0736 -0.2042 -0.3932
19959TIP3    H181368   3.501   5.001  13.459 -0.4508 -0.8414 -1.1402
19959TIP3    H281369   3.356   4.958  13.463 -0.6265 -0.1681  0.5702
19960TIP3   OH281370   2.233   3.651   3.783 -0.5405  0.2317 -0.0418
19960TIP3    H181371   2.194   3.630   3.868 -1.2233  2.3057  0.2014
19960TIP3    H281372   2.175   3.610   3.719 -0.6294 -0.4226  0.4479
19961TIP3   OH281373   5.587   2.710   2.778  0.1171  0.3992 -0.4130
19961TIP3    H181374   5.492   2.722   2.787 -0.0892 -0.8663 -0.8050
19961TIP3    H281375   5.623   2.750   2.858 -0.9720 -1.6415  1.2038
19962TIP3   OH281376   1.261   6.580   3.340  0.1938 -0.0199  0.0425
19962TIP3    H181377   1.301   6.497   3.310  0.7407  0.0106  0.6622
19962TIP3    H281378   1.327   6.618   3.398  0.4343  1.4168 -1.1111
19963TIP3   OH281379   3.894   4.860  13.151  0.0124 -0.0793 -0.2593
19963TIP3    H181380   3.970   4.803  13.134 -0.2861 -0.4908 -0.2373
19963TIP3    H281381   3.931   4.947  13.161  0.3335  0.0075 -1.8704
19964TIP3   OH281382   3.098   5.243   1.118  0.2097 -1.2647 -0.0114
19964TIP3    H181383   3.042   5.287   1.054  0.4186  1.4244  1.4980
19964TIP3    H281384   3.183   5.287   1.110  0.5756 -1.6975  1.2516
19965TIP3   OH281385   2.028   4.842   2.381  0.0117  0.3747 -0.3563
19965TIP3    H181386   2.077   4.760   2.384 -0.6109  0.0133  0.4663
19965TIP3    H281387   1.954   4.824   2.323  0.1814  0.5295 -0.6198
19966TIP3   OH281388   1.295   6.035   1.513 -0.0845  0.1235  0.1766
19966TIP3    H181389   1.263   5.966   1.455 -1.5361  0.9835 -0.1084
19966TIP3    H281390   1.291   5.996   1.600 -0.3454 -0.3533 -0.0406
19967TIP3   OH281391   5.990   1.837  16.307  0.5942  0.6317  0.6945
19967TIP3    H181392   5.966   1.915  16.357  1.2134  2.3976 -1.5775
19967TIP3    H281393   5.927   1.835  16.235 -0.0468 -1.6141  1.2310
19968TIP3   OH281394   0.530   0.037   4.354  0.5095 -0.3842  0.3318
19968TIP3    H181395   0.483  -0.004   4.427 -0.4428 -0.2388 -0.1752
19968TIP3    H281396   0.531   0.131   4.376  0.3053 -0.3525  0.2146
19969TIP3   OH281397   5.894   0.125   1.784 -0.5815 -0.1609 -0.6305
19969TIP3    H181398   5.880   0.031   1.772  2.9587 -0.8250 -0.5742
19969TIP3    H281399   5.871   0.141   1.876 -0.3000 -1.1861 -0.3739
19970TIP3   OH281400   0.069   6.497   0.146  0.1056 -0.1726  0.4512
19970TIP3    H181401  -0.007   6.541   0.109  2.3329  1.6050 -2.4924
19970TIP3    H281402   0.064   6.407   0.113 -0.7468 -0.0954  0.3594
19971TIP3   OH281403   2.558   2.665   5.883  0.0127 -0.6798 -0.2166
19971TIP3    H181404   2.506   2.643   5.960  1.2025 -0.4546  0.6830
19971TIP3    H281405   2.519   2.746   5.850 -0.3008 -0.5845  0.3681
19972TIP3   OH281406   3.464   3.358   5.679  0.6348 -0.0495 -0.5317
19972TIP3    H181407   3.405   3.422   5.718  0.5683  0.3267 -1.2315
19972TIP3    H281408   3.506   3.404   5.606  1.1036 -0.5907 -0.6162
19973TIP3   OH281409   3.449   2.915  12.772  0.3859 -0.3421  0.0995
19973TIP3    H181410   3.397   2.834  12.763  0.5467 -0.6803  1.8488
19973TIP3    H281411   3.384   2.983  12.790  0.2484 -0.0427 -1.3973
19974TIP3   OH281412   1.228   1.085   3.423 -0.0133  0.1050  0.4624
19974TIP3    H181413   1.224   1.172   3.464  1.2356  0.9076 -1.0233
19974TIP3    H281414   1.186   1.098   3.338  0.8301 -0.5763 -0.0546
19975TIP3   OH281415   3.467   4.930   1.365 -0.2328  0.5638  0.4978
19975TIP3    H181416   3.508   4.848   1.339 -0.1064  0.8300 -0.1549
19975TIP3    H281417   3.431   4.912   1.452  1.9800  0.5719  1.4665
19976TIP3   OH281418   3.685   3.355   3.189 -0.7770 -0.2031 -0.2612
19976TIP3    H181419   3.620   3.298   3.231  0.1443 -0.6612  0.5609
19976TIP3    H281420   3.759   3.297   3.171 -0.6291  0.2922 -1.3011
19977TIP3   OH281421   5.147   5.725   4.437 -0.1390 -0.0541  0.0757
19977TIP3    H181422   5.069   5.687   4.397 -0.4921  0.8385 -0.0973
19977TIP3    H281423   5.197   5.649   4.470 -0.5852 -0.6881 -0.6929
19978TIP3   OH281424   2.264   5.301  17.152 -0.7148 -0.0046  0.1575
19978TIP3    H181425   2.170   5.285  17.141 -0.6399  0.5735 -1.7119
19978TIP3    H281426   2.304   5.263  17.074  0.6877 -0.7496  1.2061
19979TIP3   OH281427   4.790   6.061   4.880 -0.9048 -0.3359 -0.0841
19979TIP3    H181428   4.814   6.153   4.878  0.4341 -0.5981  1.6093
19979TIP3    H281429   4.752   6.048   4.967 -3.7376 -0.8145 -1.2997
19980TIP3   OH281430   1.329   2.779   1.054 -0.7183  0.1094  0.0745
19980TIP3    H181431   1.391   2.791   0.983  0.7867 -1.8635  0.9669
19980TIP3    H281432   1.278   2.703   1.029 -1.0994  0.2208  0.4970
19981TIP3   OH281433   4.942   4.488  15.082  0.4551  0.0683 -0.1082
19981TIP3    H181434   4.964   4.581  15.076  0.6187  0.0747  0.5076
19981TIP3    H281435   4.898   4.469  14.999  0.2665  0.7349 -0.1751
19982TIP3   OH281436   2.864   3.411   4.196 -0.8594 -0.2241  0.0024
19982TIP3    H181437   2.841   3.450   4.111 -1.0149 -0.9075 -0.2827
19982TIP3    H281438   2.849   3.317   4.183 -1.5255 -0.2722  0.9967
19983TIP3   OH281439   4.357   0.498   1.954 -0.2145 -0.6320 -0.2394
19983TIP3    H181440   4.263   0.485   1.965 -0.2417 -0.6923 -0.5232
19983TIP3    H281441   4.383   0.556   2.026 -0.7722  0.6824 -1.0497
19984TIP3   OH281442   5.436   6.415   1.024  0.4474  0.0278 -0.2144
19984TIP3    H181443   5.440   6.365   1.105 -0.3722 -1.3997 -1.0239
19984TIP3    H281444   5.520   6.400   0.982 -0.2181 -1.7003 -1.0105
19985TIP3   OH281445   3.573   5.982  16.019 -0.3660 -0.0138  0.1857
19985TIP3    H181446   3.505   6.022  16.074  0.0753  0.3379  0.4831
19985TIP3    H281447   3.612   6.055  15.971  0.0298 -0.1678  0.2687
19986TIP3   OH281448   0.803   5.594   0.122 -0.0314  0.3139 -0.2302
19986TIP3    H181449   0.895   5.618   0.129  0.4867 -0.1231 -3.5436
19986TIP3    H281450   0.755   5.670   0.155  1.5243  1.3115 -0.2032
19987TIP3   OH281451   3.456   1.210  14.291 -0.4139  0.2313 -0.1253
19987TIP3    H181452   3.455   1.119  14.262  1.0578  0.8823 -2.5126
19987TIP3    H281453   3.539   1.219  14.339 -0.6746  0.2838  0.3278
19988TIP3   OH281454   5.220   3.104   5.093  0.1775  0.0321 -0.0739
19988TIP3    H181455   5.223   3.036   5.160 -0.5688 -1.0007 -1.0630
19988TIP3    H281456   5.286   3.078   5.029 -0.6404 -0.1986 -0.8411
19989TIP3   OH281457   4.283   6.258  14.866  0.3180  0.7130 -1.0817
19989TIP3    H181458   4.347   6.264  14.937 -2.6333 -2.6245  2.3413
19989TIP3    H281459   4.304   6.175  14.823 -1.4215 -0.3220 -0.0408
19990TIP3   OH281460   0.035   1.928  11.688 -0.1495  0.2146 -0.2532
19990TIP3    H181461   0.004   1.935  11.597 -1.6993  5.2841  0.3556
19990TIP3    H281462  -0.044   1.938  11.741  0.9071 -1.2426  1.7258
19991TIP3   OH281463   2.907   2.828   0.020  0.4197 -0.1266 -0.4680
19991TIP3    H181464   2.820   2.852   0.052  0.5813  0.4904 -0.4874
19991TIP3    H281465   2.892   2.750  -0.034 -0.3553  0.8650 -1.7326
19992TIP3   OH281466   5.072   6.628   4.873 -0.3984  0.1162  0.0043
19992TIP3    H181467   5.072   6.704   4.932 -0.8255 -0.6418  1.0240
19992TIP3    H281468   5.165   6.610   4.857 -0.2444  2.4984 -2.5265
19993TIP3   OH281469   2.849   3.388   4.856 -0.1026  0.0836  0.8183
19993TIP3    H181470   2.784   3.446   4.815 -1.8063 -0.7801  2.1815
19993TIP3    H281471   2.911   3.447   4.898 -1.0960  0.9266  1.1209
19994TIP3   OH281472   1.010   1.017   5.916 -1.1861 -0.5052 -0.3543
19994TIP3    H181473   0.992   1.085   5.981 -1.0290 -3.0981  2.6031
19994TIP3    H281474   0.967   1.049   5.836 -1.3944  2.8544  0.9415
19995TIP3   OH281475   0.666   1.635  12.858 -0.0797  0.1721  0.0841
19995TIP3    H181476   0.736   1.571  12.842 -1.3849 -0.8589 -1.9039
19995TIP3    H281477   0.622   1.644  12.774 -2.8962  0.1038  1.4391
19996TIP3   OH281478   6.455   2.638  14.327  0.6349  0.2465 -0.3168
19996TIP3    H181479   6.516   2.712  14.325 -1.0738  1.6959 -0.7444
19996TIP3    H281480   6.453   2.611  14.419  1.7307  0.3198 -0.2605
19997TIP3   OH281481   3.329   2.727  12.106 -0.0515  0.7727 -0.6450
19997TIP3    H181482   3.398   2.676  12.064 -0.0416  0.3799 -0.1655
19997TIP3    H281483   3.319   2.686  12.192 -2.6080 -0.7449 -1.5808
19998TIP3   OH281484   4.851   3.085   2.758  0.6087 -0.1435  0.4663
19998TIP3    H181485   4.892   3.171   2.751 -0.1273  0.2350  0.7119
19998TIP3    H281486   4.758   3.101   2.741  0.7343 -1.2034 -1.5699
19999TIP3   OH281487   5.820   2.797  16.279 -0.0888  0.0035  0.6221
19999TIP3    H181488   5.792   2.723  16.226 -0.8200  0.5147  0.2758
19999TIP3    H281489   5.786   2.874  16.233 -1.3082  0.4292  2.1612
20000TIP3   OH281490   4.717   1.456   1.305 -0.2836 -0.2678 -0.7472
20000TIP3    H181491   4.651   1.444   1.374  0.3326  0.0309 -0.0904
20000TIP3    H281492   4.736   1.368   1.274 -0.8694 -0.3714 -0.8341
20001TIP3   OH281493   5.776   2.764   4.953 -0.1933 -0.0130 -0.7920
20001TIP3    H181494   5.822   2.844   4.923  0.2869 -0.2248 -0.6333
20001TIP3    H281495   5.798   2.699   4.887 -0.4045 -0.0724 -0.8020
20002TIP3   OH281496   0.271   4.140  14.955  0.2085 -0.3069  0.2328
20002TIP3    H181497   0.311   4.227  14.949 -0.9087  0.2002 -0.1131
20002TIP3    H281498   0.196   4.153  15.012 -0.1032 -1.0038 -0.0133
20003TIP3   OH281499   3.022   4.329  12.291 -0.1864  0.7441  0.0997
20003TIP3    H181500   3.024   4.412  12.338 -2.0532  0.3845  0.9100
20003TIP3    H281501   2.994   4.265  12.356  2.2720 -0.7858 -0.2237
20004TIP3   OH281502   3.189   5.841  13.395 -0.2771  0.3134  0.3674
20004TIP3    H181503   3.161   5.912  13.454 -0.3558  0.4449  0.1735
20004TIP3    H281504   3.257   5.881  13.341 -1.8324  0.9179 -1.2533
20005TIP3   OH281505   5.039   1.933   5.945 -0.1604 -0.2445  0.3343
20005TIP3    H181506   4.949   1.921   5.914  0.3735  0.6551 -1.7201
20005TIP3    H281507   5.082   1.850   5.927 -1.0675 -1.5413  3.4816
20006TIP3   OH281508   1.281   5.976  15.526  0.4459  0.1282 -0.1244
20006TIP3    H181509   1.224   5.922  15.471  0.4139  1.5818 -1.5995
20006TIP3    H281510   1.249   6.066  15.511  2.2224  0.8265  0.1160
20007TIP3   OH281511   6.305   0.171   0.360 -0.1244  0.6107  0.4905
20007TIP3    H181512   6.315   0.111   0.286  0.8094  1.0396  0.2473
20007TIP3    H281513   6.360   0.246   0.338 -0.5221  1.1370  1.2243
20008TIP3   OH281514   0.716   2.508  14.360 -0.2135 -0.4086  0.2422
20008TIP3    H181515   0.715   2.515  14.455  2.0468 -0.7439  0.3425
20008TIP3    H281516   0.634   2.463  14.338 -1.5884  1.1902  1.8465
20009TIP3   OH281517   4.265   2.238  16.580  0.0314 -0.1370 -0.7694
20009TIP3    H181518   4.174   2.265  16.568 -0.0711  0.4859  1.1107
20009TIP3    H281519   4.260   2.156  16.629  0.4788  0.1969 -0.1501
20010TIP3   OH281520   0.894   2.501   0.377 -0.1473  0.3612  0.0516
20010TIP3    H181521   0.881   2.596   0.379 -1.2988  0.2071  1.5280
20010TIP3    H281522   0.848   2.469   0.454  2.5884 -1.1431  1.1770
20011TIP3   OH281523   1.901   0.580   1.065 -0.4279  0.3313 -0.7749
20011TIP3    H181524   1.992   0.577   1.035 -0.0838 -0.1185  0.2766
20011TIP3    H281525   1.888   0.497   1.110 -0.9078  0.9963  0.3601
20012TIP3   OH281526   5.532   3.381  11.367 -0.1189 -0.3152 -0.0983
20012TIP3    H181527   5.472   3.387  11.442 -0.6119  0.9684 -0.5543
20012TIP3    H281528   5.619   3.377  11.406 -0.4287 -0.8813  0.5591
20013TIP3   OH281529   4.201   6.084  14.074 -0.2598  0.6940  0.5718
20013TIP3    H181530   4.261   6.044  14.010 -0.1178  0.4983  0.8221
20013TIP3    H281531   4.181   6.170  14.038 -0.3630  0.4925  0.1510
20014TIP3   OH281532   0.384   5.224   0.759  0.7259  0.3204 -0.7136
20014TIP3    H181533   0.320   5.260   0.820  1.0125  1.1616 -0.8907
20014TIP3    H281534   0.375   5.279   0.681  0.1059 -0.9544 -1.5880
20015TIP3   OH281535   2.805   3.141  17.208  0.3065 -0.3082 -0.3971
20015TIP3    H181536   2.845   3.055  17.224  0.9620  0.0090 -0.2877
20015TIP3    H281537   2.872   3.204  17.235  0.2761  0.2415 -1.5459
20016TIP3   OH281538   2.211   5.431   4.193 -0.0730  0.0953  0.3119
20016TIP3    H181539   2.166   5.402   4.272 -2.0331  0.9966 -0.4248
20016TIP3    H281540   2.209   5.356   4.134 -0.3274  0.0335  0.4014
20017TIP3   OH281541   2.829   1.756  15.204  0.1135 -0.0087  0.3678
20017TIP3    H181542   2.892   1.694  15.243  1.7885 -0.2265 -2.3624
20017TIP3    H281543   2.832   1.832  15.261  0.1687 -1.3471  2.2492
20018TIP3   OH281544   0.229   5.712  11.160 -0.3013 -0.0888  0.7002
20018TIP3    H181545   0.136   5.690  11.167 -0.5681  0.0224 -1.5827
20018TIP3    H281546   0.231   5.807  11.149  0.2674  0.1599  2.5449
20019TIP3   OH281547   3.980   3.904  13.050 -0.5000  0.0983  0.1839
20019TIP3    H181548   4.031   3.915  12.970 -1.2804  1.4902 -0.1685
20019TIP3    H281549   4.040   3.863  13.112 -0.0236 -1.4843 -1.2415
20020TIP3   OH281550   1.565   0.064  15.478 -0.3423  0.2954 -0.2821
20020TIP3    H181551   1.584   0.150  15.515 -0.2406 -0.1867  0.8365
20020TIP3    H281552   1.648   0.034  15.442 -0.2806  0.4958 -0.3089
20021TIP3   OH281553   1.499   0.484  16.706 -0.1090 -0.0202 -0.1839
20021TIP3    H181554   1.441   0.503  16.780  0.8175 -2.2194  1.2124
20021TIP3    H281555   1.581   0.457  16.746  0.9945  0.3613 -2.0666
20022TIP3   OH281556   6.002   6.781   6.659  0.1050 -0.6657  0.4417
20022TIP3    H181557   5.934   6.808   6.720  0.3252 -3.0243  1.8866
20022TIP3    H281558   5.958   6.719   6.601  0.4707 -0.3539 -0.1673
20023TIP3   OH281559   0.483   1.667   0.476  0.0199  0.2781 -0.1903
20023TIP3    H181560   0.529   1.653   0.558  0.7087  0.7561 -0.4876
20023TIP3    H281561   0.489   1.584   0.430  1.5391  0.6386 -0.6884
20024TIP3   OH281562   3.874   1.507   5.955  0.6673  0.7473 -0.3581
20024TIP3    H181563   3.922   1.577   5.999  2.8547 -1.0170  0.2465
20024TIP3    H281564   3.909   1.427   5.994  1.3376 -0.8569 -3.9165
20025TIP3   OH281565   6.701   2.665  13.109 -0.2921  0.2742 -0.1710
20025TIP3    H181566   6.757   2.633  13.039 -0.1764 -0.2554  0.1561
20025TIP3    H281567   6.691   2.589  13.168  0.7329  1.0719  1.1002
20026TIP3   OH281568   6.008   6.272  12.519 -0.0123 -0.2017  0.8119
20026TIP3    H181569   6.010   6.348  12.577 -0.6995  0.2078  0.3112
20026TIP3    H281570   6.100   6.245  12.512  0.4151  1.2907  0.1040
20027TIP3   OH281571   4.506   5.555  16.377  0.2341 -0.2684 -0.3341
20027TIP3    H181572   4.463   5.629  16.334 -0.6880  0.7980  2.2084
20027TIP3    H281573   4.440   5.485  16.377  0.5580 -0.5951 -1.3643
20028TIP3   OH281574   1.073   3.890  16.012  0.1786 -0.0793 -0.3159
20028TIP3    H181575   1.026   3.946  16.074 -2.3841  0.0028 -2.1446
20028TIP3    H281576   1.048   3.924  15.926  2.4811 -1.0390 -1.4536
20029TIP3   OH281577   1.750   3.352   1.640  0.6061  0.5644 -0.1626
20029TIP3    H181578   1.822   3.405   1.608  0.8913  0.4977  0.3550
20029TIP3    H281579   1.724   3.298   1.565  0.9957  0.6963 -0.3909
20030TIP3   OH281580   6.535   6.261   5.672  0.1445 -0.3411  0.5477
20030TIP3    H181581   6.477   6.194   5.637  0.8093 -1.0283  0.7516
20030TIP3    H281582   6.476   6.333   5.697 -0.4666 -0.3813 -0.6958
20031TIP3   OH281583   1.409   1.319   0.348  0.4332  0.2190  0.1761
20031TIP3    H181584   1.502   1.297   0.348  0.5826  0.4173  3.2230
20031TIP3    H281585   1.367   1.242   0.309  1.8320  0.2998 -1.6551
20032TIP3   OH281586   1.704   3.117  11.096  0.0900 -0.1370  0.0673
20032TIP3    H181587   1.762   3.047  11.068  0.1609  0.1824 -0.5935
20032TIP3    H281588   1.682   3.095  11.187 -1.1285 -1.8493 -0.5920
20033TIP3   OH281589   3.884   5.951  12.473  0.1757 -0.6171 -0.1871
20033TIP3    H181590   3.819   6.020  12.463 -1.4255 -1.6528  2.0706
20033TIP3    H281591   3.926   5.944  12.387 -1.7119  1.0583 -1.3316
20034TIP3   OH281592   5.494   5.478   3.057  0.1009  0.3488 -0.3466
20034TIP3    H181593   5.473   5.528   3.136  1.5015  0.3079  0.0718
20034TIP3    H281594   5.503   5.545   2.989  1.3067  0.6162  0.0657
20035TIP3   OH281595   0.198   2.092   1.293  0.0209 -0.2412  0.3540
20035TIP3    H181596   0.284   2.072   1.257 -0.6460 -2.8368  0.0163
20035TIP3    H281597   0.209   2.176   1.338  2.6678 -0.4468  0.1953
20036TIP3   OH281598   0.841   0.520   0.688 -0.1424 -0.1671 -0.2490
20036TIP3    H181599   0.787   0.453   0.731 -1.3623  1.5773  1.0603
20036TIP3    H281600   0.795   0.541   0.607  0.2958 -0.9462 -0.7135
20037TIP3   OH281601   3.499   6.137   1.212 -0.0535 -0.6719  0.3826
20037TIP3    H181602   3.526   6.229   1.221 -3.3863  0.7313 -2.0647
20037TIP3    H281603   3.424   6.128   1.271 -0.3451 -1.5383 -0.1053
20038TIP3   OH281604   1.618   4.620  12.417  0.2951 -0.6844  0.7942
20038TIP3    H181605   1.584   4.628  12.506 -1.3488  0.3601  0.1183
20038TIP3    H281606   1.563   4.554  12.376 -2.5640  2.4915 -0.9429
20039TIP3   OH281607   1.511   5.657   3.729 -0.1457 -0.6998  0.0318
20039TIP3    H181608   1.421   5.629   3.713 -0.1090 -0.5343 -0.4780
20039TIP3    H281609   1.504   5.717   3.803 -0.1630 -2.4026  1.4735
20040TIP3   OH281610   4.361   4.584   0.445  0.0801  0.7072 -0.1773
20040TIP3    H181611   4.447   4.601   0.407  1.4083 -3.2262  0.6371
20040TIP3    H281612   4.369   4.610   0.536  0.8380 -0.5858  0.1527
20041TIP3   OH281613   4.024   0.795  16.315 -0.0807  0.0425  0.7934
20041TIP3    H181614   4.108   0.788  16.360  1.0675  0.3441 -1.1803
20041TIP3    H281615   3.989   0.880  16.343  1.2985  0.8949  0.0362
20042TIP3   OH281616   6.547   6.665   5.778 -0.2079  0.1129  0.0398
20042TIP3    H181617   6.492   6.588   5.767 -1.0043  0.6087  0.4737
20042TIP3    H281618   6.569   6.666   5.872  2.9248 -1.6569 -0.5435
20043TIP3   OH281619   4.259   2.881   5.017 -0.3114 -0.1118 -0.6039
20043TIP3    H181620   4.220   2.810   4.966  1.7273 -1.6051 -0.1969
20043TIP3    H281621   4.348   2.889   4.983 -0.2451  1.7657 -0.1111
20044TIP3   OH281622   0.230   6.098   4.118  0.7397  0.2145 -0.6584
20044TIP3    H181623   0.171   6.161   4.076 -1.6067  0.0986  2.1166
20044TIP3    H281624   0.190   6.013   4.102  0.7722  0.0121  0.2742
20045TIP3   OH281625   3.848   5.806   1.856  0.2173  0.0210  1.5283
20045TIP3    H181626   3.812   5.720   1.880 -0.8388 -0.2226 -0.6196
20045TIP3    H281627   3.772   5.864   1.855 -0.1892 -0.3143 -2.2690
20046TIP3   OH281628   2.344   3.541  16.161  0.1305  0.5149 -0.0811
20046TIP3    H181629   2.385   3.552  16.075 -0.6112 -1.2597 -0.7189
20046TIP3    H281630   2.260   3.500  16.142  0.4034 -0.8953  1.5454
20047TIP3   OH281631   5.063   1.737   5.262 -0.2558  0.0964  0.3987
20047TIP3    H181632   5.087   1.719   5.353 -0.6833 -1.9453  0.1627
20047TIP3    H281633   5.136   1.787   5.226 -0.0762  0.9124  1.8544
20048TIP3   OH281634   3.210   0.974  12.699 -0.0512  0.3415  0.0349
20048TIP3    H181635   3.136   0.928  12.739 -1.0922  0.8551 -1.2109
20048TIP3    H281636   3.262   0.905  12.657  0.3837 -0.0601  1.1990
20049TIP3   OH281637   1.286   2.387  14.278 -0.3058  0.2424 -0.4980
20049TIP3    H181638   1.237   2.331  14.218  0.4042 -0.2226 -0.6574
20049TIP3    H281639   1.371   2.344  14.287 -0.3680  0.3633  0.7677
20050TIP3   OH281640   6.057   0.915  17.121 -0.1221  0.5801  0.1842
20050TIP3    H181641   6.002   0.954  17.189 -1.5448 -0.2731 -0.4326
20050TIP3    H281642   6.103   0.990  17.082  0.5089  1.1124  1.8460
20051TIP3   OH281643   6.151   3.780  13.050 -0.3116  0.6103  0.0975
20051TIP3    H181644   6.206   3.724  13.105 -0.4782 -0.9305 -1.2291
20051TIP3    H281645   6.172   3.869  13.078 -0.1788 -0.0760  2.4335
20052TIP3   OH281646   0.506   0.101  14.433 -0.1819 -0.1136 -0.3017
20052TIP3    H181647   0.502   0.012  14.398 -0.3554 -0.3564  0.3163
20052TIP3    H281648   0.538   0.090  14.523 -0.9717  0.3656  0.0565
20053TIP3   OH281649   0.868   3.486   3.887  1.1082 -0.1641 -0.8444
20053TIP3    H181650   0.796   3.499   3.825  0.5988 -0.6936 -0.3833
20053TIP3    H281651   0.907   3.573   3.897 -0.4981  0.5212  0.1184
20054TIP3   OH281652   5.959   3.189   0.633  0.6693 -0.4073 -0.1247
20054TIP3    H181653   5.919   3.121   0.687 -0.2389  0.6635  0.5747
20054TIP3    H281654   5.958   3.152   0.544 -0.2657 -1.1117  0.1627
20055TIP3   OH281655   5.989   1.679  11.851  0.3271  0.4968 -0.1505
20055TIP3    H181656   5.912   1.627  11.876 -0.8449  1.2360 -2.0073
20055TIP3    H281657   5.986   1.754  11.910 -0.0886  0.2757  0.1215
20056TIP3   OH281658   3.153   6.490   4.825  0.1032  0.2360  0.1060
20056TIP3    H181659   3.188   6.518   4.740  0.7247 -1.6010 -0.2934
20056TIP3    H281660   3.088   6.423   4.803  0.4321 -0.4213  1.0628
20057TIP3   OH281661   4.729   1.573  16.095 -0.2088  0.8106 -0.3746
20057TIP3    H181662   4.787   1.648  16.101  0.7284  0.2271 -1.7519
20057TIP3    H281663   4.760   1.523  16.019  0.5257 -2.0868  1.6373
20058TIP3   OH281664   0.190   5.318   0.919  0.0626 -0.6586  0.4064
20058TIP3    H181665   0.216   5.374   0.993  1.4317 -0.1627 -0.4244
20058TIP3    H281666   0.136   5.250   0.959 -0.1930  0.2581  1.6986
20059TIP3   OH281667   4.920   2.002   0.644  0.5831  0.2752 -0.6538
20059TIP3    H181668   4.966   2.057   0.707 -0.5698  0.3468  0.1339
20059TIP3    H281669   4.849   1.962   0.693  1.1698 -1.6486 -1.3066
20060TIP3   OH281670   5.015   5.683   3.054  0.3999 -0.3583 -0.2585
20060TIP3    H181671   5.099   5.687   3.099  0.4894 -0.0009 -0.4469
20060TIP3    H281672   4.960   5.627   3.109  1.3635 -2.2592 -1.1342
20061TIP3   OH281673   2.732   1.475  11.596  0.1513 -0.2791 -0.2473
20061TIP3    H181674   2.771   1.556  11.627 -0.9958  0.1473  0.1420
20061TIP3    H281675   2.806   1.424  11.562  1.1602  0.1544  1.1630
20062TIP3   OH281676   0.198   6.580   0.392 -0.1237  0.3187  0.1538
20062TIP3    H181677   0.144   6.545   0.321 -0.7517  1.7524 -0.0990
20062TIP3    H281678   0.207   6.673   0.372  0.8030  0.4853  1.2548
20063TIP3   OH281679   6.019   2.878   5.955  0.0263 -0.2713 -0.2521
20063TIP3    H181680   6.039   2.792   5.919 -0.7593  0.1341 -1.7827
20063TIP3    H281681   6.081   2.937   5.911 -0.3497  0.1203 -0.2628
20064TIP3   OH281682   5.350   5.314   5.971  0.2485  0.2990  0.0321
20064TIP3    H181683   5.274   5.312   6.029  0.8908  1.5015  0.9702
20064TIP3    H281684   5.317   5.348   5.888 -1.1591 -3.5155 -1.1683
20065TIP3   OH281685   2.847   1.407   5.096 -0.0897  0.0426  0.3406
20065TIP3    H181686   2.837   1.462   5.019  2.9031  0.1667 -0.0723
20065TIP3    H281687   2.780   1.438   5.157 -1.9532  0.5239 -1.8291
20066TIP3   OH281688   3.001   4.795  11.791  0.0342  0.1581  0.4057
20066TIP3    H181689   2.925   4.852  11.777 -0.2837 -0.2083  0.6051
20066TIP3    H281690   3.018   4.802  11.885  2.0460  2.4768 -0.0352
20067TIP3   OH281691   4.702   0.445   1.542 -0.4950 -0.4928  0.3907
20067TIP3    H181692   4.683   0.378   1.607 -0.8783  0.5663  1.4140
20067TIP3    H281693   4.770   0.499   1.581  1.0443 -1.2517 -1.1327
20068TIP3   OH281694   2.953   1.387   0.572  0.1352  0.3302 -0.1579
20068TIP3    H181695   2.949   1.472   0.618 -2.0958  0.1886  0.0351
20068TIP3    H281696   2.873   1.342   0.599  0.2298 -0.9887 -1.9080
20069TIP3   OH281697   5.302   4.292   0.429 -0.4319 -0.1446 -0.5461
20069TIP3    H181698   5.282   4.380   0.461  1.6344 -0.4375  1.8195
20069TIP3    H281699   5.394   4.296   0.406 -0.0574 -1.9044  0.5015
20070TIP3   OH281700   3.395   5.079   6.245  0.4487  0.2273 -0.1401
20070TIP3    H181701   3.359   5.167   6.239 -0.5882 -0.2212 -0.9543
20070TIP3    H281702   3.318   5.022   6.246  1.0956 -0.6557  0.5689
20071TIP3   OH281703   6.410   6.340   4.300 -0.3602  0.3133 -0.1244
20071TIP3    H181704   6.341   6.291   4.345 -0.3393  0.8772  0.5316
20071TIP3    H281705   6.449   6.395   4.367 -0.9235  1.8330 -0.9915
20072TIP3   OH281706   0.616   4.431   4.615  0.3169 -0.4185  0.5329
20072TIP3    H181707   0.599   4.444   4.708  0.7551 -2.0076  0.8724
20072TIP3    H281708   0.529   4.428   4.575  0.1178 -0.0515  0.9327
20073TIP3   OH281709   1.390   6.078  13.868  0.0815  0.1022  0.2888
20073TIP3    H181710   1.375   6.110  13.957  0.0777  0.4093  0.1784
20073TIP3    H281711   1.303   6.049  13.839  0.3143 -1.2823  0.8746
20074TIP3   OH281712   4.191   3.130  17.074 -0.0703  0.1882 -0.8765
20074TIP3    H181713   4.247   3.081  17.135  1.1603  0.5727 -1.6625
20074TIP3    H281714   4.110   3.146  17.123  1.0491  0.9025  0.8419
20075TIP3   OH281715   1.261   5.978   0.228 -0.3741 -0.2544 -0.3322
20075TIP3    H181716   1.246   5.974   0.133 -1.7749 -1.1982 -0.1003
20075TIP3    H281717   1.251   6.071   0.250  2.3929  0.3839 -1.4292
20076TIP3   OH281718   1.359   1.938  12.645 -0.4973  0.8592  0.4815
20076TIP3    H181719   1.286   1.982  12.689  0.0450  0.8630  1.3904
20076TIP3    H281720   1.329   1.849  12.631 -0.7415  0.9052  0.7086
20077TIP3   OH281721   0.541   1.202  13.022 -0.0200  0.3802  0.0877
20077TIP3    H181722   0.603   1.138  13.057 -1.3415 -0.6562  0.6670
20077TIP3    H281723   0.577   1.287  13.047 -0.6757 -0.2667  3.7933
20078TIP3   OH281724   3.458   3.744  10.758  0.4534 -0.1552 -0.0656
20078TIP3    H181725   3.435   3.667  10.706  0.2720  0.1185 -0.3948
20078TIP3    H281726   3.374   3.779  10.787  0.5775 -0.6533  0.9265
20079TIP3   OH281727   5.330   5.983  16.227 -0.1868 -0.6652 -0.1302
20079TIP3    H181728   5.425   5.988  16.222 -0.0802 -1.6589  0.5759
20079TIP3    H281729   5.309   6.014  16.315 -0.3208 -2.5423  0.5219
20080TIP3   OH281730   1.687   6.656  14.545 -0.4394 -0.2255  0.0179
20080TIP3    H181731   1.734   6.729  14.504 -1.1467 -0.6571 -1.6438
20080TIP3    H281732   1.692   6.675  14.639 -1.1468  2.3120 -0.3696
20081TIP3   OH281733   3.984   5.270   5.982  0.3715  0.1220  0.3310
20081TIP3    H181734   3.938   5.333   6.039 -0.3583  1.3650 -1.5346
20081TIP3    H281735   4.050   5.323   5.937  1.3299 -0.9579  0.4260
20082TIP3   OH281736   3.799   5.267   2.005  0.4706 -0.2205 -0.0273
20082TIP3    H181737   3.705   5.270   1.985  0.6847  0.3937 -0.9782
20082TIP3    H281738   3.831   5.192   1.955  0.6456  0.1272 -0.4456
20083TIP3   OH281739   1.245   6.559  13.346 -0.1999 -0.3225 -0.1099
20083TIP3    H181740   1.223   6.481  13.396  0.5041  0.1289  0.9408
20083TIP3    H281741   1.196   6.630  13.388  1.0121  0.2008  0.4887
20084TIP3   OH281742   2.671   3.866   2.621  0.2695 -0.4107  0.4148
20084TIP3    H181743   2.598   3.847   2.561  0.2642 -0.0684  0.3067
20084TIP3    H281744   2.637   3.847   2.708 -0.1995  0.4505  0.4303
20085TIP3   OH281745   1.563   3.012  14.345  0.0582  0.1185 -0.4819
20085TIP3    H181746   1.531   3.066  14.272  0.3245 -0.1573 -0.8070
20085TIP3    H281747   1.648   3.051  14.367 -0.0942  0.3002 -0.2095
20086TIP3   OH281748   1.985   2.737  12.582 -0.8658 -0.1798 -0.2192
20086TIP3    H181749   2.029   2.674  12.525  0.3771  0.6218 -0.1730
20086TIP3    H281750   2.022   2.822  12.558  0.1633  0.1228  2.1793
20087TIP3   OH281751   5.915   0.640   4.977 -0.3861  0.4648 -0.2325
20087TIP3    H181752   5.951   0.622   5.064  0.1108  1.1752 -0.2769
20087TIP3    H281753   5.940   0.564   4.924  0.0017  0.3902  0.0529
20088TIP3   OH281754   3.054   3.776  13.174  1.2081  0.2310  0.7693
20088TIP3    H181755   3.122   3.772  13.106 -0.0972 -2.6256 -0.5099
20088TIP3    H281756   3.073   3.701  13.230  0.3900  0.7136  1.7021
20089TIP3   OH281757   0.283   6.706   5.165  0.0427 -0.1505  0.1003
20089TIP3    H181758   0.223   6.729   5.236 -0.5279  1.7753 -0.9486
20089TIP3    H281759   0.229   6.709   5.086  1.1137 -0.2411 -0.6487
20090TIP3   OH281760   4.243   1.290   2.953  0.4833 -0.2965 -0.2243
20090TIP3    H181761   4.313   1.246   2.905  0.1304  1.1725 -2.2352
20090TIP3    H281762   4.181   1.318   2.885 -1.7543 -0.9340  1.4089
20091TIP3   OH281763   1.825   1.979  13.809 -0.4600  0.1443  0.0321
20091TIP3    H181764   1.821   2.045  13.739  0.9328  0.2621  0.0410
20091TIP3    H281765   1.863   1.902  13.766 -1.6882 -0.5468  0.1262
20092TIP3   OH281766   5.594   6.725  14.258  0.2822 -0.6873 -0.0055
20092TIP3    H181767   5.655   6.775  14.204 -0.4943  0.6176  0.2742
20092TIP3    H281768   5.508   6.758  14.234 -0.0903 -0.0420  2.0234
20093TIP3   OH281769   6.615   6.362  13.250  0.3666 -0.1893  0.5918
20093TIP3    H181770   6.560   6.439  13.234  0.8218  0.1776  0.7794
20093TIP3    H281771   6.596   6.337  13.340  1.0167  0.3559  0.8843
20094TIP3   OH281772   2.093   2.781  14.196  0.4142  0.6571  0.4804
20094TIP3    H181773   2.147   2.715  14.153  0.5601  0.1873  1.3749
20094TIP3    H281774   2.120   2.864  14.156 -0.0879  0.1522 -0.9746
20095TIP3   OH281775   2.875   5.190  14.164  0.0009 -0.2934  0.3450
20095TIP3    H181776   2.904   5.140  14.088 -2.7624 -1.0439 -0.3577
20095TIP3    H281777   2.859   5.124  14.232  0.7373  0.1801  0.9936
20096TIP3   OH281778   4.889   6.037  15.430  0.1032  0.0234  0.2620
20096TIP3    H181779   4.980   6.025  15.401 -0.6872 -2.7070 -1.4843
20096TIP3    H281780   4.839   5.973  15.379 -2.6646  0.6310  1.9990
20097TIP3   OH281781   0.728   6.782  13.757  0.1570  0.1736 -0.0612
20097TIP3    H181782   0.708   6.692  13.783 -0.3253  0.4657  0.6257
20097TIP3    H281783   0.823   6.783  13.744  0.0208 -0.7166 -1.2642
20098TIP3   OH281784   1.138   6.071  13.031 -0.2217  0.3254  0.3016
20098TIP3    H181785   1.110   6.102  12.945 -0.1997 -0.1812  0.1031
20098TIP3    H281786   1.229   6.100  13.038 -0.1721  0.2317  0.0822
20099TIP3   OH281787   6.489   4.785  15.602 -0.4417 -0.6664  0.3137
20099TIP3    H181788   6.497   4.878  15.583 -1.6783 -0.2996  1.5105
20099TIP3    H281789   6.579   4.752  15.594  0.0989  0.7113  0.3778
20100TIP3   OH281790   0.697   0.448  15.681 -0.0410 -0.7437  0.2994
20100TIP3    H181791   0.777   0.399  15.700  0.4270 -0.9738 -2.0011
20100TIP3    H281792   0.640   0.386  15.636 -0.4623  0.1165 -0.3826
20101TIP3   OH281793   6.318   4.243   3.215 -0.0254  0.5735  0.4768
20101TIP3    H181794   6.289   4.330   3.242  0.7397  0.5426  1.4553
20101TIP3    H281795   6.411   4.253   3.197  0.1602 -0.1298  0.9936
20102TIP3   OH281796   3.777   6.134  11.311  0.4993  0.6014  0.0087
20102TIP3    H181797   3.788   6.043  11.283 -0.8332 -0.5249  2.8032
20102TIP3    H281798   3.769   6.183  11.229  1.7588 -1.6817 -1.5977
20103TIP3   OH281799   6.563   3.218   1.764 -1.2121 -0.1456 -0.0898
20103TIP3    H181800   6.485   3.225   1.819 -0.6723 -1.8643  0.9553
20103TIP3    H281801   6.611   3.300   1.780 -1.8809  0.1033  0.7190
20104TIP3   OH281802   0.165   6.507   2.920  0.0203 -0.5438  0.1942
20104TIP3    H181803   0.231   6.533   2.855  0.2609  0.4413  0.8210
20104TIP3    H281804   0.137   6.589   2.960 -2.9106 -0.7078 -1.2777
20105TIP3   OH281805   0.126   4.995  10.558  0.2027  0.0759 -0.4858
20105TIP3    H181806   0.110   5.089  10.570  1.1332  0.1836 -0.0541
20105TIP3    H281807   0.038   4.956  10.563 -0.1425  0.8617 -0.1294
20106TIP3   OH281808   1.473   6.696   5.215 -0.1321  0.2009 -0.4470
20106TIP3    H181809   1.406   6.764   5.200 -0.7966 -0.3460  0.0091
20106TIP3    H281810   1.439   6.644   5.287  1.7794  1.1792  1.2873
20107TIP3   OH281811   4.954   4.723  17.216 -0.0305 -0.3306  0.4883
20107TIP3    H181812   4.934   4.783  17.145 -1.5053 -0.2461  0.9385
20107TIP3    H281813   5.048   4.704  17.206 -0.6029 -1.9682 -2.6974
20108TIP3   OH281814   4.165   3.816   0.872  0.0076 -0.3484 -0.6133
20108TIP3    H181815   4.183   3.908   0.891  1.8587 -0.6315 -0.7661
20108TIP3    H281816   4.075   3.802   0.900  0.1616  1.1582  0.7462
20109TIP3   OH281817   0.387   3.259  12.147 -0.4023  0.4105  0.3845
20109TIP3    H181818   0.316   3.206  12.184  0.3274 -0.5751  0.4171
20109TIP3    H281819   0.464   3.203  12.154  0.0329  0.7507 -1.3167
20110TIP3   OH281820   6.363   0.946  14.961  0.8924  0.2729 -0.2808
20110TIP3    H181821   6.457   0.943  14.978  0.9396 -0.5867 -0.6949
20110TIP3    H281822   6.355   0.934  14.867  0.2440 -2.8465  0.0666
20111TIP3   OH281823   2.162   1.896  16.323  1.0273 -0.2479 -0.4256
20111TIP3    H181824   2.224   1.865  16.256  0.9699  1.9856 -1.6243
20111TIP3    H281825   2.076   1.874  16.288  1.0430 -0.9388 -0.0531
20112TIP3   OH281826   0.714   1.547  14.666  0.0525 -0.8132 -0.5109
20112TIP3    H181827   0.693   1.518  14.578 -1.8205 -0.6831 -0.1501
20112TIP3    H281828   0.763   1.474  14.704 -0.6361 -1.6039 -1.1030
20113TIP3   OH281829   2.031   5.431   3.854  0.0818 -0.1422 -0.6407
20113TIP3    H181830   2.036   5.503   3.917  3.0741  0.1750 -1.0723
20113TIP3    H281831   1.998   5.472   3.774  0.4211  0.4547 -0.4834
20114TIP3   OH281832   4.616   5.179  12.742  0.6136  0.5443  0.0241
20114TIP3    H181833   4.548   5.200  12.678  1.4998  0.8318 -0.8437
20114TIP3    H281834   4.603   5.086  12.760 -1.9678  1.2231  2.2622
20115TIP3   OH281835   4.981   2.558  17.145  0.1178 -0.2890 -0.3005
20115TIP3    H181836   5.010   2.643  17.177 -1.6869  0.2334  0.0794
20115TIP3    H281837   5.047   2.532  17.080  0.8379  1.2591 -0.2226
20116TIP3   OH281838   6.629   4.524  10.498  0.0575  0.2404  0.2399
20116TIP3    H181839   6.629   4.436  10.536 -1.0857 -0.0987 -0.4807
20116TIP3    H281840   6.542   4.558  10.518 -1.1224 -0.4590 -3.0540
20117TIP3   OH281841   6.019   1.509  11.535  0.6137  0.2813 -0.1430
20117TIP3    H181842   6.016   1.449  11.460 -0.6361 -0.2239  0.2795
20117TIP3    H281843   5.951   1.476  11.595 -0.1527  2.1301  0.0871
20118TIP3   OH281844   1.543   0.264   5.992  0.1572  0.4894  0.3292
20118TIP3    H181845   1.455   0.250   6.026  0.3855 -0.5390  0.5440
20118TIP3    H281846   1.557   0.191   5.931  0.5689  1.0841 -0.3016
20119TIP3   OH281847   6.098   0.309  12.422  0.0174 -0.1177 -0.0754
20119TIP3    H181848   6.009   0.301  12.389 -0.2120 -0.2831  0.5729
20119TIP3    H281849   6.089   0.355  12.505  0.5947  0.3267 -0.2470
20120TIP3   OH281850   3.466   3.406  15.455 -0.3422 -0.2838  0.5682
20120TIP3    H181851   3.508   3.457  15.386 -0.5286  0.1612  0.7798
20120TIP3    H281852   3.508   3.435  15.535  1.3075 -2.2169  0.4988
20121TIP3   OH281853   5.843   0.234   1.314 -0.4815  0.5587 -0.1762
20121TIP3    H181854   5.750   0.248   1.298 -0.6189  0.3327  0.4302
20121TIP3    H281855   5.847   0.166   1.381  0.1388 -0.2388 -0.9932
20122TIP3   OH281856   2.712   5.165  13.314 -0.2145 -0.2392  0.2090
20122TIP3    H181857   2.630   5.154  13.363 -0.2379  2.1596  0.8351
20122TIP3    H281858   2.690   5.229  13.246  0.9361 -0.1462 -0.0821
20123TIP3   OH281859   2.484   1.946   3.228 -0.1137  0.1094  0.3389
20123TIP3    H181860   2.394   1.919   3.212  0.3947 -0.8764 -1.1238
20123TIP3    H281861   2.503   2.009   3.158  0.5933 -0.3679  0.0904
20124TIP3   OH281862   2.363   2.843  13.766 -0.0382 -0.3787  0.2032
20124TIP3    H181863   2.382   2.760  13.722  1.4596  0.9371 -1.7768
20124TIP3    H281864   2.288   2.880  13.719 -0.0696 -0.1262  0.4428
20125TIP3   OH281865   5.348   6.064  12.123 -0.1522  0.0291  0.9189
20125TIP3    H181866   5.423   6.052  12.065 -0.5207  0.2210  0.3915
20125TIP3    H281867   5.300   5.981  12.118 -0.6879  0.3716  0.2044
20126TIP3   OH281868   0.711   0.815  13.339  0.2629  0.1892 -0.2608
20126TIP3    H181869   0.624   0.777  13.336 -0.1274  1.0812 -1.9856
20126TIP3    H281870   0.708   0.878  13.411 -0.9934  1.1941 -1.1439
20127TIP3   OH281871   4.051   4.046  11.082  0.2483  0.1309 -0.7354
20127TIP3    H181872   4.096   4.052  11.166 -1.2379  0.2708  0.0822
20127TIP3    H281873   4.029   3.953  11.073  2.3539 -0.3079 -2.0753
20128TIP3   OH281874   0.116   3.877  11.457 -0.5355  0.3314  0.8564
20128TIP3    H181875   0.128   3.941  11.386  0.0841 -0.1423  0.5268
20128TIP3    H281876   0.193   3.890  11.513  0.9168 -1.7941 -0.5299
20129TIP3   OH281877   6.782   3.401   5.367 -0.1422  0.5844  0.2485
20129TIP3    H181878   6.734   3.415   5.286  1.3481  1.3687 -0.5448
20129TIP3    H281879   6.735   3.454   5.432  0.2034  2.1870 -0.7397
20130TIP3   OH281880   0.091   4.154   0.312  0.2241 -0.6113 -0.2615
20130TIP3    H181881   0.022   4.211   0.346 -0.4661 -0.1561 -2.3249
20130TIP3    H281882   0.120   4.104   0.388  0.0527  1.6498  1.4039
20131TIP3   OH281883   0.456   0.223   6.531 -0.1208 -0.0890 -0.3152
20131TIP3    H181884   0.416   0.307   6.508 -0.6891  0.4956  2.3995
20131TIP3    H281885   0.481   0.185   6.448 -2.7419  1.3346 -1.9020
20132TIP3   OH281886   2.648   2.364   0.167 -0.6640  0.5522 -0.1770
20132TIP3    H181887   2.657   2.451   0.127 -0.1161  0.4357 -0.3104
20132TIP3    H281888   2.556   2.341   0.153 -0.6919  0.8954 -0.5865
20133TIP3   OH281889   5.008   1.254   6.583  0.8385  0.4408  0.1102
20133TIP3    H181890   5.056   1.297   6.654 -0.1656 -1.5316  2.1151
20133TIP3    H281891   4.925   1.303   6.577  1.5539  1.6021 -0.8837
20134TIP3   OH281892   1.814   4.294   1.654  0.6625 -0.0327 -0.3932
20134TIP3    H181893   1.754   4.226   1.624  1.5946 -1.0614 -0.0195
20134TIP3    H281894   1.778   4.323   1.738 -0.1678  0.5223 -0.9279
20135TIP3   OH281895   5.690   0.403   0.226 -0.8603  0.4755 -0.5570
20135TIP3    H181896   5.681   0.371   0.316 -0.5482 -0.8526 -0.9838
20135TIP3    H281897   5.604   0.441   0.206 -1.7415 -1.3982 -0.5115
20136TIP3   OH281898   6.605   3.110  15.686  0.0418  0.4326  0.2498
20136TIP3    H181899   6.552   3.032  15.698  0.5100  0.3399  1.9132
20136TIP3    H281900   6.686   3.078  15.646  0.6942 -0.1436  1.9622
20137TIP3   OH281901   3.488   2.516   5.244 -0.0198  0.8738 -0.5686
20137TIP3    H181902   3.475   2.577   5.317 -0.3038  0.4554 -0.2627
20137TIP3    H281903   3.578   2.532   5.215  0.3241  0.5849  0.3014
20138TIP3   OH281904   5.962   0.935   3.897 -0.0972  0.3570  0.1020
20138TIP3    H181905   5.937   0.966   3.984 -0.4425 -0.4577  0.3009
20138TIP3    H281906   5.905   0.860   3.880  0.5517 -0.0260 -0.4599
20139TIP3   OH281907   4.427   6.281   4.620  0.0409  0.4782 -0.0499
20139TIP3    H181908   4.361   6.216   4.644 -0.5186  1.0704  0.0344
20139TIP3    H281909   4.412   6.297   4.527 -0.0885  0.7911  0.0254
20140TIP3   OH281910   5.211   3.718  11.889 -0.0648 -0.5768  0.2706
20140TIP3    H181911   5.159   3.799  11.890 -0.0629 -0.5701 -0.1990
20140TIP3    H281912   5.152   3.652  11.927 -0.4692 -0.6000 -0.3839
20141TIP3   OH281913   5.205   0.065  15.066 -0.2527  0.4260 -0.5113
20141TIP3    H181914   5.127   0.042  15.014  0.0514 -0.6033 -0.5297
20141TIP3    H281915   5.236   0.147  15.027 -1.1316  0.6708 -0.7227
20142TIP3   OH281916   4.822   0.618   2.733 -0.6488 -0.5037  0.5533
20142TIP3    H181917   4.857   0.699   2.695 -0.4459 -1.4958 -1.5310
20142TIP3    H281918   4.830   0.631   2.828  0.6102  1.3605  0.2568
20143TIP3   OH281919   6.541   3.314   1.125 -0.1470 -0.4343  0.3989
20143TIP3    H181920   6.587   3.248   1.073 -0.2025 -0.2301  0.0888
20143TIP3    H281921   6.603   3.387   1.131 -0.1183 -0.4797  0.6712
20144TIP3   OH281922   1.519   0.163   0.914 -0.0198 -0.2376 -0.3152
20144TIP3    H181923   1.498   0.182   0.822  0.1699 -0.9510 -0.5148
20144TIP3    H281924   1.490   0.073   0.926 -0.1895 -0.0907  0.3759
20145TIP3   OH281925   6.741   6.197   4.539  0.6431 -0.4658  0.0913
20145TIP3    H181926   6.656   6.155   4.543  0.3466  0.1926  1.0635
20145TIP3    H281927   6.795   6.148   4.601  0.9999 -0.8919 -0.5323
20146TIP3   OH281928   4.269   3.524  14.213  0.1425  0.0110 -0.5128
20146TIP3    H181929   4.293   3.575  14.291 -0.5075  0.4530 -0.5955
20146TIP3    H281930   4.194   3.570  14.176  0.4799 -0.1516 -1.4440
20147TIP3   OH281931   2.153   4.051   0.503  0.5227  0.1562  0.5412
20147TIP3    H181932   2.219   4.094   0.558  0.8525 -0.9313  1.0234
20147TIP3    H281933   2.076   4.108   0.509  0.9827  0.7367  1.0725
20148TIP3   OH281934   5.221   2.628   5.898  0.4135  0.7644  0.3591
20148TIP3    H181935   5.301   2.631   5.846  1.1127 -1.5257  1.1536
20148TIP3    H281936   5.226   2.543   5.943 -3.3343 -0.3465 -0.9576
20149TIP3   OH281937   5.984   1.627   0.852 -0.0813  0.3070  0.3052
20149TIP3    H181938   6.039   1.655   0.925  0.4178  0.1699 -0.0123
20149TIP3    H281939   5.959   1.537   0.875  0.9813 -0.1371 -0.1971
20150TIP3   OH281940   3.898   6.716  11.940 -0.3270 -0.8504  0.0621
20150TIP3    H181941   3.877   6.679  11.854 -0.3737 -0.3988 -0.1213
20150TIP3    H281942   3.978   6.669  11.967 -0.2698 -0.9400 -0.2561
20151TIP3   OH281943   1.380   5.563  13.278 -0.2075  0.1992 -0.2209
20151TIP3    H181944   1.472   5.564  13.251 -0.2096 -0.2044 -0.2410
20151TIP3    H281945   1.379   5.507  13.356 -0.2975  0.8902  0.2868
20152TIP3   OH281946   0.949   1.589  11.104  0.1488  0.1478  0.1552
20152TIP3    H181947   0.935   1.495  11.118  0.8130 -0.0000 -0.1128
20152TIP3    H281948   0.941   1.601  11.010  0.4223  0.2948  0.1499
20153TIP3   OH281949   6.354   6.754   0.490 -0.3075  0.3275 -0.2272
20153TIP3    H181950   6.354   6.850   0.490  0.7979  0.3486 -0.4642
20153TIP3    H281951   6.293   6.729   0.559 -1.6598  1.1838 -1.0746
20154TIP3   OH281952   1.274   1.551   0.461  0.3527 -0.3193  1.1573
20154TIP3    H181953   1.310   1.463   0.445 -0.9430 -0.5705 -0.8618
20154TIP3    H281954   1.345   1.600   0.502  0.6701 -2.6754  3.7304
20155TIP3   OH281955   1.724   3.733   3.874 -0.1703 -0.4107 -1.1855
20155TIP3    H181956   1.668   3.713   3.949 -1.2758  0.2488 -1.7961
20155TIP3    H281957   1.662   3.750   3.802  0.8397 -0.3562 -2.0673
20156TIP3   OH281958   4.632   3.289   5.227 -0.0757  0.0749  0.0615
20156TIP3    H181959   4.685   3.369   5.227 -0.4234  0.3134  0.7504
20156TIP3    H281960   4.685   3.226   5.178  0.8839  0.2882  0.7798
20157TIP3   OH281961   2.467   3.797   4.858  0.3008 -0.1523  0.1796
20157TIP3    H181962   2.555   3.764   4.838  0.0992 -1.7830  1.7632
20157TIP3    H281963   2.409   3.749   4.798  0.4321  0.6991 -0.6519
20158TIP3   OH281964   4.242   2.600  16.618 -0.5885 -0.2620  0.4573
20158TIP3    H181965   4.153   2.564  16.617  0.1423 -2.1744  0.4682
20158TIP3    H281966   4.233   2.684  16.664 -1.8718 -1.9263  3.5524
20159TIP3   OH281967   4.201   0.174  13.041 -0.1622  0.3813 -0.5263
20159TIP3    H181968   4.240   0.087  13.037  1.2695  0.9484  0.2425
20159TIP3    H281969   4.108   0.160  13.028  0.1286 -1.1937 -1.0407
20160TIP3   OH281970   5.660   1.594  10.969  0.8015 -0.0747 -0.1326
20160TIP3    H181971   5.696   1.506  10.985  1.1148 -0.0241 -0.5386
20160TIP3    H281972   5.736   1.652  10.978  0.7878  0.0542 -0.8086
20161TIP3   OH281973   3.756   5.668  16.655  0.3225  0.4899  0.2153
20161TIP3    H181974   3.848   5.671  16.629 -0.0347 -0.6135 -1.3208
20161TIP3    H281975   3.731   5.759  16.666  1.1924  0.8830 -0.9000
20162TIP3   OH281976   4.151   3.512  13.363  0.1648 -0.0177  0.2699
20162TIP3    H181977   4.111   3.429  13.389 -0.7365  0.8318  1.7820
20162TIP3    H281978   4.146   3.566  13.442 -0.7139  2.0043 -1.0879
20163TIP3   OH281979   3.906   6.738   2.581 -0.2591  0.2015  0.0017
20163TIP3    H181980   3.922   6.826   2.614 -0.3669 -0.1455  1.0090
20163TIP3    H281981   3.992   6.698   2.576 -0.2891  0.1057  0.2781
20164TIP3   OH281982   6.820   5.344   0.404 -0.0221 -0.5208 -0.5944
20164TIP3    H181983   6.823   5.329   0.498 -1.1663 -2.0683 -0.7803
20164TIP3    H281984   6.824   5.440   0.395 -0.5221 -0.3202  1.0478
20165TIP3   OH281985   2.328   4.964  13.783 -0.0797  0.0428  0.7253
20165TIP3    H181986   2.354   4.943  13.873 -2.7964 -0.3384  1.4962
20165TIP3    H281987   2.311   5.058  13.784  0.1336  0.0850  0.5325
20166TIP3   OH281988   4.550   2.540   4.216 -0.2068  0.2006  0.0409
20166TIP3    H181989   4.637   2.557   4.253  0.7521 -0.4627 -1.7650
20166TIP3    H281990   4.499   2.618   4.237  0.1253 -0.2525  2.9679
20167TIP3   OH281991   4.381   5.630   0.429 -0.5276  0.0721  0.4409
20167TIP3    H181992   4.320   5.690   0.471 -1.2668 -0.2987 -0.0973
20167TIP3    H281993   4.353   5.543   0.457 -0.0738 -0.0893  0.4114
20168TIP3   OH281994   0.929   2.335   0.150 -0.1253 -0.1690 -0.2264
20168TIP3    H181995   0.849   2.284   0.142 -0.0165 -0.3544 -0.1411
20168TIP3    H281996   0.914   2.392   0.225 -1.3998  2.0206 -2.0100
20169TIP3   OH281997   1.592   2.477  17.036  0.4932  0.2571 -0.7516
20169TIP3    H181998   1.538   2.550  17.065  2.2681  1.6374 -0.7422
20169TIP3    H281999   1.608   2.494  16.943 -2.2231 -2.2542 -1.8493
20170TIP3   OH282000   0.676   1.457  14.390  0.0121 -0.1021  0.0325
20170TIP3    H182001   0.617   1.442  14.316  0.5802 -2.5647 -0.0070
20170TIP3    H282002   0.740   1.386  14.384 -0.2789 -0.7797  3.2227
20171TIP3   OH282003   6.263   4.747   5.663 -0.0848  1.0552 -0.2372
20171TIP3    H182004   6.279   4.757   5.757  0.2299  1.0440 -0.2887
20171TIP3    H282005   6.179   4.701   5.658 -0.0801  1.0142  0.0378
20172TIP3   OH282006   3.942   6.601   5.756 -0.3299 -0.6959 -0.0098
20172TIP3    H182007   3.908   6.688   5.732 -0.6823 -0.7918  0.1325
20172TIP3    H282008   3.950   6.604   5.851  0.7871 -0.4173 -0.1024
20173TIP3   OH282009   1.918   4.326  11.438  0.4338 -0.7929  0.5324
20173TIP3    H182010   1.978   4.400  11.449 -2.1078  1.0651  3.5780
20173TIP3    H282011   1.907   4.318  11.343  2.8409  0.9385  0.0086
20174TIP3   OH282012   1.165   6.312   3.277 -0.0412  0.2140 -0.0980
20174TIP3    H182013   1.120   6.228   3.280  0.7637 -0.2122  0.5327
20174TIP3    H282014   1.097   6.377   3.294 -0.6743 -0.2988 -0.6274
20175TIP3   OH282015   3.138   3.896  16.167  0.0873  0.9099 -0.0345
20175TIP3    H182016   3.116   3.988  16.184  1.0489  1.5126 -1.7748
20175TIP3    H282017   3.189   3.869  16.242 -2.5079  0.8940  1.8645
20176TIP3   OH282018   2.119   3.809  13.428 -0.4984 -0.4206 -0.0325
20176TIP3    H182019   2.112   3.895  13.387 -2.0534  0.4854  1.9911
20176TIP3    H282020   2.211   3.803  13.454  0.5088 -0.9414 -3.2454
20177TIP3   OH282021   0.053   0.995  11.768  0.1810 -0.4081  0.7601
20177TIP3    H182022   0.017   0.910  11.795  0.8262 -0.7865  0.4550
20177TIP3    H282023   0.147   0.988  11.785  0.1357  0.5434  1.4808
20178TIP3   OH282024   2.154   3.390   3.239 -0.1415  0.3570  0.1942
20178TIP3    H182025   2.231   3.417   3.189  0.1641 -1.8596 -0.6187
20178TIP3    H282026   2.156   3.445   3.317  1.8150  0.8923 -0.1732
20179TIP3   OH282027   2.568   4.019  12.307  0.0979 -0.3361 -0.4025
20179TIP3    H182028   2.625   3.971  12.247  0.8307 -1.6955  1.3014
20179TIP3    H282029   2.627   4.071  12.360 -0.4614  0.1161 -0.2177
20180TIP3   OH282030   2.495   4.290  14.189  0.1492  0.4573 -0.2857
20180TIP3    H182031   2.505   4.263  14.098  0.3899  1.7150 -0.6558
20180TIP3    H282032   2.427   4.358  14.186 -2.1437 -1.6156  0.9337
20181TIP3   OH282033   6.789   5.981   1.970 -0.2589 -0.4027  0.2586
20181TIP3    H182034   6.729   5.921   1.927 -0.4828  0.5516 -0.7966
20181TIP3    H282035   6.799   6.054   1.909 -0.3875  0.8883  1.7107
20182TIP3   OH282036   2.256   2.854  14.866 -0.5018  0.1061 -0.0373
20182TIP3    H182037   2.249   2.776  14.921 -0.8072  0.5490  0.5575
20182TIP3    H282038   2.200   2.835  14.790 -2.8726  0.8598  1.4264
20183TIP3   OH282039   6.340   0.790   2.327  0.5132  0.6801 -0.2244
20183TIP3    H182040   6.414   0.747   2.370 -0.6112  0.4613  1.5705
20183TIP3    H282041   6.278   0.719   2.310  1.0383  0.6920 -2.5959
20184TIP3   OH282042   0.977   6.678   0.373 -0.3087 -0.5004 -0.3708
20184TIP3    H182043   0.920   6.752   0.394  0.3101 -0.5174  1.5756
20184TIP3    H282044   1.065   6.708   0.398  0.2478 -1.1985 -1.4290
20185TIP3   OH282045   5.566   0.356   5.415 -0.0447  0.1809  0.2012
20185TIP3    H182046   5.643   0.318   5.371 -0.8225 -1.1262 -0.0806
20185TIP3    H282047   5.575   0.450   5.401 -1.4132 -0.1561 -4.8658
20186TIP3   OH282048   3.972   5.938  16.165  0.1433  0.6895  0.0993
20186TIP3    H182049   3.901   5.884  16.198  0.9687 -0.1939  0.4618
20186TIP3    H282050   3.933   5.985  16.091 -0.6725 -0.1781 -0.0444
20187TIP3   OH282051   2.337   4.572   0.741  0.1522 -0.6269 -0.0820
20187TIP3    H182052   2.326   4.646   0.681  1.5350 -0.0492  0.3169
20187TIP3    H282053   2.317   4.495   0.689 -0.3882 -0.0205 -0.7840
20188TIP3   OH282054   0.751   0.205  14.358  0.1597 -0.5438  0.5193
20188TIP3    H182055   0.663   0.185  14.389  0.7584 -1.7700  1.5144
20188TIP3    H282056   0.773   0.131  14.301  0.5747 -0.2874  0.3477
20189TIP3   OH282057   0.402   0.322   3.119 -0.1798  0.2147 -0.4754
20189TIP3    H182058   0.492   0.331   3.090  0.8428 -2.1608  1.6278
20189TIP3    H282059   0.408   0.303   3.213 -2.8262 -0.4030 -0.3426
20190TIP3   OH282060   0.332   2.811   3.169 -0.1272 -0.4174 -0.4495
20190TIP3    H182061   0.249   2.796   3.123 -0.1619 -0.6599 -0.3116
20190TIP3    H282062   0.315   2.780   3.259  0.1507 -0.5908 -0.4539
20191TIP3   OH282063   5.052   5.215   6.598  0.4166 -0.6236 -0.4892
20191TIP3    H182064   4.982   5.278   6.617  2.0657  1.3209 -0.4200
20191TIP3    H282065   5.066   5.223   6.503  0.9049 -0.5489 -0.4165
20192TIP3   OH282066   2.001   4.914   0.789  0.3831 -0.3022  0.0175
20192TIP3    H182067   1.981   4.929   0.696  0.4104 -0.8870 -0.0897
20192TIP3    H282068   2.093   4.939   0.798 -0.0345  1.2196  0.2365
20193TIP3   OH282069   4.945   4.825  15.092 -0.0771  0.1872  0.0297
20193TIP3    H182070   4.930   4.864  15.006 -1.7986  3.8439  1.7464
20193TIP3    H282071   4.861   4.787  15.117  0.3783 -0.7485  0.2091
20194TIP3   OH282072   5.053   1.377  11.608 -0.0429 -0.6289 -0.2672
20194TIP3    H182073   5.021   1.327  11.683  0.4508  0.1249  0.4694
20194TIP3    H282074   4.996   1.352  11.536 -1.0566 -0.7545  0.5558
20195TIP3   OH282075   2.687   5.337   2.777 -0.0595 -0.0862 -0.2884
20195TIP3    H182076   2.764   5.301   2.821  0.8453  1.2927 -0.6750
20195TIP3    H282077   2.637   5.378   2.847  0.0309 -0.1676 -0.1738
20196TIP3   OH282078   0.467   0.100  13.795 -0.1484  0.7523 -0.1349
20196TIP3    H182079   0.556   0.067  13.795  0.4741  2.3476 -0.3620
20196TIP3    H282080   0.412   0.023  13.781  1.2890 -0.0410 -1.6950
20197TIP3   OH282081   5.557   5.190  16.795  0.6219 -0.2258  0.1569
20197TIP3    H182082   5.485   5.212  16.854 -1.2536 -2.4742 -1.1232
20197TIP3    H282083   5.625   5.157  16.853  0.6049  1.6810  1.3787
20198TIP3   OH282084   6.353   6.193   0.324  0.2325  0.0616  0.1155
20198TIP3    H182085   6.340   6.119   0.265 -0.0572  0.8419 -0.8187
20198TIP3    H282086   6.306   6.168   0.404  1.9818 -1.7095  0.6700
20199TIP3   OH282087   3.685   2.602  14.895 -0.0349  0.1429 -0.0026
20199TIP3    H182088   3.754   2.634  14.952 -0.2191  2.1326 -0.8188
20199TIP3    H282089   3.605   2.613  14.945  0.1952 -2.7015  1.1692
20200TIP3   OH282090   4.436   5.266  12.546  0.1411  0.2295  0.5224
20200TIP3    H182091   4.456   5.350  12.588 -1.4391  1.2029 -0.5386
20200TIP3    H282092   4.442   5.284  12.453  0.0865 -0.9262  0.2866
20201TIP3   OH282093   0.105   6.741  11.961  0.4224  0.3827 -0.2088
20201TIP3    H182094   0.137   6.805  11.898 -0.5045  0.7496 -0.3261
20201TIP3    H282095   0.019   6.716  11.928  0.7787 -0.9530 -0.1798
20202TIP3   OH282096   2.164   4.705  14.890 -0.0536 -0.0726 -0.3547
20202TIP3    H182097   2.149   4.785  14.840 -0.5082 -1.0982 -1.9252
20202TIP3    H282098   2.163   4.734  14.981  0.4584  1.8072 -0.8862
20203TIP3   OH282099   6.620   0.028  11.682 -0.0813  0.1938 -0.0092
20203TIP3    H182100   6.637  -0.011  11.768  0.3193 -1.6365 -0.8698
20203TIP3    H282101   6.540  -0.016  11.652  1.4583 -1.5021 -1.8495
20204TIP3   OH282102   4.541   2.197   2.968 -0.0725 -0.4698  0.3822
20204TIP3    H182103   4.609   2.254   3.005 -0.1964 -0.8545  1.2182
20204TIP3    H282104   4.565   2.188   2.876  0.2334  0.5254  0.3467
20205TIP3   OH282105   3.547   3.695  11.650  0.1253 -0.4193 -0.3276
20205TIP3    H182106   3.529   3.658  11.564 -1.7380  0.0167 -0.1810
20205TIP3    H282107   3.595   3.776  11.633 -1.3371  0.3334 -1.0889
20206TIP3   OH282108   0.362   1.817   4.859  0.1696  0.0710 -0.0497
20206TIP3    H182109   0.358   1.738   4.912 -0.0400 -1.8005 -2.7076
20206TIP3    H282110   0.456   1.834   4.847  0.2115  0.0904  0.2946
20207TIP3   OH282111   0.925   0.217  16.580  0.3765  0.1176  0.5615
20207TIP3    H182112   0.997   0.272  16.546  1.9233 -1.7614  0.6404
20207TIP3    H282113   0.891   0.267  16.655  2.2998  0.6183  1.1650
20208TIP3   OH282114   4.322   2.942  17.229 -0.3082  0.0184 -0.3588
20208TIP3    H182115   4.351   2.853  17.208  0.0475  0.6786 -3.1142
20208TIP3    H282116   4.228   2.935  17.244  0.1118 -1.1714  2.2461
20209TIP3   OH282117   0.375   0.123   2.416 -0.0444  0.4390 -0.1793
20209TIP3    H182118   0.399   0.035   2.386 -1.6423 -0.9115  2.1678
20209TIP3    H282119   0.440   0.144   2.484 -0.9001  0.0936  0.7742
20210TIP3   OH282120   6.367   3.528   6.135 -0.0562 -0.4297  0.4958
20210TIP3    H182121   6.304   3.494   6.198 -0.1916 -0.9523  0.0872
20210TIP3    H282122   6.324   3.604   6.096 -0.3488 -0.6545  0.3777
20211TIP3   OH282123   0.697   2.655   2.479  0.4822 -0.2332 -0.0960
20211TIP3    H182124   0.789   2.677   2.493 -0.1883  2.2959  0.8493
20211TIP3    H282125   0.679   2.681   2.389  0.3219  0.7887  0.2221
20212TIP3   OH282126   1.961   5.534  11.024  0.2965  0.0327 -0.0243
20212TIP3    H182127   2.024   5.464  11.045  0.4301  0.1121 -0.1548
20212TIP3    H282128   2.003   5.583  10.953 -0.9340 -1.2918 -1.7227
20213TIP3   OH282129   6.681   2.539  16.048  0.0510  0.7858  0.5159
20213TIP3    H182130   6.702   2.521  16.139 -0.6987  1.2814  0.7924
20213TIP3    H282131   6.675   2.635  16.043 -0.0177  0.7595 -0.0276
20214TIP3   OH282132   2.615   3.531   4.961 -0.2473  0.2844  0.1696
20214TIP3    H182133   2.675   3.512   5.034 -0.0536 -1.1076 -0.3202
20214TIP3    H282134   2.662   3.595   4.908  1.0816 -1.1627 -0.4776
20215TIP3   OH282135   3.650   4.300  14.611 -0.1046  0.1306 -0.3278
20215TIP3    H182136   3.574   4.249  14.641  0.1002  0.3037  0.4985
20215TIP3    H282137   3.613   4.383  14.582 -0.3964 -0.3280 -1.3250
20216TIP3   OH282138   6.110   5.369   0.176 -0.3395 -0.0345 -0.2500
20216TIP3    H182139   6.163   5.313   0.233  0.1087  1.2955  0.6970
20216TIP3    H282140   6.165   5.446   0.161 -1.4188  0.7080 -0.5088
20217TIP3   OH282141   6.137   1.829  14.958  0.5963 -0.0707  0.2588
20217TIP3    H182142   6.125   1.849  15.050 -0.7181 -1.3721  0.4065
20217TIP3    H282143   6.214   1.773  14.955 -0.1019 -1.0768  0.7394
20218TIP3   OH282144   4.123   0.619  13.386 -0.5493  0.1439  0.2860
20218TIP3    H182145   4.079   0.665  13.314  0.3519  0.2943 -0.1769
20218TIP3    H282146   4.140   0.531  13.351 -0.6944  0.0078  0.5510
20219TIP3   OH282147   1.781   5.141  13.167 -0.0750  0.0236  0.5743
20219TIP3    H182148   1.832   5.219  13.188  1.0625 -0.8755  1.2640
20219TIP3    H282149   1.690   5.170  13.169  0.2935  1.1638  1.4957
20220TIP3   OH282150   3.321   3.491  12.027  0.5542  0.3883  0.1590
20220TIP3    H182151   3.253   3.516  11.964  1.5861  0.1994 -1.0707
20220TIP3    H282152   3.283   3.417  12.075 -0.5181  0.9785  0.2501
20221TIP3   OH282153   4.857   2.302   0.940 -0.2892  0.6134  0.0066
20221TIP3    H182154   4.796   2.270   0.874  0.7116  0.9195 -1.1002
20221TIP3    H282155   4.859   2.397   0.928  1.5511  0.4888 -1.0440
20222TIP3   OH282156   5.722   4.980  16.621 -0.3002  0.0647 -0.2656
20222TIP3    H182157   5.808   4.971  16.578 -0.3851  0.8834 -0.6290
20222TIP3    H282158   5.732   5.057  16.677 -0.4832 -0.4539  0.4897
20223TIP3   OH282159   2.515   0.492   4.035 -0.3631  0.3383  0.1245
20223TIP3    H182160   2.545   0.577   4.067 -0.7072  0.7314 -0.5647
20223TIP3    H282161   2.462   0.513   3.958 -0.1296 -0.5254 -0.2858
20224TIP3   OH282162   4.253   0.900  13.041  0.6781 -0.7587  0.2976
20224TIP3    H182163   4.254   0.890  12.946  0.1184  0.0660  0.1957
20224TIP3    H282164   4.219   0.817  13.074  0.2129 -0.7897 -0.2562
20225TIP3   OH282165   3.388   0.516  11.315 -0.6436  0.2512  0.2503
20225TIP3    H182166   3.464   0.573  11.329 -0.6812  0.3182  0.1841
20225TIP3    H282167   3.409   0.468  11.235 -1.2505  1.2404 -0.5316
20226TIP3   OH282168   6.414   2.493  12.473 -0.2599 -0.2770  0.1775
20226TIP3    H182169   6.345   2.523  12.532 -0.0238 -0.4673  0.5486
20226TIP3    H282170   6.485   2.557  12.485  0.0787 -0.7420  0.6523
20227TIP3   OH282171   5.786   6.587   6.683  0.3037  0.4403  0.0525
20227TIP3    H182172   5.718   6.519   6.680  0.2153  0.5746 -1.3583
20227TIP3    H282173   5.738   6.669   6.690  0.4090  0.4042  1.6408
20228TIP3   OH282174   2.716   6.549   1.867 -0.0934  0.2209 -1.0834
20228TIP3    H182175   2.760   6.465   1.853  0.6115  0.4830 -0.4888
20228TIP3    H282176   2.632   6.526   1.905  0.5333 -0.1691  0.0963
20229TIP3   OH282177   4.899   2.550   2.466 -0.3371  0.2819  0.0541
20229TIP3    H182178   4.979   2.601   2.481 -2.5242  3.7889  0.9847
20229TIP3    H282179   4.925   2.459   2.481  2.9130  1.4512  2.7474
20230TIP3   OH282180   1.975   1.674  11.739  0.2713  0.0904  0.4576
20230TIP3    H182181   2.016   1.755  11.770  0.6013  0.5832 -1.1653
20230TIP3    H282182   2.048   1.613  11.729  0.1889 -0.0111  0.4725
20231TIP3   OH282183   4.446   1.713   2.231  0.2995  0.1019 -0.6579
20231TIP3    H182184   4.360   1.713   2.272 -0.0579  2.7205 -1.2499
20231TIP3    H282185   4.506   1.689   2.302 -0.7503 -0.1668  0.1728
20232TIP3   OH282186   2.366   3.867   4.045  0.2764 -0.3848  0.5159
20232TIP3    H182187   2.343   3.862   4.138 -2.0086 -1.4665 -0.0372
20232TIP3    H282188   2.341   3.956   4.019 -1.6452 -0.9002  0.4014
20233TIP3   OH282189   6.585   4.926   6.043 -0.1753 -0.1116  0.1245
20233TIP3    H182190   6.613   4.908   6.132  3.9956  1.3753 -0.6475
20233TIP3    H282191   6.527   5.002   6.050  0.1585  0.0268  1.5524
20234TIP3   OH282192   5.200   5.445   5.776  0.2940  0.0556 -0.0152
20234TIP3    H182193   5.245   5.525   5.747  0.3022  0.3017  0.6624
20234TIP3    H282194   5.176   5.400   5.695 -0.8300  1.3610 -0.4375
20235TIP3   OH282195   0.464   3.836  10.582 -0.2363 -0.2594  0.0538
20235TIP3    H182196   0.551   3.801  10.604 -0.6887 -1.3353  0.1393
20235TIP3    H282197   0.418   3.764  10.541 -0.9606  0.4351 -0.3774
20236TIP3   OH282198   0.567   1.115  12.357  0.4643  0.0364 -0.3814
20236TIP3    H182199   0.617   1.102  12.438 -1.7924  0.3417  1.1700
20236TIP3    H282200   0.476   1.097  12.382 -0.5736  2.0046 -2.3717
20237TIP3   OH282201   6.388   4.638  14.233 -0.6141 -0.7470  0.4846
20237TIP3    H182202   6.473   4.600  14.212 -0.2846  1.2144 -2.5090
20237TIP3    H282203   6.325   4.568  14.216  0.2228 -1.2407 -0.7480
20238TIP3   OH282204   0.397   0.713   5.245 -0.5236 -0.1449 -0.3053
20238TIP3    H182205   0.467   0.758   5.199  1.1470  0.1684  2.3419
20238TIP3    H282206   0.323   0.773   5.242  0.1872  0.7146 -0.8476
20239TIP3   OH282207   4.546   6.642   6.181 -0.5373 -0.3306 -0.0878
20239TIP3    H182208   4.639   6.621   6.168 -0.2976  1.6059 -2.3280
20239TIP3    H282209   4.545   6.694   6.262  0.0395 -1.7887  0.8929
20240TIP3   OH282210   2.492   1.601  13.550  0.1262 -0.2517  0.1015
20240TIP3    H182211   2.567   1.657  13.530 -1.1573  1.7860  0.7559
20240TIP3    H282212   2.426   1.660  13.586 -2.0081 -1.9042 -0.8785
20241TIP3   OH282213   6.110   6.415   6.000 -0.0586 -0.0373  0.2610
20241TIP3    H182214   6.035   6.361   5.975 -0.1133  0.5296 -0.8811
20241TIP3    H282215   6.075   6.480   6.061 -0.4042 -0.0707  0.0972
20242TIP3   OH282216   0.994   5.226  15.630 -0.8656 -0.1946  0.3464
20242TIP3    H182217   0.928   5.263  15.571  0.2078  0.4170 -0.5010
20242TIP3    H282218   0.949   5.219  15.714 -2.0270  0.1681 -0.2214
20243TIP3   OH282219   3.807   6.479   3.273  0.6689  0.1777 -0.1493
20243TIP3    H182220   3.848   6.511   3.353  1.9083 -0.9387 -0.2994
20243TIP3    H282221   3.716   6.509   3.279  1.1763  1.6530  0.7986
20244TIP3   OH282222   2.530   2.537   1.050 -0.2758  0.3164  0.0249
20244TIP3    H182223   2.454   2.593   1.038 -0.2477  0.4703  0.5215
20244TIP3    H282224   2.534   2.523   1.145 -1.8107 -2.6541 -0.2378
20245TIP3   OH282225   5.476   3.901  14.408 -0.3387 -0.6769  0.4102
20245TIP3    H182226   5.469   3.995  14.390 -2.2029 -0.7572  0.5240
20245TIP3    H282227   5.509   3.896  14.498  2.4554 -0.2176 -0.4856
20246TIP3   OH282228   3.815   0.175  14.078  0.3303  0.3394  0.1092
20246TIP3    H182229   3.742   0.204  14.023  0.5771  1.3658  0.2915
20246TIP3    H282230   3.802   0.081  14.089 -0.6919  0.4278 -0.2570
20247TIP3   OH282231   1.525   5.936   4.295 -0.0210  0.0107 -0.1803
20247TIP3    H182232   1.592   5.882   4.254  1.8555  0.5803  1.9798
20247TIP3    H282233   1.464   5.874   4.335  1.0280 -0.5348  0.6018
20248TIP3   OH282234   3.181   6.755   3.067 -0.0990 -0.2685  0.3729
20248TIP3    H182235   3.161   6.727   2.978  0.8449  0.6940 -0.1717
20248TIP3    H282236   3.238   6.831   3.056 -0.0306 -0.0776  1.8031
20249LIG      S82237   3.565   3.505  16.404 -0.1206 -0.4039  0.4595
20249LIG     N182238   3.016   3.478  16.531 -0.3073 -0.3395  0.0555
20249LIG     N282239   3.306   3.465  16.549 -0.8071 -0.2044 -0.0347
20249LIG     C182240   3.054   3.381  16.423  1.2960 -0.2899 -0.5568
20249LIG     C282241   3.182   3.419  16.344  0.3943  0.4783 -0.1538
20249LIG     C382242   3.299   3.463  16.405 -0.4753  0.2341 -0.2907
20249LIG     C482243   2.918   3.438  16.624 -0.2420  0.4755  0.1780
20249LIG     C582244   2.996   3.618  16.480 -0.2966 -0.6834 -0.0917
20249LIG     C682245   3.076   3.237  16.462  0.5395  0.7583 -0.0083
20249LIG     C782246   3.416   3.480  16.326 -0.5537  0.2196 -0.4267
20249LIG     C882247   3.170   3.405  16.208  0.6689  0.4814  0.4384
20249LIG     C982248   3.417   3.392  16.601 -0.3465 -0.9063  0.1351
20249LIG    C1082249   2.784   3.394  16.566 -0.8184  0.2084 -0.1386
20249LIG    C1182250   3.055   3.730  16.570 -0.5976 -0.5530  0.1877
20249LIG    C1282251   3.406   3.460  16.194 -0.1613  0.2889  0.6791
20249LIG    C1382252   3.287   3.425  16.132  0.3302 -0.4764 -0.8353
20249LIG    C1482253   3.547   3.407  16.548 -0.0976  0.5179 -0.0152
20249LIG    C1582254   3.398   3.305  16.710 -0.1173 -0.3219  0.1455
20249LIG    C1682255   3.656   3.327  16.596 -0.9547  0.1876  0.4283
20249LIG    C1782256   3.509   3.240  16.768 -0.3591  0.3446  0.0282
20249LIG    C1882257   3.634   3.247  16.705 -0.1224  0.1822 -0.3076
20249LIG     H182258   2.976   3.395  16.344  0.6360 -2.2898 -0.3061
20249LIG     H282259   2.906   3.519  16.699 -0.6982  1.1684 -0.6256
20249LIG     H382260   2.970   3.354  16.676 -1.1272  0.0237  0.3429
20249LIG     H482261   2.889   3.640  16.457  0.2402  1.3647 -0.7852
20249LIG     H582262   3.046   3.637  16.382 -0.6516  4.0617  0.4437
20249LIG     H682263   3.179   3.208  16.492  0.6261 -0.4168 -1.3263
20249LIG     H782264   3.058   3.170  16.375  0.8748 -0.8941  1.1604
20249LIG     H882265   3.009   3.196  16.541 -0.1898  1.1201 -0.4231
20249LIG     H982266   3.078   3.379  16.159  1.0137 -0.4931  0.2798
20249LIG    H1082267   3.214   3.462  16.593 -1.4852  1.0823 -1.2495
20249LIG    H1182268   2.715   3.471  16.526  1.0298  2.1923  0.3286
20249LIG    H1282269   2.721   3.343  16.642 -1.1248 -2.6011 -2.0978
20249LIG    H1382270   2.792   3.317  16.485 -2.7757 -0.3715  0.1822
20249LIG    H1482271   3.155   3.709  16.613  0.2145  2.5162  0.0660
20249LIG    H1582272   2.986   3.740  16.657 -1.5562  1.5108 -0.7362
20249LIG    H1682273   3.065   3.824  16.511  1.2070  0.3994  1.9179
20249LIG    H1782274   3.488   3.476  16.125 -0.6246 -2.5795 -0.6731
20249LIG    H1882275   3.291   3.434  16.025  2.4832  2.2602 -0.6375
20249LIG    H1982276   3.300   3.301  16.754 -0.5853 -0.6330 -0.8944
20249LIG    H2082277   3.758   3.343  16.564 -0.2497 -1.0777  1.9217
20249LIG    H2182278   3.487   3.172  16.849  2.4882  1.0593  1.5421
20249LIG    H2282279   3.717   3.193  16.748  0.9827  2.1011  0.0408
   6.82468   6.82468  17.23919
